
.Version 9.2.2 of ABINIT 
.(MPI version, prepared for a x86_64_linux_gnu9.3 computer) 

.Copyright (C) 1998-2020 ABINIT group . 
 ABINIT comes with ABSOLUTELY NO WARRANTY.
 It is free software, and you are welcome to redistribute it
 under certain conditions (GNU General Public License,
 see ~abinit/COPYING or http://www.gnu.org/copyleft/gpl.txt).

 ABINIT is a project of the Universite Catholique de Louvain,
 Corning Inc. and other collaborators, see ~abinit/doc/developers/contributors.txt .
 Please read https://docs.abinit.org/theory/acknowledgments for suggested
 acknowledgments of the ABINIT effort.
 For more information, see https://www.abinit.org .

.Starting date : Sat 19 Nov 2022.
- ( at 11h25 )
  
- input  file    -> Cs2TiI6.in
- output file    -> Cs2TiI6.out
- root for input  files -> Cs2TiI6i
- root for output files -> Cs2TiI6o

- inpspheads : Reading pseudopotential header in XML form from 
-   ../../../Psps_for_tests/ATOMICDATA/Cs.GGA_PBE-JTH.xml
- inpspheads : Reading pseudopotential header in XML form from 
-   ../../../Psps_for_tests/ATOMICDATA/I.GGA_PBE-JTH.xml
- inpspheads : Reading pseudopotential header in XML form from 
-   ../../../Psps_for_tests/ATOMICDATA/Zr.GGA_PBE-JTH.xml
- inpspheads : Reading pseudopotential header in XML form from 
-   ../../../Psps_for_tests/ATOMICDATA/Br.GGA_PBE-JTH.xml

 DATASET    1 : space group I4 m m (#107); Bravais tI (body-center tetrag.)
================================================================================
 Values of the parameters that define the memory need for DATASET  1.
     intxc =       0    ionmov =       2      iscf =      17    lmnmax =      18
     lnmax =       6     mgfft =      72  mpssoang =       3    mqgrid =    4216
     natom =       9  nloc_mem =       2    nspden =       1   nspinor =       1
    nsppol =       1      nsym =       8    n1xccc =       1    ntypat =       4
    occopt =       1   xclevel =       2
-    mband =          42        mffmem =           1         mkmem =           4
       mpw =       12932          nfft =      373248          nkpt =          20
Pmy_natom=         2
 PAW method is used; the additional fine FFT grid is defined by:
   mgfftf=       108    nfftf =   1259712
================================================================================
P This job should need less than                     415.488 Mbytes of memory.
  Rough estimation (10% accuracy) of disk space for files :
_ WF disk file :    165.756 Mbytes ; DEN or POT disk file :      9.613 Mbytes.
================================================================================


 DATASET    2 : space group I4 m m (#107); Bravais tI (body-center tetrag.)
================================================================================
 Values of the parameters that define the memory need for DATASET  2.
     intxc =       0    ionmov =       2      iscf =      17    lmnmax =      18
     lnmax =       6     mgfft =      72  mpssoang =       3    mqgrid =    4173
     natom =       9  nloc_mem =       2    nspden =       1   nspinor =       1
    nsppol =       1      nsym =       8    n1xccc =       1    ntypat =       4
    occopt =       1   xclevel =       2
-    mband =          42        mffmem =           1         mkmem =           4
       mpw =       12531          nfft =      373248          nkpt =          20
Pmy_natom=         2
 PAW method is used; the additional fine FFT grid is defined by:
   mgfftf=       108    nfftf =   1259712
================================================================================
P This job should need less than                     415.070 Mbytes of memory.
  Rough estimation (10% accuracy) of disk space for files :
_ WF disk file :    160.617 Mbytes ; DEN or POT disk file :      9.613 Mbytes.
================================================================================


 DATASET    3 : space group I4 m m (#107); Bravais tI (body-center tetrag.)
================================================================================
 Values of the parameters that define the memory need for DATASET  3.
     intxc =       0    ionmov =       2      iscf =      17    lmnmax =      18
     lnmax =       6     mgfft =      72  mpssoang =       3    mqgrid =    4131
     natom =       9  nloc_mem =       2    nspden =       1   nspinor =       1
    nsppol =       1      nsym =       8    n1xccc =       1    ntypat =       4
    occopt =       1   xclevel =       2
-    mband =          42        mffmem =           1         mkmem =           4
       mpw =       12147          nfft =      373248          nkpt =          20
Pmy_natom=         2
 PAW method is used; the additional fine FFT grid is defined by:
   mgfftf=       108    nfftf =   1259712
================================================================================
P This job should need less than                     414.735 Mbytes of memory.
  Rough estimation (10% accuracy) of disk space for files :
_ WF disk file :    155.695 Mbytes ; DEN or POT disk file :      9.613 Mbytes.
================================================================================


 DATASET    4 : space group I4 m m (#107); Bravais tI (body-center tetrag.)
================================================================================
 Values of the parameters that define the memory need for DATASET  4.
     intxc =       0    ionmov =       2      iscf =      17    lmnmax =      18
     lnmax =       6     mgfft =      64  mpssoang =       3    mqgrid =    4088
     natom =       9  nloc_mem =       2    nspden =       1   nspinor =       1
    nsppol =       1      nsym =       8    n1xccc =       1    ntypat =       4
    occopt =       1   xclevel =       2
-    mband =          42        mffmem =           1         mkmem =           4
       mpw =       11771          nfft =      262144          nkpt =          20
Pmy_natom=         2
 PAW method is used; the additional fine FFT grid is defined by:
   mgfftf=       108    nfftf =   1259712
================================================================================
P This job should need less than                     397.918 Mbytes of memory.
  Rough estimation (10% accuracy) of disk space for files :
_ WF disk file :    150.875 Mbytes ; DEN or POT disk file :      9.613 Mbytes.
================================================================================


 DATASET    5 : space group I4 m m (#107); Bravais tI (body-center tetrag.)
================================================================================
 Values of the parameters that define the memory need for DATASET  5.
     intxc =       0    ionmov =       2      iscf =      17    lmnmax =      18
     lnmax =       6     mgfft =      64  mpssoang =       3    mqgrid =    4046
     natom =       9  nloc_mem =       2    nspden =       1   nspinor =       1
    nsppol =       1      nsym =       8    n1xccc =       1    ntypat =       4
    occopt =       1   xclevel =       2
-    mband =          42        mffmem =           1         mkmem =           4
       mpw =       11408          nfft =      262144          nkpt =          20
Pmy_natom=         2
 PAW method is used; the additional fine FFT grid is defined by:
   mgfftf=       100    nfftf =   1000000
================================================================================
P This job should need less than                     331.575 Mbytes of memory.
  Rough estimation (10% accuracy) of disk space for files :
_ WF disk file :    146.223 Mbytes ; DEN or POT disk file :      7.631 Mbytes.
================================================================================


 DATASET    6 : space group I4 m m (#107); Bravais tI (body-center tetrag.)
================================================================================
 Values of the parameters that define the memory need for DATASET  6.
     intxc =       0    ionmov =       2      iscf =      17    lmnmax =      18
     lnmax =       6     mgfft =      64  mpssoang =       3    mqgrid =    4003
     natom =       9  nloc_mem =       2    nspden =       1   nspinor =       1
    nsppol =       1      nsym =       8    n1xccc =       1    ntypat =       4
    occopt =       1   xclevel =       2
-    mband =          42        mffmem =           1         mkmem =           4
       mpw =       11063          nfft =      262144          nkpt =          20
Pmy_natom=         2
 PAW method is used; the additional fine FFT grid is defined by:
   mgfftf=       100    nfftf =   1000000
================================================================================
P This job should need less than                     331.273 Mbytes of memory.
  Rough estimation (10% accuracy) of disk space for files :
_ WF disk file :    141.801 Mbytes ; DEN or POT disk file :      7.631 Mbytes.
================================================================================


 DATASET    7 : space group I4 m m (#107); Bravais tI (body-center tetrag.)
================================================================================
 Values of the parameters that define the memory need for DATASET  7.
     intxc =       0    ionmov =       2      iscf =      17    lmnmax =      18
     lnmax =       6     mgfft =      64  mpssoang =       3    mqgrid =    3960
     natom =       9  nloc_mem =       2    nspden =       1   nspinor =       1
    nsppol =       1      nsym =       8    n1xccc =       1    ntypat =       4
    occopt =       1   xclevel =       2
-    mband =          42        mffmem =           1         mkmem =           4
       mpw =       10732          nfft =      262144          nkpt =          20
Pmy_natom=         2
 PAW method is used; the additional fine FFT grid is defined by:
   mgfftf=       100    nfftf =   1000000
================================================================================
P This job should need less than                     331.042 Mbytes of memory.
  Rough estimation (10% accuracy) of disk space for files :
_ WF disk file :    137.558 Mbytes ; DEN or POT disk file :      7.631 Mbytes.
================================================================================


 DATASET    8 : space group I4 m m (#107); Bravais tI (body-center tetrag.)
================================================================================
 Values of the parameters that define the memory need for DATASET  8.
     intxc =       0    ionmov =       2      iscf =      17    lmnmax =      18
     lnmax =       6     mgfft =      64  mpssoang =       3    mqgrid =    3918
     natom =       9  nloc_mem =       2    nspden =       1   nspinor =       1
    nsppol =       1      nsym =       8    n1xccc =       1    ntypat =       4
    occopt =       1   xclevel =       2
-    mband =          42        mffmem =           1         mkmem =           4
       mpw =       10360          nfft =      262144          nkpt =          20
Pmy_natom=         2
 PAW method is used; the additional fine FFT grid is defined by:
   mgfftf=       100    nfftf =   1000000
================================================================================
P This job should need less than                     330.724 Mbytes of memory.
  Rough estimation (10% accuracy) of disk space for files :
_ WF disk file :    132.790 Mbytes ; DEN or POT disk file :      7.631 Mbytes.
================================================================================


 DATASET    9 : space group I4 m m (#107); Bravais tI (body-center tetrag.)
================================================================================
 Values of the parameters that define the memory need for DATASET  9.
     intxc =       0    ionmov =       2      iscf =      17    lmnmax =      18
     lnmax =       6     mgfft =      64  mpssoang =       3    mqgrid =    3875
     natom =       9  nloc_mem =       2    nspden =       1   nspinor =       1
    nsppol =       1      nsym =       8    n1xccc =       1    ntypat =       4
    occopt =       1   xclevel =       2
-    mband =          42        mffmem =           1         mkmem =           4
       mpw =       10039          nfft =      262144          nkpt =          20
Pmy_natom=         2
 PAW method is used; the additional fine FFT grid is defined by:
   mgfftf=        96    nfftf =    884736
================================================================================
P This job should need less than                     300.889 Mbytes of memory.
  Rough estimation (10% accuracy) of disk space for files :
_ WF disk file :    128.676 Mbytes ; DEN or POT disk file :      6.752 Mbytes.
================================================================================


 DATASET   10 : space group I4 m m (#107); Bravais tI (body-center tetrag.)
================================================================================
 Values of the parameters that define the memory need for DATASET 10.
     intxc =       0    ionmov =       2      iscf =      17    lmnmax =      18
     lnmax =       6     mgfft =      60  mpssoang =       3    mqgrid =    3833
     natom =       9  nloc_mem =       2    nspden =       1   nspinor =       1
    nsppol =       1      nsym =       8    n1xccc =       1    ntypat =       4
    occopt =       1   xclevel =       2
-    mband =          42        mffmem =           1         mkmem =           4
       mpw =        9696          nfft =      216000          nkpt =          20
Pmy_natom=         2
 PAW method is used; the additional fine FFT grid is defined by:
   mgfftf=        96    nfftf =    884736
================================================================================
P This job should need less than                     293.760 Mbytes of memory.
  Rough estimation (10% accuracy) of disk space for files :
_ WF disk file :    124.279 Mbytes ; DEN or POT disk file :      6.752 Mbytes.
================================================================================

--------------------------------------------------------------------------------
------------- Echo of variables that govern the present computation ------------
--------------------------------------------------------------------------------
-
- outvars: echo of selected default values                                      
-   iomode0 =  0 , fftalg0 =112 , wfoptalg0 = 10
-
- outvars: echo of global parameters not present in the input file              
-  max_nthreads =    0
-
 -outvars: echo values of preprocessed input variables --------
            acell1     1.5727194096E+01  1.5727194096E+01  1.5856890043E+01 Bohr
            acell2     1.5568333549E+01  1.5568333549E+01  1.5696719436E+01 Bohr
            acell3     1.5409473003E+01  1.5409473003E+01  1.5536548830E+01 Bohr
            acell4     1.5250612456E+01  1.5250612456E+01  1.5376378223E+01 Bohr
            acell5     1.5091751910E+01  1.5091751910E+01  1.5216207617E+01 Bohr
            acell6     1.4932891363E+01  1.4932891363E+01  1.5056037010E+01 Bohr
            acell7     1.4774030817E+01  1.4774030817E+01  1.4895866404E+01 Bohr
            acell8     1.4615170271E+01  1.4615170271E+01  1.4735695797E+01 Bohr
            acell9     1.4456309724E+01  1.4456309724E+01  1.4575525191E+01 Bohr
            acell10    1.4297449178E+01  1.4297449178E+01  1.4415354584E+01 Bohr
              amu      1.32905430E+02  1.26904470E+02  9.12240000E+01
                       7.99040000E+01
           diemac      1.20000000E+01
          dilatmx      1.15000000E+00
             ecut      1.60000000E+01 Hartree
           ecutsm      5.00000000E-01 Hartree
-          fftalg         112
          getxred1          0
          getxred2         -1
          getxred3         -1
          getxred4         -1
          getxred5         -1
          getxred6         -1
          getxred7         -1
          getxred8         -1
          getxred9         -1
          getxred10        -1
           ionmov           2
              ixc     -101130
           jdtset        1    2    3    4    5    6    7    8    9   10
              kpt     -1.25000000E-01 -2.50000000E-01  0.00000000E+00
                      -1.25000000E-01  5.00000000E-01  0.00000000E+00
                      -2.50000000E-01 -3.75000000E-01  0.00000000E+00
                      -1.25000000E-01 -3.75000000E-01  1.25000000E-01
                      -1.25000000E-01  2.50000000E-01  0.00000000E+00
                      -2.50000000E-01  3.75000000E-01  0.00000000E+00
                      -1.25000000E-01  3.75000000E-01  1.25000000E-01
                      -3.75000000E-01  5.00000000E-01  0.00000000E+00
                      -2.50000000E-01  5.00000000E-01  1.25000000E-01
                      -1.25000000E-01  5.00000000E-01  2.50000000E-01
                      -1.25000000E-01  0.00000000E+00  0.00000000E+00
                      -1.25000000E-01  1.25000000E-01  1.25000000E-01
                      -1.25000000E-01  2.50000000E-01  2.50000000E-01
                      -1.25000000E-01  3.75000000E-01  3.75000000E-01
                      -3.75000000E-01  0.00000000E+00  0.00000000E+00
                      -2.50000000E-01  0.00000000E+00  1.25000000E-01
                      -3.75000000E-01  1.25000000E-01  1.25000000E-01
                      -2.50000000E-01  1.25000000E-01  2.50000000E-01
                      -3.75000000E-01  2.50000000E-01  2.50000000E-01
                      -2.50000000E-01  2.50000000E-01  3.75000000E-01
         kptrlatt        4   -4    4     -4    4    4     -4   -4    4
          kptrlen1     8.82266729E+01
          kptrlen2     8.73354944E+01
          kptrlen3     8.64443158E+01
          kptrlen4     8.55531373E+01
          kptrlen5     8.46619588E+01
          kptrlen6     8.37707803E+01
          kptrlen7     8.28796018E+01
          kptrlen8     8.19884233E+01
          kptrlen9     8.10972448E+01
          kptrlen10    8.02060662E+01
P           mkmem           4
            natom           9
            nband          42
           ndtset          10
            ngfft1         72      72      72
            ngfft2         72      72      72
            ngfft3         72      72      72
            ngfft4         64      64      64
            ngfft5         64      64      64
            ngfft6         64      64      64
            ngfft7         64      64      64
            ngfft8         64      64      64
            ngfft9         64      64      64
            ngfft10        60      60      60
          ngfftdg1        108     108     108
          ngfftdg2        108     108     108
          ngfftdg3        108     108     108
          ngfftdg4        108     108     108
          ngfftdg5        100     100     100
          ngfftdg6        100     100     100
          ngfftdg7        100     100     100
          ngfftdg8        100     100     100
          ngfftdg9         96      96      96
          ngfftdg10        96      96      96
             nkpt          20
            nstep        2500
             nsym           8
            ntime        1000
           ntypat           4
              occ      2.000000  2.000000  2.000000  2.000000  2.000000  2.000000
                       2.000000  2.000000  2.000000  2.000000  2.000000  2.000000
                       2.000000  2.000000  2.000000  2.000000  2.000000  2.000000
                       2.000000  2.000000  2.000000  2.000000  2.000000  2.000000
                       2.000000  2.000000  2.000000  2.000000  2.000000  2.000000
                       2.000000  2.000000  2.000000  2.000000  2.000000  2.000000
                       0.000000  0.000000  0.000000  0.000000  0.000000  0.000000
          optcell           3
        optforces           1
        pawecutdg      4.00000000E+01 Hartree
            prtwf           0
            rprim      0.0000000000E+00  7.1293801104E-01  7.0122706195E-01
                       7.1293801104E-01  0.0000000000E+00  7.0122706195E-01
                       7.0710678119E-01  7.0710678119E-01  0.0000000000E+00
           shiftk      5.00000000E-01  5.00000000E-01  5.00000000E-01
          spgroup         107
           symrel      1  0  0   0  1  0   0  0  1       1  0 -1   0  1 -1   0  0 -1
                       0  1 -1   1  0 -1   0  0 -1       0  1  0   1  0  0   0  0  1
                       1  0  0   1  0 -1   1 -1  0       0  1  0   0  1 -1  -1  1  0
                       0  1 -1   0  1  0  -1  1  0       1  0 -1   1  0  0   1 -1  0
           toldff      1.00000000E-08
           tolmxf      1.00000000E-05
            typat      1  1  2  4  2  2  2  2  3
           useylm           1
              wtk        0.03125    0.03125    0.03125    0.06250    0.03125    0.03125
                         0.06250    0.03125    0.06250    0.06250    0.03125    0.06250
                         0.06250    0.06250    0.03125    0.06250    0.06250    0.06250
                         0.06250    0.06250
           xangst1     2.9667035563E+00  2.9667035563E+00  2.9017039337E+00
                       8.9001106689E+00  8.9001106689E+00  8.7376469926E+00
                       5.9334071126E+00  5.9334071126E+00  2.8038843039E+00
                       5.9334071126E+00  5.9334071126E+00  9.0254811954E+00
                       9.0057233880E+00  5.9334071126E+00  5.8190778967E+00
                       5.9334071126E+00  9.0057233880E+00  5.8190778967E+00
                       5.9334071126E+00  2.8610908372E+00  5.8190778967E+00
                       2.8610908372E+00  5.9334071126E+00  5.8190778967E+00
                      -2.6016417155E-13 -2.6016417155E-13 -5.7483541826E-02
           xangst2     2.9367368537E+00  2.9367368537E+00  2.8723937930E+00
                       8.8102105611E+00  8.8102105611E+00  8.6493879321E+00
                       5.8734737074E+00  5.8734737074E+00  2.7755622402E+00
                       5.8734737074E+00  5.8734737074E+00  8.9343147187E+00
                       8.9147564851E+00  5.8734737074E+00  5.7602993321E+00
                       5.8734737074E+00  8.9147564851E+00  5.7602993321E+00
                       5.8734737074E+00  2.8321909297E+00  5.7602993321E+00
                       2.8321909297E+00  5.8734737074E+00  5.7602993321E+00
                      -2.5753766668E-13 -2.5753766668E-13 -5.6902899989E-02
           xangst3     2.9067701511E+00  2.9067701511E+00  2.8430836523E+00
                       8.7203104533E+00  8.7203104533E+00  8.5611288715E+00
                       5.8135403022E+00  5.8135403022E+00  2.7472401766E+00
                       5.8135403022E+00  5.8135403022E+00  8.8431482420E+00
                       8.8237895822E+00  5.8135403022E+00  5.7015207675E+00
                       5.8135403022E+00  8.8237895822E+00  5.7015207675E+00
                       5.8135403022E+00  2.8032910223E+00  5.7015207675E+00
                       2.8032910223E+00  5.8135403022E+00  5.7015207675E+00
                      -2.5491568733E-13 -2.5491568733E-13 -5.6322258152E-02
           xangst4     2.8768034485E+00  2.8768034485E+00  2.8137735115E+00
                       8.6304103456E+00  8.6304103456E+00  8.4728698110E+00
                       5.7536068970E+00  5.7536068970E+00  2.7189181129E+00
                       5.7536068971E+00  5.7536068971E+00  8.7519817653E+00
                       8.7328226793E+00  5.7536068970E+00  5.6427422029E+00
                       5.7536068970E+00  8.7328226793E+00  5.6427422029E+00
                       5.7536068971E+00  2.7743911148E+00  5.6427422029E+00
                       2.7743911148E+00  5.7536068971E+00  5.6427422029E+00
                      -2.5229000932E-13 -2.5229000932E-13 -5.5741616316E-02
           xangst5     2.8468367459E+00  2.8468367459E+00  2.7844633708E+00
                       8.5405102378E+00  8.5405102378E+00  8.3846107505E+00
                       5.6936734919E+00  5.6936734919E+00  2.6905960492E+00
                       5.6936734919E+00  5.6936734919E+00  8.6608152885E+00
                       8.6418557764E+00  5.6936734919E+00  5.5839636383E+00
                       5.6936734919E+00  8.6418557764E+00  5.5839636383E+00
                       5.6936734919E+00  2.7454912074E+00  5.5839636383E+00
                       2.7454912074E+00  5.6936734919E+00  5.5839636383E+00
                      -2.4965835804E-13 -2.4965835804E-13 -5.5160974479E-02
           xangst6     2.8168700433E+00  2.8168700433E+00  2.7551532300E+00
                       8.4506101300E+00  8.4506101300E+00  8.2963516899E+00
                       5.6337400867E+00  5.6337400867E+00  2.6622739855E+00
                       5.6337400867E+00  5.6337400867E+00  8.5696488118E+00
                       8.5508888735E+00  5.6337400867E+00  5.5251850737E+00
                       5.6337400867E+00  8.5508888735E+00  5.5251850737E+00
                       5.6337400867E+00  2.7165912999E+00  5.5251850737E+00
                       2.7165912999E+00  5.6337400867E+00  5.5251850737E+00
                      -2.4702574916E-13 -2.4702574916E-13 -5.4580332643E-02
           xangst7     2.7869033408E+00  2.7869033408E+00  2.7258430893E+00
                       8.3607100223E+00  8.3607100223E+00  8.2080926294E+00
                       5.5738066815E+00  5.5738066815E+00  2.6339519219E+00
                       5.5738066815E+00  5.5738066815E+00  8.4784823351E+00
                       8.4599219706E+00  5.5738066815E+00  5.4664065091E+00
                       5.5738066815E+00  8.4599219706E+00  5.4664065091E+00
                       5.5738066815E+00  2.6876913925E+00  5.4664065091E+00
                       2.6876913925E+00  5.5738066815E+00  5.4664065091E+00
                      -2.4440144168E-13 -2.4440144168E-13 -5.3999690806E-02
           xangst8     2.7569366382E+00  2.7569366382E+00  2.6965329485E+00
                       8.2708099145E+00  8.2708099145E+00  8.1198335689E+00
                       5.5138732763E+00  5.5138732763E+00  2.6056298582E+00
                       5.5138732764E+00  5.5138732764E+00  8.3873158584E+00
                       8.3689550676E+00  5.5138732763E+00  5.4076279445E+00
                       5.5138732763E+00  8.3689550676E+00  5.4076279445E+00
                       5.5138732764E+00  2.6587914850E+00  5.4076279445E+00
                       2.6587914850E+00  5.5138732764E+00  5.4076279445E+00
                      -2.4177090102E-13 -2.4177090102E-13 -5.3419048969E-02
           xangst9     2.7269699356E+00  2.7269699356E+00  2.6672228078E+00
                       8.1809098067E+00  8.1809098067E+00  8.0315745084E+00
                       5.4539398711E+00  5.4539398711E+00  2.5773077945E+00
                       5.4539398712E+00  5.4539398712E+00  8.2961493817E+00
                       8.2779881647E+00  5.4539398711E+00  5.3488493798E+00
                       5.4539398711E+00  8.2779881647E+00  5.3488493798E+00
                       5.4539398712E+00  2.6298915776E+00  5.3488493798E+00
                       2.6298915776E+00  5.4539398712E+00  5.3488493798E+00
                      -2.3914548292E-13 -2.3914548292E-13 -5.2838407133E-02
           xangst10    2.6970032330E+00  2.6970032330E+00  2.6379126670E+00
                       8.0910096990E+00  8.0910096990E+00  7.9433154478E+00
                       5.3940064660E+00  5.3940064660E+00  2.5489857308E+00
                       5.3940064660E+00  5.3940064660E+00  8.2049829049E+00
                       8.1870212618E+00  5.3940064660E+00  5.2900708152E+00
                       5.3940064660E+00  8.1870212618E+00  5.2900708152E+00
                       5.3940064660E+00  2.6009916701E+00  5.2900708152E+00
                       2.6009916701E+00  5.3940064660E+00  5.2900708152E+00
                      -2.3651483829E-13 -2.3651483829E-13 -5.2257765296E-02
            xcart1     5.6062572388E+00  5.6062572388E+00  5.4834257535E+00
                       1.6818771717E+01  1.6818771717E+01  1.6511759862E+01
                       1.1212514478E+01  1.1212514478E+01  5.2985734427E+00
                       1.1212514478E+01  1.1212514478E+01  1.7055687677E+01
                       1.7018350832E+01  1.1212514478E+01  1.0996463571E+01
                       1.1212514478E+01  1.7018350832E+01  1.0996463571E+01
                       1.1212514478E+01  5.4066781235E+00  1.0996463571E+01
                       5.4066781235E+00  1.1212514478E+01  1.0996463571E+01
                      -4.9163903382E-13 -4.9163903382E-13 -1.0862815120E-01
            xcart2     5.5496283778E+00  5.5496283778E+00  5.4280376146E+00
                       1.6648885134E+01  1.6648885134E+01  1.6344974409E+01
                       1.1099256756E+01  1.1099256756E+01  5.2450524988E+00
                       1.1099256756E+01  1.1099256756E+01  1.6883408003E+01
                       1.6846448298E+01  1.1099256756E+01  1.0885388181E+01
                       1.1099256756E+01  1.6846448298E+01  1.0885388181E+01
                       1.1099256756E+01  5.3520652132E+00  1.0885388181E+01
                       5.3520652132E+00  1.1099256756E+01  1.0885388181E+01
                      -4.8667565892E-13 -4.8667565892E-13 -1.0753089715E-01
            xcart3     5.4929995168E+00  5.4929995168E+00  5.3726494756E+00
                       1.6478998551E+01  1.6478998551E+01  1.6178188956E+01
                       1.0985999034E+01  1.0985999034E+01  5.1915315549E+00
                       1.0985999034E+01  1.0985999034E+01  1.6711128330E+01
                       1.6674545765E+01  1.0985999034E+01  1.0774312792E+01
                       1.0985999034E+01  1.6674545765E+01  1.0774312792E+01
                       1.0985999034E+01  5.2974523029E+00  1.0774312792E+01
                       5.2974523029E+00  1.0985999034E+01  1.0774312792E+01
                      -4.8172083604E-13 -4.8172083604E-13 -1.0643364309E-01
            xcart4     5.4363706559E+00  5.4363706559E+00  5.3172613367E+00
                       1.6309111968E+01  1.6309111968E+01  1.6011403502E+01
                       1.0872741312E+01  1.0872741312E+01  5.1380106111E+00
                       1.0872741312E+01  1.0872741312E+01  1.6538848656E+01
                       1.6502643231E+01  1.0872741312E+01  1.0663237402E+01
                       1.0872741312E+01  1.6502643231E+01  1.0663237402E+01
                       1.0872741312E+01  5.2428393925E+00  1.0663237402E+01
                       5.2428393925E+00  1.0872741312E+01  1.0663237402E+01
                      -4.7675902368E-13 -4.7675902368E-13 -1.0533638904E-01
            xcart5     5.3797417949E+00  5.3797417949E+00  5.2618731978E+00
                       1.6139225385E+01  1.6139225385E+01  1.5844618049E+01
                       1.0759483590E+01  1.0759483590E+01  5.0844896672E+00
                       1.0759483590E+01  1.0759483590E+01  1.6366568983E+01
                       1.6330740697E+01  1.0759483590E+01  1.0552162012E+01
                       1.0759483590E+01  1.6330740697E+01  1.0552162012E+01
                       1.0759483590E+01  5.1882264822E+00  1.0552162012E+01
                       5.1882264822E+00  1.0759483590E+01  1.0552162012E+01
                      -4.7178592347E-13 -4.7178592347E-13 -1.0423913499E-01
            xcart6     5.3231129339E+00  5.3231129339E+00  5.2064850589E+00
                       1.5969338802E+01  1.5969338802E+01  1.5677832596E+01
                       1.0646225868E+01  1.0646225868E+01  5.0309687233E+00
                       1.0646225868E+01  1.0646225868E+01  1.6194289309E+01
                       1.6158838164E+01  1.0646225868E+01  1.0441086623E+01
                       1.0646225868E+01  1.6158838164E+01  1.0441086623E+01
                       1.0646225868E+01  5.1336135718E+00  1.0441086623E+01
                       5.1336135718E+00  1.0646225868E+01  1.0441086623E+01
                      -4.6681101368E-13 -4.6681101368E-13 -1.0314188094E-01
            xcart7     5.2664840729E+00  5.2664840729E+00  5.1510969200E+00
                       1.5799452219E+01  1.5799452219E+01  1.5511047143E+01
                       1.0532968146E+01  1.0532968146E+01  4.9774477795E+00
                       1.0532968146E+01  1.0532968146E+01  1.6022009636E+01
                       1.5986935630E+01  1.0532968146E+01  1.0330011233E+01
                       1.0532968146E+01  1.5986935630E+01  1.0330011233E+01
                       1.0532968146E+01  5.0790006615E+00  1.0330011233E+01
                       5.0790006615E+00  1.0532968146E+01  1.0330011233E+01
                      -4.6185179126E-13 -4.6185179126E-13 -1.0204462688E-01
            xcart8     5.2098552119E+00  5.2098552119E+00  5.0957087810E+00
                       1.5629565636E+01  1.5629565636E+01  1.5344261690E+01
                       1.0419710424E+01  1.0419710424E+01  4.9239268356E+00
                       1.0419710424E+01  1.0419710424E+01  1.5849729962E+01
                       1.5815033096E+01  1.0419710424E+01  1.0218935844E+01
                       1.0419710424E+01  1.5815033096E+01  1.0218935844E+01
                       1.0419710424E+01  5.0243877512E+00  1.0218935844E+01
                       5.0243877512E+00  1.0419710424E+01  1.0218935844E+01
                      -4.5688078982E-13 -4.5688078982E-13 -1.0094737283E-01
            xcart9     5.1532263509E+00  5.1532263509E+00  5.0403206421E+00
                       1.5459679053E+01  1.5459679053E+01  1.5177476237E+01
                       1.0306452702E+01  1.0306452702E+01  4.8704058918E+00
                       1.0306452702E+01  1.0306452702E+01  1.5677450289E+01
                       1.5643130563E+01  1.0306452702E+01  1.0107860454E+01
                       1.0306452702E+01  1.5643130563E+01  1.0107860454E+01
                       1.0306452702E+01  4.9697748408E+00  1.0107860454E+01
                       4.9697748408E+00  1.0306452702E+01  1.0107860454E+01
                      -4.5191946864E-13 -4.5191946864E-13 -9.9850118779E-02
            xcart10    5.0965974899E+00  5.0965974899E+00  4.9849325032E+00
                       1.5289792470E+01  1.5289792470E+01  1.5010690784E+01
                       1.0193194980E+01  1.0193194980E+01  4.8168849479E+00
                       1.0193194980E+01  1.0193194980E+01  1.5505170615E+01
                       1.5471228029E+01  1.0193194980E+01  9.9967850643E+00
                       1.0193194980E+01  1.5471228029E+01  9.9967850643E+00
                       1.0193194980E+01  4.9151619305E+00  9.9967850643E+00
                       4.9151619305E+00  1.0193194980E+01  9.9967850643E+00
                      -4.4694827073E-13 -4.4694827073E-13 -9.8752864726E-02
             xred      2.4860625819E-01  2.4860625819E-01  2.5139374181E-01
                       7.4860625819E-01  7.4860625819E-01  7.5139374181E-01
                       2.4022546790E-01  2.4022546790E-01  7.5977453210E-01
                       7.7326672865E-01  7.7326672865E-01  2.2673327135E-01
                       2.3965522354E-01  7.5745489869E-01  7.6034477646E-01
                       7.5745489869E-01  2.3965522354E-01  7.6034477646E-01
                       2.3965522354E-01  7.5745489869E-01  2.4254510131E-01
                       7.5745489869E-01  2.3965522354E-01  2.4254510131E-01
                      -4.9249573930E-03 -4.9249573930E-03  4.9249573930E-03
            znucl       55.00000   53.00000   40.00000   35.00000

================================================================================

 chkinp: Checking input parameters for consistency, jdtset=   1.

 chkinp: Checking input parameters for consistency, jdtset=   2.

 chkinp: Checking input parameters for consistency, jdtset=   3.

 chkinp: Checking input parameters for consistency, jdtset=   4.

 chkinp: Checking input parameters for consistency, jdtset=   5.

 chkinp: Checking input parameters for consistency, jdtset=   6.

 chkinp: Checking input parameters for consistency, jdtset=   7.

 chkinp: Checking input parameters for consistency, jdtset=   8.

 chkinp: Checking input parameters for consistency, jdtset=   9.

 chkinp: Checking input parameters for consistency, jdtset=  10.

================================================================================
== DATASET  1 ==================================================================
-   mpi_nproc: 6, omp_nthreads: -1 (-1 if OMP is not activated)


--- !DatasetInfo
iteration_state: {dtset: 1, }
dimensions: {natom: 9, nkpt: 20, mband: 42, nsppol: 1, nspinor: 1, nspden: 1, mpw: 12932, }
cutoff_energies: {ecut:  16.0, pawecutdg:  40.0, }
electrons: {nelect:   7.20000000E+01, charge:   0.00000000E+00, occopt:   1.00000000E+00, tsmear:   1.00000000E-02, }
meta: {optdriver: 0, ionmov: 2, optcell: 3, iscf: 17, paral_kgb: 0, }
...

 Real(R)+Recip(G) space primitive vectors, cartesian coordinates (Bohr,Bohr^-1):
 R(1)=  0.0000000 11.2125145 11.0283341  G(1)= -0.0445930  0.0445930  0.0453378
 R(2)= 11.2125145  0.0000000 11.0283341  G(2)=  0.0445930 -0.0445930  0.0453378
 R(3)= 11.2125145 11.2125145  0.0000000  G(3)=  0.0445930  0.0445930 -0.0453378
 Unit cell volume ucvol=  2.7729749E+03 bohr^3
 Angles (23,13,12)=  5.97268275E+01  5.97268275E+01  6.05463450E+01 degrees

 Coarse grid specifications (used for wave-functions):

 getcut: wavevector=  0.0000  0.0000  0.0000  ngfft=  72  72  72
         ecut(hartree)=     21.160   => boxcut(ratio)=   2.19276

 Fine grid specifications (used for densities):

 getcut: wavevector=  0.0000  0.0000  0.0000  ngfft= 108 108 108
         ecut(hartree)=     52.900   => boxcut(ratio)=   2.08024

--- Pseudopotential description ------------------------------------------------
- pspini: atom type   1  psp file is ../../../Psps_for_tests/ATOMICDATA/Cs.GGA_PBE-JTH.xml
- pspatm: opening atomic psp file    ../../../Psps_for_tests/ATOMICDATA/Cs.GGA_PBE-JTH.xml
- pspatm : Reading pseudopotential header in XML form from ../../../Psps_for_tests/ATOMICDATA/Cs.GGA_PBE-JTH.xml
 Pseudopotential format is: paw10
 basis_size (lnmax)=  6 (lmn_size= 18), orbitals=   0   0   1   1   2   2
 Spheres core radius: rc_sph= 2.20660278
 1 radial meshes are used:
  - mesh 1: r(i)=AA*[exp(BB*(i-1))-1], size=1500 , AA= 0.15922E-03 BB= 0.87573E-02
 Shapefunction is SIN type: shapef(r)=[sin(pi*r/rshp)/(pi*r/rshp)]**2
 Radius for shape functions =  2.00394208
 mmax= 1500
 Radial grid used for partial waves is grid 1
 Radial grid used for projectors is grid 1
 Radial grid used for (t)core density is grid 1
 Radial grid used for Vloc is grid 1
 Radial grid used for pseudo valence density is grid 1
 Mesh size for Vloc has been set to 1341 to avoid numerical noise.
 Compensation charge density is not taken into account in XC energy/potential
 pspatm: atomic psp has been read  and splines computed

- pspini: atom type   2  psp file is ../../../Psps_for_tests/ATOMICDATA/I.GGA_PBE-JTH.xml
- pspatm: opening atomic psp file    ../../../Psps_for_tests/ATOMICDATA/I.GGA_PBE-JTH.xml
- pspatm : Reading pseudopotential header in XML form from ../../../Psps_for_tests/ATOMICDATA/I.GGA_PBE-JTH.xml
 Pseudopotential format is: paw10
 basis_size (lnmax)=  4 (lmn_size=  8), orbitals=   0   0   1   1
 Spheres core radius: rc_sph= 2.30022271
 1 radial meshes are used:
  - mesh 1: r(i)=AA*[exp(BB*(i-1))-1], size=2000 , AA= 0.12610E-03 BB= 0.66836E-02
 Shapefunction is SIN type: shapef(r)=[sin(pi*r/rshp)/(pi*r/rshp)]**2
 Radius for shape functions =  2.10879093
 mmax= 2000
 Radial grid used for partial waves is grid 1
 Radial grid used for projectors is grid 1
 Radial grid used for (t)core density is grid 1
 Radial grid used for Vloc is grid 1
 Radial grid used for pseudo valence density is grid 1
 Mesh size for Vloc has been set to 1792 to avoid numerical noise.
 Compensation charge density is not taken into account in XC energy/potential
 pspatm: atomic psp has been read  and splines computed

- pspini: atom type   3  psp file is ../../../Psps_for_tests/ATOMICDATA/Zr.GGA_PBE-JTH.xml
- pspatm: opening atomic psp file    ../../../Psps_for_tests/ATOMICDATA/Zr.GGA_PBE-JTH.xml
- pspatm : Reading pseudopotential header in XML form from ../../../Psps_for_tests/ATOMICDATA/Zr.GGA_PBE-JTH.xml
 Pseudopotential format is: paw10
 basis_size (lnmax)=  6 (lmn_size= 18), orbitals=   0   0   1   1   2   2
 Spheres core radius: rc_sph= 2.21000000
 1 radial meshes are used:
  - mesh 1: r(i)=AA*[exp(BB*(i-1))-1], size= 941 , AA= 0.35256E-03 BB= 0.14102E-01
 Shapefunction is BESSEL type: shapef(r,l)=aa(1,l)*jl(q(1,l)*r)+aa(2,l)*jl(q(2,l)*r)
 Radius for shape functions =  2.21000000
 mmax=  941
 Radial grid used for partial waves is grid 1
 Radial grid used for projectors is grid 1
 Radial grid used for (t)core density is grid 1
 Radial grid used for Vloc is grid 1
 Radial grid used for pseudo valence density is grid 1
 Mesh size for Vloc has been set to  777 to avoid numerical noise.
 Compensation charge density is not taken into account in XC energy/potential
 pspatm: atomic psp has been read  and splines computed

- pspini: atom type   4  psp file is ../../../Psps_for_tests/ATOMICDATA/Br.GGA_PBE-JTH.xml
- pspatm: opening atomic psp file    ../../../Psps_for_tests/ATOMICDATA/Br.GGA_PBE-JTH.xml
- pspatm : Reading pseudopotential header in XML form from ../../../Psps_for_tests/ATOMICDATA/Br.GGA_PBE-JTH.xml
 Pseudopotential format is: paw10
 basis_size (lnmax)=  4 (lmn_size=  8), orbitals=   0   0   1   1
 Spheres core radius: rc_sph= 2.20000000
 1 radial meshes are used:
  - mesh 1: r(i)=AA*[exp(BB*(i-1))-1], size= 927 , AA= 0.40483E-03 BB= 0.14169E-01
 Shapefunction is BESSEL type: shapef(r,l)=aa(1,l)*jl(q(1,l)*r)+aa(2,l)*jl(q(2,l)*r)
 Radius for shape functions =  2.02066386
 mmax=  927
 Radial grid used for partial waves is grid 1
 Radial grid used for projectors is grid 1
 Radial grid used for (t)core density is grid 1
 Radial grid used for Vloc is grid 1
 Radial grid used for pseudo valence density is grid 1
 Mesh size for Vloc has been set to  763 to avoid numerical noise.
 Compensation charge density is not taken into account in XC energy/potential
 pspatm: atomic psp has been read  and splines computed

   4.08286929E+04                                ecore*ucvol(ha*bohr**3)
--------------------------------------------------------------------------------

_setup2: Arith. and geom. avg. npw (full set) are   12892.906   12892.901

================================================================================

=== [ionmov= 2] Broyden-Fletcher-Goldfard-Shanno method (forces)            
================================================================================

--- Iteration: (   1/1000) Internal Cycle: (1/1)
--------------------------------------------------------------------------------

---SELF-CONSISTENT-FIELD CONVERGENCE--------------------------------------------

--- !BeginCycle
iteration_state: {dtset: 1, itime: 1, icycle: 1, }
solver: {iscf: 17, nstep: 2500, nline: 4, wfoptalg: 10, }
tolerances: {toldff: 1.00E-08, }
...

     iter   Etot(hartree)      deltaE(h)  residm     nres2    diffor    maxfor
 ETOT  1  -160.58404619999    -1.606E+02 1.993E-01 2.395E+01 5.547E-02 5.547E-02
 ETOT  2  -160.78738273292    -2.033E-01 1.176E-02 6.738E+00 1.058E-01 6.477E-02
 ETOT  3  -160.78265118088     4.732E-03 5.682E-03 1.404E+00 5.693E-02 7.841E-03
 ETOT  4  -160.78335465336    -7.035E-04 1.790E-03 1.363E-01 1.008E-02 1.567E-02
 ETOT  5  -160.78284502891     5.096E-04 7.280E-04 1.295E-02 1.836E-02 2.696E-03
 ETOT  6  -160.78291387299    -6.884E-05 6.828E-04 2.093E-03 3.329E-03 6.025E-03
 ETOT  7  -160.78291299000     8.830E-07 5.527E-04 7.055E-04 8.213E-04 5.204E-03
 ETOT  8  -160.78291493020    -1.940E-06 2.999E-04 1.450E-04 6.208E-04 5.489E-03
 ETOT  9  -160.78291483758     9.262E-08 1.697E-04 7.293E-05 3.368E-04 5.233E-03
 ETOT 10  -160.78291477284     6.474E-08 7.397E-05 5.862E-06 1.223E-04 5.319E-03
 ETOT 11  -160.78291482994    -5.710E-08 5.366E-05 1.043E-05 8.241E-05 5.354E-03
 ETOT 12  -160.78291479988     3.005E-08 4.314E-05 1.303E-06 4.627E-05 5.320E-03
 ETOT 13  -160.78291480435    -4.461E-09 3.011E-05 8.668E-07 2.954E-05 5.313E-03
 ETOT 14  -160.78291480171     2.633E-09 2.261E-05 1.054E-07 1.345E-05 5.321E-03
 ETOT 15  -160.78291480203    -3.191E-10 1.554E-05 5.698E-08 7.389E-06 5.320E-03
 ETOT 16  -160.78291480194     9.564E-11 1.121E-05 2.797E-08 1.166E-06 5.321E-03
 ETOT 17  -160.78291480188     5.608E-11 7.692E-06 5.472E-09 3.823E-06 5.320E-03
 ETOT 18  -160.78291480187     7.020E-12 5.413E-06 3.235E-09 4.914E-07 5.320E-03
 ETOT 19  -160.78291480186     8.384E-12 3.727E-06 1.995E-10 6.946E-07 5.321E-03
 ETOT 20  -160.78291480187    -4.604E-12 2.580E-06 3.858E-12 2.583E-07 5.321E-03
 ETOT 21  -160.78291480187     8.811E-13 1.787E-06 4.326E-11 9.300E-08 5.321E-03
 ETOT 22  -160.78291480187    -1.364E-12 1.222E-06 1.025E-11 7.668E-08 5.321E-03
 ETOT 23  -160.78291480187     2.075E-12 8.527E-07 2.172E-13 4.655E-08 5.321E-03
 ETOT 24  -160.78291480186     5.286E-12 5.774E-07 6.280E-13 1.451E-08 5.321E-03
 ETOT 25  -160.78291480186     2.842E-14 4.057E-07 9.237E-14 2.564E-08 5.321E-03
 ETOT 26  -160.78291480187    -1.052E-11 2.725E-07 4.737E-14 9.050E-09 5.321E-03
 ETOT 27  -160.78291480187     7.276E-12 1.928E-07 3.243E-15 3.608E-09 5.321E-03

 At SCF step   27, forces are converged : 
  for the second time, max diff in force=  3.608E-09 < toldff=  1.000E-08

 Cartesian components of stress tensor (hartree/bohr^3)
  sigma(1 1)= -2.22619471E-05  sigma(3 2)= -2.39305297E-14
  sigma(2 2)= -2.22619471E-05  sigma(3 1)= -2.39307817E-14
  sigma(3 3)= -2.35838322E-05  sigma(2 1)=  4.70748452E-14


--- !ResultsGS
iteration_state: {dtset: 1, itime: 1, icycle: 1, }
comment   : Summary of ground state results
lattice_vectors:
- [  0.0000000,  11.2125145,  11.0283341, ]
- [ 11.2125145,   0.0000000,  11.0283341, ]
- [ 11.2125145,  11.2125145,   0.0000000, ]
lattice_lengths: [  15.72719,   15.72719,   15.85689, ]
lattice_angles: [ 59.727,  59.727,  60.546, ] # degrees, (23, 13, 12)
lattice_volume:   2.7729749E+03
convergence: {deltae:  7.276E-12, res2:  3.243E-15, residm:  1.928E-07, diffor:  3.608E-09, }
etotal    :  -1.60782915E+02
entropy   :   0.00000000E+00
fermie    :  -1.02599635E-01
cartesian_stress_tensor: # hartree/bohr^3
- [ -2.22619471E-05,   4.70748452E-14,  -2.39307817E-14, ]
- [  4.70748452E-14,  -2.22619471E-05,  -2.39305297E-14, ]
- [ -2.39307817E-14,  -2.39305297E-14,  -2.35838322E-05, ]
pressure_GPa:   6.6793E-01
xred      :
- [  2.4861E-01,   2.4861E-01,   2.5139E-01, Cs]
- [  7.4861E-01,   7.4861E-01,   7.5139E-01, Cs]
- [  2.4023E-01,   2.4023E-01,   7.5977E-01,  I]
- [  7.7327E-01,   7.7327E-01,   2.2673E-01, Br]
- [  2.3966E-01,   7.5745E-01,   7.6034E-01,  I]
- [  7.5745E-01,   2.3966E-01,   7.6034E-01,  I]
- [  2.3966E-01,   7.5745E-01,   2.4255E-01,  I]
- [  7.5745E-01,   2.3966E-01,   2.4255E-01,  I]
- [ -4.9250E-03,  -4.9250E-03,   4.9250E-03, Zr]
cartesian_forces: # hartree/bohr
- [ -1.56677839E-21,   4.34095036E-20,  -1.64819141E-05, ]
- [ -1.56677839E-21,   4.34095036E-20,  -1.64819141E-05, ]
- [  1.14563149E-19,  -7.27204238E-20,   4.28990241E-03, ]
- [  2.67292035E-19,  -2.25449310E-19,  -5.32072070E-03, ]
- [ -4.27025910E-03,  -1.90095474E-14,   8.01382178E-05, ]
- [ -1.90095920E-14,  -4.27025910E-03,   8.01382178E-05, ]
- [  1.90095892E-14,   4.27025910E-03,   8.01382177E-05, ]
- [  4.27025910E-03,   1.90096339E-14,   8.01382177E-05, ]
- [  1.12987125E-20,   3.05440127E-20,   7.43229241E-04, ]
force_length_stats: {min:   1.64819141E-05, max:   5.32072070E-03, mean:   3.05231779E-03, }
...

 Integrated electronic density in atomic spheres:
 ------------------------------------------------
 Atom  Sphere_radius  Integrated_density
    1        2.20660          5.36304634
    2        2.20660          5.36304634
    3        2.30022          4.01768354
    4        2.20000          4.92526677
    5        2.30022          4.01531587
    6        2.30022          4.01531587
    7        2.30022          4.01531587
    8        2.30022          4.01531587
    9        2.21000          8.83769357

 PAW TEST:
 ==== Compensation charge inside spheres ============
 The following values must be close to each other ...
 Compensation charge over spherical meshes =     -5.137942091604405
 Compensation charge over fine fft grid    =     -5.137939485838324

 ==== Results concerning PAW augmentation regions ====

 Total pseudopotential strength Dij (hartree):
 Atom #  1
   0.44445  -0.14715   0.00000  -0.00000   0.00000   0.00000   0.00000   0.00000  -0.00000   0.00000  -0.00000   0.00000 ...
  -0.14715   0.04437   0.00000   0.00000   0.00000   0.00000  -0.00000   0.00000   0.00000   0.00000   0.00000   0.00000 ...
   0.00000   0.00000  -0.09410   0.00000  -0.00000  -0.16623   0.00000   0.00000   0.00000  -0.00000   0.00000   0.00000 ...
  -0.00000   0.00000   0.00000  -0.09410   0.00000   0.00000  -0.16623   0.00000   0.00000   0.00000  -0.00000   0.00000 ...
   0.00000   0.00000  -0.00000   0.00000  -0.09410   0.00000   0.00000  -0.16623   0.00000   0.00000   0.00000  -0.00000 ...
   0.00000   0.00000  -0.16623   0.00000   0.00000   0.40526   0.00000  -0.00001   0.00000   0.00000   0.00000   0.00000 ...
   0.00000  -0.00000   0.00000  -0.16623   0.00000   0.00000   0.40525   0.00000   0.00000   0.00000   0.00000   0.00000 ...
   0.00000   0.00000   0.00000   0.00000  -0.16623  -0.00001   0.00000   0.40526   0.00000   0.00000   0.00000   0.00000 ...
  -0.00000   0.00000   0.00000   0.00000   0.00000   0.00000   0.00000   0.00000   0.00515   0.00000   0.00000   0.00000 ...
   0.00000   0.00000  -0.00000   0.00000   0.00000   0.00000   0.00000   0.00000   0.00000   0.00515   0.00000  -0.00000 ...
  -0.00000   0.00000   0.00000  -0.00000   0.00000   0.00000   0.00000   0.00000   0.00000   0.00000   0.00515   0.00000 ...
   0.00000   0.00000   0.00000   0.00000  -0.00000   0.00000   0.00000   0.00000   0.00000  -0.00000   0.00000   0.00515 ...
   ...  only 12  components have been written...
 Atom #  9
   3.08798  -0.89958   0.00000   0.00000   0.00000   0.00000   0.00000   0.00000   0.00000   0.00000   0.00004   0.00000 ...
  -0.89958   0.26888   0.00000  -0.00001   0.00000   0.00000   0.00000   0.00000   0.00000   0.00000  -0.00000   0.00000 ...
   0.00000   0.00000   0.26476   0.00000   0.00000  -0.05370   0.00000   0.00000   0.00000  -0.00006   0.00000   0.00000 ...
   0.00000  -0.00001   0.00000   0.26482   0.00000   0.00000  -0.05371   0.00000   0.00000   0.00000  -0.00007   0.00000 ...
   0.00000   0.00000   0.00000   0.00000   0.26476   0.00000   0.00000  -0.05370   0.00000   0.00000   0.00000  -0.00006 ...
   0.00000   0.00000  -0.05370   0.00000   0.00000   0.01478   0.00000   0.00000   0.00000   0.00001   0.00000   0.00000 ...
   0.00000   0.00000   0.00000  -0.05371   0.00000   0.00000   0.01478   0.00000   0.00000   0.00000   0.00001   0.00000 ...
   0.00000   0.00000   0.00000   0.00000  -0.05370   0.00000   0.00000   0.01478   0.00000   0.00000   0.00000   0.00001 ...
   0.00000   0.00000   0.00000   0.00000   0.00000   0.00000   0.00000   0.00000  -0.01886   0.00000   0.00000   0.00000 ...
   0.00000   0.00000  -0.00006   0.00000   0.00000   0.00001   0.00000   0.00000   0.00000  -0.01882   0.00000   0.00000 ...
   0.00004  -0.00000   0.00000  -0.00007   0.00000   0.00000   0.00001   0.00000   0.00000   0.00000  -0.01873   0.00000 ...
   0.00000   0.00000   0.00000   0.00000  -0.00006   0.00000   0.00000   0.00001   0.00000   0.00000   0.00000  -0.01882 ...
   ...  only 12  components have been written...


 Augmentation waves occupancies Rhoij:
 Atom #  1
   1.99663  -0.01720   0.00000  -0.00000   0.00000   0.00000  -0.00001   0.00000  -0.00202   0.00000  -0.00083   0.00000 ...
  -0.01720   0.12466   0.00000  -0.00089   0.00000   0.00000   0.00003   0.00000   0.00933   0.00000   0.00725   0.00000 ...
   0.00000   0.00000   2.00764   0.00000   0.00118  -0.00505   0.00000  -0.00019   0.00000  -0.00071   0.00000   0.00024 ...
  -0.00000  -0.00089   0.00000   2.00843   0.00000   0.00000  -0.00519   0.00000   0.00041   0.00000  -0.00007   0.00000 ...
   0.00000   0.00000   0.00118   0.00000   2.00764  -0.00019   0.00000  -0.00505   0.00000   0.00024   0.00000  -0.00071 ...
   0.00000   0.00000  -0.00505   0.00000  -0.00019   0.00008   0.00000   0.00001   0.00000   0.00002   0.00000  -0.00001 ...
  -0.00001   0.00003   0.00000  -0.00519   0.00000   0.00000   0.00009   0.00000  -0.00002   0.00000  -0.00001   0.00000 ...
   0.00000   0.00000  -0.00019   0.00000  -0.00505   0.00001   0.00000   0.00008   0.00000  -0.00001   0.00000   0.00002 ...
  -0.00202   0.00933   0.00000   0.00041   0.00000   0.00000  -0.00002   0.00000   0.02919   0.00000  -0.00683   0.00000 ...
   0.00000   0.00000  -0.00071   0.00000   0.00024   0.00002   0.00000  -0.00001   0.00000   0.04197   0.00000   0.00011 ...
  -0.00083   0.00725   0.00000  -0.00007   0.00000   0.00000  -0.00001   0.00000  -0.00683   0.00000   0.02143   0.00000 ...
   0.00000   0.00000   0.00024   0.00000  -0.00071  -0.00001   0.00000   0.00002   0.00000   0.00011   0.00000   0.04197 ...
   ...  only 12  components have been written...
 Atom #  9
   1.99317  -0.06277   0.00000   0.00023   0.00000   0.00000   0.00102   0.00000   0.00000   0.00000  -0.00121   0.00000 ...
  -0.06277   1.05646   0.00000   0.00278   0.00000   0.00000  -0.04223   0.00000   0.00000   0.00000   0.03425   0.00000 ...
   0.00000   0.00000   1.96821   0.00000   0.00000  -0.18879   0.00000   0.00000   0.00000  -0.00122   0.00000   0.00000 ...
   0.00023   0.00278   0.00000   1.96712   0.00000   0.00000  -0.19420   0.00000   0.00000   0.00000  -0.00009   0.00000 ...
   0.00000   0.00000   0.00000   0.00000   1.96821   0.00000   0.00000  -0.18879   0.00000   0.00000   0.00000  -0.00122 ...
   0.00000   0.00000  -0.18879   0.00000   0.00000   1.50297   0.00000   0.00000   0.00000   0.01844   0.00000   0.00000 ...
   0.00102  -0.04223   0.00000  -0.19420   0.00000   0.00000   1.65957   0.00000   0.00000   0.00000  -0.11169   0.00000 ...
   0.00000   0.00000   0.00000   0.00000  -0.18879   0.00000   0.00000   1.50297   0.00000   0.00000   0.00000   0.01844 ...
   0.00000   0.00000   0.00000   0.00000   0.00000   0.00000   0.00000   0.00000   0.44124   0.00000   0.00000   0.00000 ...
   0.00000   0.00000  -0.00122   0.00000   0.00000   0.01844   0.00000   0.00000   0.00000   0.46801   0.00000   0.00000 ...
  -0.00121   0.03425   0.00000  -0.00009   0.00000   0.00000  -0.11169   0.00000   0.00000   0.00000   1.40091   0.00000 ...
   0.00000   0.00000   0.00000   0.00000  -0.00122   0.00000   0.00000   0.01844   0.00000   0.00000   0.00000   0.46801 ...
   ...  only 12  components have been written...



---OUTPUT-----------------------------------------------------------------------

 Cartesian coordinates (xcart) [bohr]
  5.60625723884632E+00  5.60625723884632E+00  5.48342575349753E+00
  1.68187717165392E+01  1.68187717165392E+01  1.65117598618585E+01
  1.12125144776670E+01  1.12125144776670E+01  5.29857344267708E+00
  1.12125144777202E+01  1.12125144777202E+01  1.70556876768630E+01
  1.70183508318568E+01  1.12125144776669E+01  1.09964635707811E+01
  1.12125144776669E+01  1.70183508318568E+01  1.09964635707811E+01
  1.12125144777186E+01  5.40667812352871E+00  1.09964635707811E+01
  5.40667812352871E+00  1.12125144777186E+01  1.09964635707811E+01
 -4.91639033823324E-13 -4.91639033823324E-13 -1.08628151198893E-01
 Reduced coordinates (xred)
  2.48606258190000E-01  2.48606258190000E-01  2.51393741810000E-01
  7.48606258190000E-01  7.48606258190000E-01  7.51393741810000E-01
  2.40225467900000E-01  2.40225467900000E-01  7.59774532100000E-01
  7.73266728650000E-01  7.73266728650000E-01  2.26733271350000E-01
  2.39655223540000E-01  7.57454898690000E-01  7.60344776460000E-01
  7.57454898690000E-01  2.39655223540000E-01  7.60344776460000E-01
  2.39655223540000E-01  7.57454898690000E-01  2.42545101310000E-01
  7.57454898690000E-01  2.39655223540000E-01  2.42545101310000E-01
 -4.92495739300000E-03 -4.92495739300000E-03  4.92495739300000E-03
 Cartesian forces (fcart) [Ha/bohr]; max,rms= 5.32072E-03 2.11023E-03 (free atoms)
 -1.56677839157509E-21  4.34095035538251E-20 -1.64819140786628E-05
 -1.56677839157509E-21  4.34095035538251E-20 -1.64819140786628E-05
  1.14563148929084E-19 -7.27204237668342E-20  4.28990241126438E-03
  2.67292034847068E-19 -2.25449309684818E-19 -5.32072069549878E-03
 -4.27025909781107E-03 -1.90095473719012E-14  8.01382177690800E-05
 -1.90095920393044E-14 -4.27025909781107E-03  8.01382177690796E-05
  1.90095892146263E-14  4.27025909781107E-03  8.01382177304252E-05
  4.27025909781107E-03  1.90096338820296E-14  8.01382177304256E-05
  1.12987124840997E-20  3.05440126781503E-20  7.43229241392714E-04
 Reduced forces (fred)
  1.81768055204791E-04  1.81768055204792E-04 -4.69162161665766E-19
  1.81768055204791E-04  1.81768055204792E-04 -4.69162161665766E-19
 -4.73104770836869E-02 -4.73104770836869E-02 -4.69162161665766E-19
  5.86786855272312E-02  5.86786855272312E-02 -4.69162161665766E-19
 -8.83791040192858E-04  4.69965509175137E-02  4.78803419577066E-02
  4.69965509175137E-02 -8.83791040192852E-04  4.78803419577066E-02
 -4.87641329978994E-02 -8.83791040192850E-04 -4.78803419577066E-02
 -8.83791040192855E-04 -4.87641329978994E-02 -4.78803419577066E-02
 -8.19658039318250E-03 -8.19658039318250E-03 -4.69162161665766E-19
 Scale of Primitive Cell (acell) [bohr]
  1.57271940955800E+01  1.57271940955800E+01  1.58568900425100E+01
 Real space primitive translations (rprimd) [bohr]
  0.00000000000000E+00  1.12125144777428E+01  1.10283341083609E+01
  1.12125144777428E+01  0.00000000000000E+00  1.10283341083609E+01
  1.12125144776430E+01  1.12125144776430E+01  0.00000000000000E+00
 Unitary Cell Volume (ucvol) [Bohr^3]=  2.77297493553314E+03
 Angles (23,13,12)= [degrees]
  5.97268275134190E+01  5.97268275134190E+01  6.05463449731620E+01
 Lengths [Bohr]
  1.57271940955541E+01  1.57271940955541E+01  1.58568900425874E+01
 Stress tensor in cartesian coordinates (strten) [Ha/bohr^3]
 -2.22619471012620E-05  4.70748452104093E-14 -2.39307817319942E-14
  4.70748452104093E-14 -2.22619471012611E-05 -2.39305296985786E-14
 -2.39307817319942E-14 -2.39305296985786E-14 -2.35838322022071E-05
 Total energy (etotal) [Ha]= -1.60782914801865E+02

--- Iteration: (   2/1000) Internal Cycle: (1/1)
--------------------------------------------------------------------------------

---SELF-CONSISTENT-FIELD CONVERGENCE--------------------------------------------

--- !BeginCycle
iteration_state: {dtset: 1, itime: 2, icycle: 1, }
solver: {iscf: 17, nstep: 2500, nline: 4, wfoptalg: 10, }
tolerances: {toldff: 1.00E-08, }
...

     iter   Etot(hartree)      deltaE(h)  residm     nres2    diffor    maxfor
 ETOT  1  -160.78315201713    -1.608E+02 7.334E-07 2.069E-02 1.259E-02 1.791E-02
 ETOT  2  -160.78304292268     1.091E-04 7.794E-07 4.259E-03 1.340E-02 4.512E-03
 ETOT  3  -160.78303020299     1.272E-05 6.778E-07 3.055E-04 1.830E-03 6.341E-03
 ETOT  4  -160.78302892252     1.280E-06 5.330E-08 5.693E-05 1.333E-03 5.008E-03
 ETOT  5  -160.78302907024    -1.477E-07 2.018E-08 1.966E-05 1.676E-04 4.841E-03
 ETOT  6  -160.78302912497    -5.473E-08 2.084E-08 4.335E-06 1.077E-04 4.733E-03
 ETOT  7  -160.78302914512    -2.015E-08 1.103E-08 1.524E-06 1.806E-05 4.730E-03
 ETOT  8  -160.78302918297    -3.784E-08 1.044E-08 1.915E-07 3.588E-05 4.694E-03
 ETOT  9  -160.78302918231     6.526E-10 6.074E-09 8.049E-08 4.695E-06 4.697E-03
 ETOT 10  -160.78302918443    -2.120E-09 5.745E-09 1.691E-08 7.193E-06 4.690E-03
 ETOT 11  -160.78302918500    -5.713E-10 3.259E-09 5.876E-09 2.553E-06 4.693E-03
 ETOT 12  -160.78302918543    -4.292E-10 3.165E-09 3.160E-09 1.444E-06 4.694E-03
 ETOT 13  -160.78302918616    -7.291E-10 1.742E-09 4.871E-10 1.221E-06 4.692E-03
 ETOT 14  -160.78302918646    -2.999E-10 1.746E-09 2.741E-10 4.224E-07 4.692E-03
 ETOT 15  -160.78302918664    -1.799E-10 9.273E-10 2.850E-11 3.368E-07 4.692E-03
 ETOT 16  -160.78302918693    -2.883E-10 9.606E-10 2.564E-11 9.157E-08 4.692E-03
 ETOT 17  -160.78302918704    -1.052E-10 4.956E-10 5.391E-12 4.851E-08 4.692E-03
 ETOT 18  -160.78302918714    -1.072E-10 5.286E-10 5.743E-13 2.124E-08 4.692E-03
 ETOT 19  -160.78302918724    -9.570E-11 2.686E-10 4.225E-13 9.845E-09 4.692E-03
 ETOT 20  -160.78302918731    -7.606E-11 2.912E-10 1.084E-13 1.152E-08 4.692E-03
 ETOT 21  -160.78302918740    -8.387E-11 1.486E-10 3.342E-14 1.911E-09 4.692E-03
 ETOT 22  -160.78302918743    -2.882E-11 1.604E-10 3.469E-15 2.653E-09 4.692E-03

 At SCF step   22, forces are converged : 
  for the second time, max diff in force=  2.653E-09 < toldff=  1.000E-08

 Cartesian components of stress tensor (hartree/bohr^3)
  sigma(1 1)= -2.08726726E-05  sigma(3 2)= -2.39364856E-14
  sigma(2 2)= -2.08726726E-05  sigma(3 1)= -2.39358006E-14
  sigma(3 3)= -2.18933389E-05  sigma(2 1)=  4.70870834E-14


--- !ResultsGS
iteration_state: {dtset: 1, itime: 2, icycle: 1, }
comment   : Summary of ground state results
lattice_vectors:
- [  0.0000000,  11.2123663,  11.0286257, ]
- [ 11.2123663,   0.0000000,  11.0286257, ]
- [ 11.2123663,  11.2123663,   0.0000000, ]
lattice_lengths: [  15.72729,   15.72729,   15.85668, ]
lattice_angles: [ 59.727,  59.727,  60.545, ] # degrees, (23, 13, 12)
lattice_volume:   2.7729749E+03
convergence: {deltae: -2.882E-11, res2:  3.469E-15, residm:  1.604E-10, diffor:  2.653E-09, }
etotal    :  -1.60783029E+02
entropy   :   0.00000000E+00
fermie    :  -1.02629260E-01
cartesian_stress_tensor: # hartree/bohr^3
- [ -2.08726726E-05,   4.70870834E-14,  -2.39358006E-14, ]
- [  4.70870834E-14,  -2.08726726E-05,  -2.39364856E-14, ]
- [ -2.39358006E-14,  -2.39364856E-14,  -2.18933389E-05, ]
pressure_GPa:   6.2410E-01
xred      :
- [  2.4861E-01,   2.4861E-01,   2.5139E-01, Cs]
- [  7.4861E-01,   7.4861E-01,   7.5139E-01, Cs]
- [  2.4042E-01,   2.4042E-01,   7.5958E-01,  I]
- [  7.7303E-01,   7.7303E-01,   2.2697E-01, Br]
- [  2.3985E-01,   7.5727E-01,   7.6015E-01,  I]
- [  7.5727E-01,   2.3985E-01,   7.6015E-01,  I]
- [  2.3985E-01,   7.5727E-01,   2.4273E-01,  I]
- [  7.5727E-01,   2.3985E-01,   2.4273E-01,  I]
- [ -4.8913E-03,  -4.8913E-03,   4.8913E-03, Zr]
cartesian_forces: # hartree/bohr
- [  1.63714827E-21,  -1.71994543E-19,  -1.70581519E-05, ]
- [  2.48418121E-21,  -1.72841576E-19,  -1.70581519E-05, ]
- [ -1.38583509E-20,  -1.56499044E-19,   3.88430271E-03, ]
- [ -5.09461429E-19,   3.39104034E-19,  -4.69234833E-03, ]
- [ -3.86318965E-03,  -1.71971843E-14,   7.82739029E-05, ]
- [ -1.71975350E-14,  -3.86318965E-03,   7.82739029E-05, ]
- [  1.71971065E-14,   3.86318965E-03,   7.82739028E-05, ]
- [  3.86318965E-03,   1.71972404E-14,   7.82739028E-05, ]
- [ -2.05384323E-20,  -1.49818962E-19,   5.29066313E-04, ]
force_length_stats: {min:   1.70581519E-05, max:   4.69234833E-03, mean:   2.73286265E-03, }
...

 Integrated electronic density in atomic spheres:
 ------------------------------------------------
 Atom  Sphere_radius  Integrated_density
    1        2.20660          5.36305184
    2        2.20660          5.36305184
    3        2.30022          4.01912491
    4        2.20000          4.92425103
    5        2.30022          4.01407116
    6        2.30022          4.01407116
    7        2.30022          4.01407116
    8        2.30022          4.01407116
    9        2.21000          8.83500266

 PAW TEST:
 ==== Compensation charge inside spheres ============
 The following values must be close to each other ...
 Compensation charge over spherical meshes =     -5.138064749827956
 Compensation charge over fine fft grid    =     -5.138062286898065

 ==== Results concerning PAW augmentation regions ====

 Total pseudopotential strength Dij (hartree):
 Atom #  1
   0.44444  -0.14715   0.00000  -0.00000   0.00000   0.00000   0.00000   0.00000  -0.00000   0.00000  -0.00000   0.00000 ...
  -0.14715   0.04437   0.00000   0.00000   0.00000   0.00000  -0.00000   0.00000   0.00000   0.00000   0.00000   0.00000 ...
   0.00000   0.00000  -0.09410   0.00000  -0.00000  -0.16623   0.00000   0.00000   0.00000  -0.00000   0.00000   0.00000 ...
  -0.00000   0.00000   0.00000  -0.09410   0.00000   0.00000  -0.16623   0.00000   0.00000   0.00000  -0.00000   0.00000 ...
   0.00000   0.00000  -0.00000   0.00000  -0.09410   0.00000   0.00000  -0.16623   0.00000   0.00000   0.00000  -0.00000 ...
   0.00000   0.00000  -0.16623   0.00000   0.00000   0.40525   0.00000  -0.00001   0.00000   0.00000   0.00000   0.00000 ...
   0.00000  -0.00000   0.00000  -0.16623   0.00000   0.00000   0.40525   0.00000   0.00000   0.00000   0.00000   0.00000 ...
   0.00000   0.00000   0.00000   0.00000  -0.16623  -0.00001   0.00000   0.40525   0.00000   0.00000   0.00000   0.00000 ...
  -0.00000   0.00000   0.00000   0.00000   0.00000   0.00000   0.00000   0.00000   0.00515   0.00000   0.00000   0.00000 ...
   0.00000   0.00000  -0.00000   0.00000   0.00000   0.00000   0.00000   0.00000   0.00000   0.00515   0.00000  -0.00000 ...
  -0.00000   0.00000   0.00000  -0.00000   0.00000   0.00000   0.00000   0.00000   0.00000   0.00000   0.00515   0.00000 ...
   0.00000   0.00000   0.00000   0.00000  -0.00000   0.00000   0.00000   0.00000   0.00000  -0.00000   0.00000   0.00515 ...
   ...  only 12  components have been written...
 Atom #  9
   3.08818  -0.89964   0.00000   0.00000   0.00000   0.00000   0.00000   0.00000   0.00000   0.00000   0.00004   0.00000 ...
  -0.89964   0.26890   0.00000  -0.00001   0.00000   0.00000   0.00000   0.00000   0.00000   0.00000  -0.00000   0.00000 ...
   0.00000   0.00000   0.26471   0.00000   0.00000  -0.05369   0.00000   0.00000   0.00000  -0.00006   0.00000   0.00000 ...
   0.00000  -0.00001   0.00000   0.26477   0.00000   0.00000  -0.05370   0.00000   0.00000   0.00000  -0.00007   0.00000 ...
   0.00000   0.00000   0.00000   0.00000   0.26471   0.00000   0.00000  -0.05369   0.00000   0.00000   0.00000  -0.00006 ...
   0.00000   0.00000  -0.05369   0.00000   0.00000   0.01477   0.00000   0.00000   0.00000   0.00001   0.00000   0.00000 ...
   0.00000   0.00000   0.00000  -0.05370   0.00000   0.00000   0.01478   0.00000   0.00000   0.00000   0.00001   0.00000 ...
   0.00000   0.00000   0.00000   0.00000  -0.05369   0.00000   0.00000   0.01477   0.00000   0.00000   0.00000   0.00001 ...
   0.00000   0.00000   0.00000   0.00000   0.00000   0.00000   0.00000   0.00000  -0.01892   0.00000   0.00000   0.00000 ...
   0.00000   0.00000  -0.00006   0.00000   0.00000   0.00001   0.00000   0.00000   0.00000  -0.01888   0.00000   0.00000 ...
   0.00004  -0.00000   0.00000  -0.00007   0.00000   0.00000   0.00001   0.00000   0.00000   0.00000  -0.01878   0.00000 ...
   0.00000   0.00000   0.00000   0.00000  -0.00006   0.00000   0.00000   0.00001   0.00000   0.00000   0.00000  -0.01888 ...
   ...  only 12  components have been written...


 Augmentation waves occupancies Rhoij:
 Atom #  1
   1.99663  -0.01720   0.00000  -0.00000   0.00000   0.00000  -0.00001   0.00000  -0.00200   0.00000  -0.00083   0.00000 ...
  -0.01720   0.12468   0.00000  -0.00088   0.00000   0.00000   0.00003   0.00000   0.00931   0.00000   0.00724   0.00000 ...
   0.00000   0.00000   2.00764   0.00000   0.00117  -0.00505   0.00000  -0.00019   0.00000  -0.00070   0.00000   0.00022 ...
  -0.00000  -0.00088   0.00000   2.00842   0.00000   0.00000  -0.00519   0.00000   0.00039   0.00000  -0.00007   0.00000 ...
   0.00000   0.00000   0.00117   0.00000   2.00764  -0.00019   0.00000  -0.00505   0.00000   0.00022   0.00000  -0.00070 ...
   0.00000   0.00000  -0.00505   0.00000  -0.00019   0.00008   0.00000   0.00001   0.00000   0.00002   0.00000  -0.00001 ...
  -0.00001   0.00003   0.00000  -0.00519   0.00000   0.00000   0.00009   0.00000  -0.00002   0.00000  -0.00001   0.00000 ...
   0.00000   0.00000  -0.00019   0.00000  -0.00505   0.00001   0.00000   0.00008   0.00000  -0.00001   0.00000   0.00002 ...
  -0.00200   0.00931   0.00000   0.00039   0.00000   0.00000  -0.00002   0.00000   0.02921   0.00000  -0.00681   0.00000 ...
   0.00000   0.00000  -0.00070   0.00000   0.00022   0.00002   0.00000  -0.00001   0.00000   0.04198   0.00000   0.00011 ...
  -0.00083   0.00724   0.00000  -0.00007   0.00000   0.00000  -0.00001   0.00000  -0.00681   0.00000   0.02144   0.00000 ...
   0.00000   0.00000   0.00022   0.00000  -0.00070  -0.00001   0.00000   0.00002   0.00000   0.00011   0.00000   0.04198 ...
   ...  only 12  components have been written...
 Atom #  9
   1.99313  -0.06294   0.00000   0.00023   0.00000   0.00000   0.00102   0.00000   0.00000   0.00000  -0.00124   0.00000 ...
  -0.06294   1.05477   0.00000   0.00278   0.00000   0.00000  -0.04108   0.00000   0.00000   0.00000   0.03353   0.00000 ...
   0.00000   0.00000   1.96808   0.00000   0.00000  -0.18951   0.00000   0.00000   0.00000  -0.00120   0.00000   0.00000 ...
   0.00023   0.00278   0.00000   1.96700   0.00000   0.00000  -0.19495   0.00000   0.00000   0.00000  -0.00000   0.00000 ...
   0.00000   0.00000   0.00000   0.00000   1.96808   0.00000   0.00000  -0.18951   0.00000   0.00000   0.00000  -0.00120 ...
   0.00000   0.00000  -0.18951   0.00000   0.00000   1.49780   0.00000   0.00000   0.00000   0.01839   0.00000   0.00000 ...
   0.00102  -0.04108   0.00000  -0.19495   0.00000   0.00000   1.65194   0.00000   0.00000   0.00000  -0.10920   0.00000 ...
   0.00000   0.00000   0.00000   0.00000  -0.18951   0.00000   0.00000   1.49780   0.00000   0.00000   0.00000   0.01839 ...
   0.00000   0.00000   0.00000   0.00000   0.00000   0.00000   0.00000   0.00000   0.43950   0.00000   0.00000   0.00000 ...
   0.00000   0.00000  -0.00120   0.00000   0.00000   0.01839   0.00000   0.00000   0.00000   0.46573   0.00000   0.00000 ...
  -0.00124   0.03353   0.00000  -0.00000   0.00000   0.00000  -0.10920   0.00000   0.00000   0.00000   1.39427   0.00000 ...
   0.00000   0.00000   0.00000   0.00000  -0.00120   0.00000   0.00000   0.01839   0.00000   0.00000   0.00000   0.46573 ...
   ...  only 12  components have been written...



---OUTPUT-----------------------------------------------------------------------

 Cartesian coordinates (xcart) [bohr]
  5.60618313154677E+00  5.60618313154677E+00  5.48355424128200E+00
  1.68185493946406E+01  1.68185493946406E+01  1.65121799153810E+01
  1.12123662630679E+01  1.12123662630679E+01  5.30300354153593E+00
  1.12123662631211E+01  1.12123662631211E+01  1.70508177316678E+01
  1.70138556691358E+01  1.12123662630678E+01  1.09968344342662E+01
  1.12123662630678E+01  1.70138556691358E+01  1.09968344342662E+01
  1.12123662631195E+01  5.41087685705151E+00  1.09968344342662E+01
  5.41087685705151E+00  1.12123662631195E+01  1.09968344342662E+01
 -4.88274905196408E-13 -4.88274905196408E-13 -1.07887774205771E-01
 Reduced coordinates (xred)
  2.48605510936883E-01  2.48605510936883E-01  2.51394489063117E-01
  7.48605510936883E-01  7.48605510936883E-01  7.51394489063117E-01
  2.40419962479558E-01  2.40419962479558E-01  7.59580037520442E-01
  7.73025499075197E-01  7.73025499075197E-01  2.26974500924803E-01
  2.39849280621697E-01  7.57268108183379E-01  7.60150719378303E-01
  7.57268108183379E-01  2.39849280621697E-01  7.60150719378303E-01
  2.39849280621697E-01  7.57268108183379E-01  2.42731891816622E-01
  7.57268108183378E-01  2.39849280621697E-01  2.42731891816622E-01
 -4.89126104167033E-03 -4.89126104167033E-03  4.89126104167033E-03
 Cartesian forces (fcart) [Ha/bohr]; max,rms= 4.69235E-03 1.89647E-03 (free atoms)
  1.63714826607099E-21 -1.71994543058021E-19 -1.70581519310919E-05
  2.48418121332530E-21 -1.72841576005276E-19 -1.70581519310919E-05
 -1.38583509144973E-20 -1.56499043877453E-19  3.88430270967127E-03
 -5.09461429010572E-19  3.39104034218622E-19 -4.69234833016083E-03
 -3.86318965133379E-03 -1.71971842573801E-14  7.82739028770386E-05
 -1.71975350362095E-14 -3.86318965133379E-03  7.82739028770389E-05
  1.71971064899486E-14  3.86318965133379E-03  7.82739028420709E-05
  3.86318965133379E-03  1.71972404283434E-14  7.82739028420706E-05
 -2.05384322939870E-20 -1.49818962497963E-19  5.29066312913526E-04
 Reduced forces (fred)
  1.88127972339923E-04  1.88127972339921E-04  1.91010950602532E-18
  1.88127972339923E-04  1.88127972339921E-04  1.91010950602532E-18
 -4.28385205898527E-02 -4.28385205898527E-02  1.91010950602532E-18
  5.17501532658271E-02  5.17501532658271E-02  1.91010950602531E-18
 -8.63253574688816E-04  4.24522437398593E-02  4.33154973145481E-02
  4.24522437398593E-02 -8.63253574688816E-04  4.33154973145481E-02
 -4.41787508892369E-02 -8.63253574688812E-04 -4.33154973145481E-02
 -8.63253574688810E-04 -4.41787508892369E-02 -4.33154973145481E-02
 -5.83487432189899E-03 -5.83487432189899E-03  1.91010950602531E-18
 Scale of Primitive Cell (acell) [bohr]
  1.57272928846092E+01  1.57272928846092E+01  1.58566804354912E+01
 Real space primitive translations (rprimd) [bohr]
  0.00000000000000E+00  1.12123662631437E+01  1.10286256740990E+01
  1.12123662631437E+01  0.00000000000000E+00  1.10286256740990E+01
  1.12123662630439E+01  1.12123662630439E+01  0.00000000000000E+00
 Unitary Cell Volume (ucvol) [Bohr^3]=  2.77297493553314E+03
 Angles (23,13,12)= [degrees]
  5.97274796872069E+01  5.97274796872069E+01  6.05450406255862E+01
 Lengths [Bohr]
  1.57272928846092E+01  1.57272928846092E+01  1.58566804354912E+01
 Stress tensor in cartesian coordinates (strten) [Ha/bohr^3]
 -2.08726726039499E-05  4.70870833506624E-14 -2.39358005931348E-14
  4.70870833506624E-14 -2.08726726039481E-05 -2.39364855863422E-14
 -2.39358005931348E-14 -2.39364855863422E-14 -2.18933389274992E-05
 Total energy (etotal) [Ha]= -1.60783029187427E+02

 Difference of energy with previous step (new-old):
           Absolute (Ha)=-1.14386E-04
           Relative     =-7.11428E-07

--- Iteration: (   3/1000) Internal Cycle: (1/1)
--------------------------------------------------------------------------------

---SELF-CONSISTENT-FIELD CONVERGENCE--------------------------------------------

--- !BeginCycle
iteration_state: {dtset: 1, itime: 3, icycle: 1, }
solver: {iscf: 17, nstep: 2500, nline: 4, wfoptalg: 10, }
tolerances: {toldff: 1.00E-08, }
...

     iter   Etot(hartree)      deltaE(h)  residm     nres2    diffor    maxfor
 ETOT  1  -160.79312991810    -1.608E+02 5.023E-05 1.580E+00 1.097E-01 1.144E-01
 ETOT  2  -160.78455802145     8.572E-03 3.516E-05 3.298E-01 1.166E-01 2.826E-03
 ETOT  3  -160.78362630740     9.317E-04 5.924E-05 2.556E-02 1.675E-02 1.455E-02
 ETOT  4  -160.78351389947     1.124E-04 3.768E-06 4.294E-03 1.231E-02 2.240E-03
 ETOT  5  -160.78352233566    -8.436E-06 1.512E-06 1.557E-03 1.401E-03 1.507E-03
 ETOT  6  -160.78352298763    -6.520E-07 2.369E-07 3.260E-04 9.371E-04 1.096E-03
 ETOT  7  -160.78352333857    -3.509E-07 9.733E-08 1.146E-04 1.586E-04 9.887E-04
 ETOT  8  -160.78352421243    -8.739E-07 3.240E-08 1.315E-05 2.827E-04 9.339E-04
 ETOT  9  -160.78352420506     7.371E-09 1.674E-08 5.932E-06 3.622E-05 9.597E-04
 ETOT 10  -160.78352423680    -3.174E-08 4.443E-09 1.234E-06 6.510E-05 1.001E-03
 ETOT 11  -160.78352424142    -4.618E-09 4.571E-09 4.600E-07 2.272E-05 9.932E-04
 ETOT 12  -160.78352424721    -5.782E-09 1.567E-09 2.337E-07 1.304E-05 9.801E-04
 ETOT 13  -160.78352425218    -4.970E-09 2.599E-09 4.011E-08 1.046E-05 9.868E-04
 ETOT 14  -160.78352425442    -2.245E-09 8.408E-10 1.330E-08 3.543E-06 9.903E-04
 ETOT 15  -160.78352425598    -1.559E-09 1.439E-09 1.122E-09 2.963E-06 9.886E-04
 ETOT 16  -160.78352425813    -2.147E-09 4.989E-10 1.352E-09 5.712E-07 9.880E-04
 ETOT 17  -160.78352425886    -7.361E-10 9.135E-10 2.283E-10 4.839E-07 9.884E-04
 ETOT 18  -160.78352425968    -8.126E-10 3.067E-10 2.767E-11 2.039E-07 9.885E-04
 ETOT 19  -160.78352426030    -6.218E-10 5.800E-10 2.188E-11 7.237E-08 9.886E-04
 ETOT 20  -160.78352426087    -5.685E-10 1.905E-10 6.860E-12 7.161E-08 9.885E-04
 ETOT 21  -160.78352426143    -5.604E-10 3.690E-10 2.649E-12 8.767E-09 9.885E-04
 ETOT 22  -160.78352426177    -3.459E-10 1.183E-10 2.609E-13 2.445E-08 9.885E-04
 ETOT 23  -160.78352426195    -1.759E-10 2.340E-10 4.189E-14 5.035E-09 9.885E-04
 ETOT 24  -160.78352426196    -1.293E-11 7.341E-11 1.512E-14 3.986E-09 9.885E-04

 At SCF step   24, forces are converged : 
  for the second time, max diff in force=  3.986E-09 < toldff=  1.000E-08

 Cartesian components of stress tensor (hartree/bohr^3)
  sigma(1 1)= -8.94897637E-06  sigma(3 2)= -2.39858058E-14
  sigma(2 2)= -8.94897637E-06  sigma(3 1)= -2.39874205E-14
  sigma(3 3)= -7.70214920E-06  sigma(2 1)=  4.72001477E-14


--- !ResultsGS
iteration_state: {dtset: 1, itime: 3, icycle: 1, }
comment   : Summary of ground state results
lattice_vectors:
- [  0.0000000,  11.2112355,  11.0308506, ]
- [ 11.2112355,   0.0000000,  11.0308506, ]
- [ 11.2112355,  11.2112355,   0.0000000, ]
lattice_lengths: [  15.72805,   15.72805,   15.85508, ]
lattice_angles: [ 59.732,  59.732,  60.535, ] # degrees, (23, 13, 12)
lattice_volume:   2.7729749E+03
convergence: {deltae: -1.293E-11, res2:  1.512E-14, residm:  7.341E-11, diffor:  3.986E-09, }
etotal    :  -1.60783524E+02
entropy   :   0.00000000E+00
fermie    :  -1.02830118E-01
cartesian_stress_tensor: # hartree/bohr^3
- [ -8.94897637E-06,   4.72001477E-14,  -2.39874205E-14, ]
- [  4.72001477E-14,  -8.94897637E-06,  -2.39858058E-14, ]
- [ -2.39874205E-14,  -2.39858058E-14,  -7.70214920E-06, ]
pressure_GPa:   2.5106E-01
xred      :
- [  2.4860E-01,   2.4860E-01,   2.5140E-01, Cs]
- [  7.4860E-01,   7.4860E-01,   7.5140E-01, Cs]
- [  2.4216E-01,   2.4216E-01,   7.5784E-01,  I]
- [  7.7092E-01,   7.7092E-01,   2.2908E-01, Br]
- [  2.4159E-01,   7.5560E-01,   7.5841E-01,  I]
- [  7.5560E-01,   2.4159E-01,   7.5841E-01,  I]
- [  2.4159E-01,   7.5560E-01,   2.4440E-01,  I]
- [  7.5560E-01,   2.4159E-01,   2.4440E-01,  I]
- [ -4.6541E-03,  -4.6541E-03,   4.6541E-03, Zr]
cartesian_forces: # hartree/bohr
- [ -1.77090860E-21,  -9.47742782E-22,  -1.51267374E-05, ]
- [ -2.61794154E-21,  -1.00709835E-22,  -1.51267374E-05, ]
- [  1.02080970E-20,  -1.29267484E-20,   3.30631226E-04, ]
- [ -1.15321985E-20,   8.81354712E-21,   4.30742958E-04, ]
- [ -3.53371431E-04,  -1.57331136E-15,   6.43510205E-05, ]
- [ -1.57324606E-15,  -3.53371431E-04,   6.43510205E-05, ]
- [  1.57324285E-15,   3.53371431E-04,   6.43510205E-05, ]
- [  3.53371431E-04,   1.57330913E-15,   6.43510205E-05, ]
- [  1.28313685E-20,  -1.55500199E-20,  -9.88524790E-04, ]
force_length_stats: {min:   1.51267374E-05, max:   9.88524790E-04, mean:   3.57431602E-04, }
...

 Integrated electronic density in atomic spheres:
 ------------------------------------------------
 Atom  Sphere_radius  Integrated_density
    1        2.20660          5.36309883
    2        2.20660          5.36309883
    3        2.30022          4.01306637
    4        2.20000          4.92239957
    5        2.30022          4.01232502
    6        2.30022          4.01232502
    7        2.30022          4.01232502
    8        2.30022          4.01232502
    9        2.21000          8.82038188

 PAW TEST:
 ==== Compensation charge inside spheres ============
 The following values must be close to each other ...
 Compensation charge over spherical meshes =     -5.139161371254247
 Compensation charge over fine fft grid    =     -5.139161632000524

 ==== Results concerning PAW augmentation regions ====

 Total pseudopotential strength Dij (hartree):
 Atom #  1
   0.44434  -0.14712   0.00000  -0.00000   0.00000   0.00000   0.00000   0.00000  -0.00000   0.00000  -0.00000   0.00000 ...
  -0.14712   0.04436   0.00000   0.00000   0.00000   0.00000  -0.00000   0.00000   0.00000   0.00000   0.00000   0.00000 ...
   0.00000   0.00000  -0.09409   0.00000  -0.00000  -0.16624   0.00000   0.00000   0.00000  -0.00000   0.00000  -0.00000 ...
  -0.00000   0.00000   0.00000  -0.09409   0.00000   0.00000  -0.16624   0.00000  -0.00000   0.00000  -0.00000   0.00000 ...
   0.00000   0.00000  -0.00000   0.00000  -0.09409   0.00000   0.00000  -0.16624   0.00000  -0.00000   0.00000  -0.00000 ...
   0.00000   0.00000  -0.16624   0.00000   0.00000   0.40522   0.00000  -0.00001   0.00000   0.00000   0.00000   0.00000 ...
[...]
                       5.4666995738E+00  2.8135323133E+00  5.3481634490E+00
                       2.8135323133E+00  5.4666995738E+00  5.3481634490E+00
                      -3.9721647698E-13 -3.9721647698E-13 -8.7455470584E-02
           xangst10    2.7042734817E+00  2.7042734817E+00  2.6390666654E+00
                       8.1128204451E+00  8.1128204451E+00  7.9159813887E+00
                       5.4085469634E+00  5.4085469634E+00  2.7109574728E+00
                       5.4085469634E+00  5.4085469634E+00  7.8849384951E+00
                       8.0186120385E+00  5.4085469634E+00  5.2894278802E+00
                       5.4085469634E+00  8.0186120385E+00  5.2894278802E+00
                       5.4085469634E+00  2.7984818882E+00  5.2894278802E+00
                       2.7984818882E+00  5.4085469634E+00  5.2894278802E+00
                      -4.2502340286E-13 -4.2501605905E-13 -9.3337756251E-02
            xcart1     5.6059888250E+00  5.6059888250E+00  5.4829574064E+00
                       1.6817966475E+01  1.6817966475E+01  1.6512347610E+01
                       1.1211977650E+01  1.1211977650E+01  5.3414730075E+00
                       1.1211977650E+01  1.1211977650E+01  1.7006135355E+01
                       1.6970873037E+01  1.1211977650E+01  1.1001019171E+01
                       1.1211977650E+01  1.6970873037E+01  1.1001019171E+01
                       1.1211977650E+01  5.4530822634E+00  1.1001019171E+01
                       5.4530822634E+00  1.1211977650E+01  1.1001019171E+01
                      -5.0626445497E-13 -5.0626445497E-13 -1.1186843385E-01
            xcart2     5.5496091770E+00  5.5496091770E+00  5.4270667749E+00
                       1.6648827531E+01  1.6648827531E+01  1.6344079111E+01
                       1.1099218354E+01  1.1099218354E+01  5.3286346423E+00
                       1.1099218354E+01  1.1099218354E+01  1.6779324549E+01
                       1.6754741661E+01  1.1099218354E+01  1.0893074732E+01
                       1.1099218354E+01  1.6754741661E+01  1.0893074732E+01
                       1.1099218354E+01  5.4436950475E+00  1.0893074732E+01
                       5.4436950475E+00  1.1099218354E+01  1.0893074732E+01
                      -5.2284415039E-13 -5.2283027260E-13 -1.1530531545E-01
            xcart3     5.4940610982E+00  5.4940610982E+00  5.3722116445E+00
                       1.6482183295E+01  1.6482183295E+01  1.6173575761E+01
                       1.0988122196E+01  1.0988122196E+01  5.3122149373E+00
                       1.0988122196E+01  1.0988122196E+01  1.6546041794E+01
                       1.6544034807E+01  1.0988122196E+01  1.0781682470E+01
                       1.0988122196E+01  1.6544034807E+01  1.0781682470E+01
                       1.0988122196E+01  5.4322095854E+00  1.0781682470E+01
                       5.4322095854E+00  1.0988122196E+01  1.0781682470E+01
                      -5.4267234981E-13 -5.4267234981E-13 -1.1986108535E-01
            xcart4     5.4380888876E+00  5.4380888876E+00  5.3178624252E+00
                       1.6314266663E+01  1.6314266663E+01  1.6005247764E+01
                       1.0876177775E+01  1.0876177775E+01  5.2940139379E+00
                       1.0876177775E+01  1.0876177775E+01  1.6316623032E+01
                       1.6333364631E+01  1.0876177775E+01  1.0672534440E+01
                       1.0876177775E+01  1.6333364631E+01  1.0672534440E+01
                       1.0876177775E+01  5.4189909196E+00  1.0672534440E+01
                       5.4189909196E+00  1.0876177775E+01  1.0672534440E+01
                      -5.6602111212E-13 -5.6481374458E-13 -1.2480220760E-01
            xcart5     5.3828197776E+00  5.3828197776E+00  5.2629217477E+00
                       1.6148459333E+01  1.6148459333E+01  1.5833567293E+01
                       1.0765639555E+01  1.0765639555E+01  5.2724890576E+00
                       1.0765639555E+01  1.0765639555E+01  1.6081974449E+01
                       1.6127623768E+01  1.0765639555E+01  1.0561312422E+01
                       1.0765639555E+01  1.6127623768E+01  1.0561312422E+01
                       1.0765639555E+01  5.4036553426E+00  1.0561312422E+01
                       5.4036553426E+00  1.0765639555E+01  1.0561312422E+01
                      -5.9419603462E-13 -5.9570871349E-13 -1.3103787490E-01
            xcart6     5.3287297167E+00  5.3287297167E+00  5.2053694664E+00
                       1.5986189150E+01  1.5986189150E+01  1.5654653851E+01
                       1.0657459433E+01  1.0657459433E+01  5.2483804088E+00
                       1.0657459433E+01  1.0657459433E+01  1.5839360502E+01
                       1.5929020240E+01  1.0657459433E+01  1.0446116048E+01
                       1.0657459433E+01  1.5929020240E+01  1.0446116048E+01
                       1.0657459433E+01  5.3858986268E+00  1.0446116048E+01
                       5.3858986268E+00  1.0657459433E+01  1.0446116048E+01
                      -6.2490513342E-13 -6.2491901121E-13 -1.3795334125E-01
            xcart7     5.2741305966E+00  5.2741305966E+00  5.1509297826E+00
                       1.5822391790E+01  1.5822391790E+01  1.5480861720E+01
                       1.0548261193E+01  1.0548261193E+01  5.2207409027E+00
                       1.0548261193E+01  1.0548261193E+01  1.5601305317E+01
                       1.5731024310E+01  1.0548261193E+01  1.0333060698E+01
                       1.0548261193E+01  1.5731024310E+01  1.0333060698E+01
                       1.0548261193E+01  5.3654980766E+00  1.0333060698E+01
                       5.3654980766E+00  1.0548261193E+01  1.0333060698E+01
                      -6.6496579587E-13 -6.6497967366E-13 -1.4662501997E-01
            xcart8     5.2194109681E+00  5.2194109681E+00  5.0956263699E+00
                       1.5658232904E+01  1.5658232904E+01  1.5306687299E+01
                       1.0438821936E+01  1.0438821936E+01  5.1909352428E+00
                       1.0438821936E+01  1.0438821936E+01  1.5366931468E+01
                       1.5534953483E+01  1.0438821936E+01  1.0220881108E+01
                       1.0438821936E+01  1.5534953483E+01  1.0220881108E+01
                       1.0438821936E+01  5.3426903890E+00  1.0220881108E+01
                       5.3426903890E+00  1.0438821936E+01  1.0220881108E+01
                      -7.0789913558E-13 -7.0673340140E-13 -1.5521737859E-01
            xcart9     5.1652825226E+00  5.1652825226E+00  5.0403243150E+00
                       1.5495847568E+01  1.5495847568E+01  1.5130213314E+01
                       1.0330565045E+01  1.0330565045E+01  5.1581877639E+00
                       1.0330565045E+01  1.0330565045E+01  1.5129396559E+01
                       1.5344324552E+01  1.0330565045E+01  1.0106564233E+01
                       1.0330565045E+01  1.5344324552E+01  1.0106564233E+01
                       1.0330565045E+01  5.3168055382E+00  1.0106564233E+01
                       5.3168055382E+00  1.0330565045E+01  1.0106564233E+01
                      -7.5063035696E-13 -7.5063035696E-13 -1.6526688823E-01
            xcart10    5.1103362688E+00  5.1103362688E+00  4.9871132439E+00
                       1.5331008806E+01  1.5331008806E+01  1.4959036898E+01
                       1.0220672538E+01  1.0220672538E+01  5.1229671815E+00
                       1.0220672538E+01  1.0220672538E+01  1.4900374330E+01
                       1.5152980719E+01  1.0220672538E+01  9.9955700933E+00
                       1.0220672538E+01  1.5152980719E+01  9.9955700933E+00
                       1.0220672538E+01  5.2883643566E+00  9.9955700933E+00
                       5.2883643566E+00  1.0220672538E+01  9.9955700933E+00
                      -8.0317783146E-13 -8.0316395368E-13 -1.7638279717E-01
             xred1     2.4856122167E-01  2.4856122167E-01  2.5143877833E-01
                       7.4856122167E-01  7.4856122167E-01  7.5143877833E-01
                       2.4214724971E-01  2.4214724971E-01  7.5785275029E-01
                       7.7094630987E-01  7.7094630987E-01  2.2905369013E-01
                       2.4189495056E-01  7.5553273744E-01  7.5810504944E-01
                       7.5553273744E-01  2.4189495056E-01  7.5810504944E-01
                       2.4189495056E-01  7.5553273744E-01  2.4446726256E-01
                       7.5553273744E-01  2.4189495056E-01  2.4446726256E-01
                      -5.0713789153E-03 -5.0713789153E-03  5.0713789153E-03
             xred2     2.4856007339E-01  2.4856007339E-01  2.5143992661E-01
                       7.4856007339E-01  7.4856007339E-01  7.5143992661E-01
                       2.4405187418E-01  2.4405187418E-01  7.5594812582E-01
                       7.6849434774E-01  7.6849434774E-01  2.3150565226E-01
                       2.4413241317E-01  7.5367489861E-01  7.5586758683E-01
                       7.5367489861E-01  2.4413241317E-01  7.5586758683E-01
                       2.4413241317E-01  7.5367489861E-01  2.4632510139E-01
                       7.5367489861E-01  2.4413241317E-01  2.4632510139E-01
                      -5.2809922669E-03 -5.2809922669E-03  5.2809922669E-03
             xred3     2.4868209175E-01  2.4868209175E-01  2.5131790825E-01
                       7.4868209175E-01  7.4868209175E-01  7.5131790825E-01
                       2.4590481721E-01  2.4590481721E-01  7.5409518279E-01
                       7.6592371185E-01  7.6592371185E-01  2.3407628815E-01
                       2.4627445627E-01  7.5190339920E-01  7.5372554373E-01
                       7.5190339920E-01  2.4627445627E-01  7.5372554373E-01
                       2.4627445627E-01  7.5190339920E-01  2.4809660080E-01
                       7.5190339920E-01  2.4627445627E-01  2.4809660080E-01
                      -5.5484235168E-03 -5.5484235168E-03  5.5484235168E-03
             xred4     2.4879155455E-01  2.4879155455E-01  2.5120844545E-01
                       7.4879155455E-01  7.4879155455E-01  7.5120844545E-01
                       2.4767582388E-01  2.4767582388E-01  7.5232417612E-01
                       7.6335897485E-01  7.6335897485E-01  2.3664102515E-01
                       2.4842724123E-01  7.5018318605E-01  7.5157275877E-01
                       7.5018318605E-01  2.4842724123E-01  7.5157275877E-01
                       2.4842724123E-01  7.5018318605E-01  2.4981681395E-01
                       7.5018318605E-01  2.4842724123E-01  2.4981681395E-01
                      -5.8387624120E-03 -5.8387624120E-03  5.8387624120E-03
             xred5     2.4894041358E-01  2.4894041358E-01  2.5105958642E-01
                       7.4894041358E-01  7.4894041358E-01  7.5105958642E-01
                       2.4939295500E-01  2.4939295500E-01  7.5060704500E-01
                       7.6069027099E-01  7.6069027099E-01  2.3930972901E-01
                       2.5052622403E-01  7.4859084760E-01  7.4947377597E-01
                       7.4859084760E-01  2.5052622403E-01  7.4947377597E-01
                       2.5052622403E-01  7.4859084760E-01  2.5140915240E-01
                       7.4859084760E-01  2.5052622403E-01  2.5140915240E-01
                      -6.1981964272E-03 -6.1981964272E-03  6.1981964272E-03
             xred6     2.4907779685E-01  2.4907779685E-01  2.5092220315E-01
                       7.4907779685E-01  7.4907779685E-01  7.5092220315E-01
                       2.5113587761E-01  2.5113587761E-01  7.4886412239E-01
                       7.5791604088E-01  7.5791604088E-01  2.4208395912E-01
                       2.5253050235E-01  7.4716628675E-01  7.4746949765E-01
                       7.4716628675E-01  2.5253050235E-01  7.4746949765E-01
                       2.5253050235E-01  7.4716628675E-01  2.5283371325E-01
                       7.4716628675E-01  2.5253050235E-01  2.5283371325E-01
                      -6.6010903796E-03 -6.6010903796E-03  6.6010903796E-03
             xred7     2.4932060608E-01  2.4932060608E-01  2.5067939392E-01
                       7.4932060608E-01  7.4932060608E-01  7.5067939392E-01
                       2.5269967578E-01  2.5269967578E-01  7.4730032422E-01
                       7.5515044109E-01  7.5515044109E-01  2.4484955891E-01
                       2.5448236766E-01  7.4582051541E-01  7.4551763234E-01
                       7.4582051541E-01  2.5448236766E-01  7.4551763234E-01
                       2.5448236766E-01  7.4582051541E-01  2.5417948459E-01
                       7.4582051541E-01  2.5448236766E-01  2.5417948459E-01
                      -7.0970951630E-03 -7.0970951630E-03  7.0970951630E-03
             xred8     2.4951503107E-01  2.4951503107E-01  2.5048496893E-01
                       7.4951503107E-01  7.4951503107E-01  7.5048496893E-01
                       2.5418197378E-01  2.5418197378E-01  7.4581802622E-01
                       7.5246497766E-01  7.5246497766E-01  2.4753502234E-01
                       2.5638571301E-01  7.4457600673E-01  7.4361428699E-01
                       7.4457600673E-01  2.5638571301E-01  7.4361428699E-01
                       2.5638571301E-01  7.4457600673E-01  2.5542399327E-01
                       7.4457600673E-01  2.5638571301E-01  2.5542399327E-01
                      -7.6004530610E-03 -7.6004530610E-03  7.6004530610E-03
             xred9     2.4977104879E-01  2.4977104879E-01  2.5022895121E-01
                       7.4977104879E-01  7.4977104879E-01  7.5022895121E-01
                       2.5561172002E-01  2.5561172002E-01  7.4438827998E-01
                       7.4973057484E-01  7.4973057484E-01  2.5026942516E-01
                       2.5816005734E-01  7.4349261032E-01  7.4183994266E-01
                       7.4349261032E-01  2.5816005734E-01  7.4183994266E-01
                       2.5816005734E-01  7.4349261032E-01  2.5650738968E-01
                       7.4349261032E-01  2.5816005734E-01  2.5650738968E-01
                      -8.1897277680E-03 -8.1897277680E-03  8.1897277680E-03
             xred10    2.5005773295E-01  2.5005773295E-01  2.4994226705E-01
                       7.5005773295E-01  7.5005773295E-01  7.4994226705E-01
                       2.5686955493E-01  2.5686955493E-01  7.4313044507E-01
                       7.4711634625E-01  7.4711634625E-01  2.5288365375E-01
                       2.5989486677E-01  7.4247643494E-01  7.4010513323E-01
                       7.4247643494E-01  2.5989486677E-01  7.4010513323E-01
                       2.5989486677E-01  7.4247643494E-01  2.5752356506E-01
                       7.4247643494E-01  2.5989486677E-01  2.5752356506E-01
                      -8.8439704965E-03 -8.8439704965E-03  8.8439704965E-03
            znucl       55.00000   53.00000   40.00000   35.00000

================================================================================


- Timing analysis has been suppressed with timopt=0



================================================================================

 Suggested references for the acknowledgment of ABINIT usage.

 The users of ABINIT have little formal obligations with respect to the ABINIT group
 (those specified in the GNU General Public License, http://www.gnu.org/copyleft/gpl.txt).
 However, it is common practice in the scientific literature,
 to acknowledge the efforts of people that have made the research possible.
 In this spirit, please find below suggested citations of work written by ABINIT developers,
 corresponding to implementations inside of ABINIT that you have used in the present run.
 Note also that it will be of great value to readers of publications presenting these results,
 to read papers enabling them to understand the theoretical formalism and details
 of the ABINIT implementation.
 For information on why they are suggested, see also https://docs.abinit.org/theory/acknowledgments.
-
- [1] Implementation of the Projector Augmented-Wave Method in the ABINIT code.
- M. Torrent, F. Jollet, F. Bottin, G. Zerah, and X. Gonze Comput. Mat. Science 42, 337, (2008).
- Comment: PAW calculations. Strong suggestion to cite this paper.
- DOI and bibtex: see https://docs.abinit.org/theory/bibliography/#torrent2008
-
- [2] Libxc: A library of exchange and correlation functionals for density functional theory.
- M.A.L. Marques, M.J.T. Oliveira, T. Burnus, Computer Physics Communications 183, 2227 (2012).
- Comment: to be cited when LibXC is used (negative value of ixc)
- Strong suggestion to cite this paper.
- DOI and bibtex: see https://docs.abinit.org/theory/bibliography/#marques2012
-
- [3] The Abinit project: Impact, environment and recent developments.
- Computer Phys. Comm. 248, 107042 (2020).
- X.Gonze, B. Amadon, G. Antonius, F.Arnardi, L.Baguet, J.-M.Beuken,
- J.Bieder, F.Bottin, J.Bouchet, E.Bousquet, N.Brouwer, F.Bruneval,
- G.Brunin, T.Cavignac, J.-B. Charraud, Wei Chen, M.Cote, S.Cottenier,
- J.Denier, G.Geneste, Ph.Ghosez, M.Giantomassi, Y.Gillet, O.Gingras,
- D.R.Hamann, G.Hautier, Xu He, N.Helbig, N.Holzwarth, Y.Jia, F.Jollet,
- W.Lafargue-Dit-Hauret, K.Lejaeghere, M.A.L.Marques, A.Martin, C.Martins,
- H.P.C. Miranda, F.Naccarato, K. Persson, G.Petretto, V.Planes, Y.Pouillon,
- S.Prokhorenko, F.Ricci, G.-M.Rignanese, A.H.Romero, M.M.Schmitt, M.Torrent,
- M.J.van Setten, B.Van Troeye, M.J.Verstraete, G.Zerah and J.W.Zwanzig
- Comment: the fifth generic paper describing the ABINIT project.
- Note that a version of this paper, that is not formatted for Computer Phys. Comm. 
- is available at https://www.abinit.org/sites/default/files/ABINIT20.pdf .
- The licence allows the authors to put it on the Web.
- DOI and bibtex: see https://docs.abinit.org/theory/bibliography/#gonze2020
-
- [4] ABINIT: Overview, and focus on selected capabilities
- J. Chem. Phys. 152, 124102 (2020).
- A. Romero, D.C. Allan, B. Amadon, G. Antonius, T. Applencourt, L.Baguet,
- J.Bieder, F.Bottin, J.Bouchet, E.Bousquet, F.Bruneval,
- G.Brunin, D.Caliste, M.Cote,
- J.Denier, C. Dreyer, Ph.Ghosez, M.Giantomassi, Y.Gillet, O.Gingras,
- D.R.Hamann, G.Hautier, F.Jollet, G. Jomard,
- A.Martin, 
- H.P.C. Miranda, F.Naccarato, G.Petretto, N.A. Pike, V.Planes,
- S.Prokhorenko, T. Rangel, F.Ricci, G.-M.Rignanese, M.Royo, M.Stengel, M.Torrent,
- M.J.van Setten, B.Van Troeye, M.J.Verstraete, J.Wiktor, J.W.Zwanziger, and X.Gonze.
- Comment: a global overview of ABINIT, with focus on selected capabilities .
- Note that a version of this paper, that is not formatted for J. Chem. Phys 
- is available at https://www.abinit.org/sites/default/files/ABINIT20_JPC.pdf .
- The licence allows the authors to put it on the Web.
- DOI and bibtex: see https://docs.abinit.org/theory/bibliography/#romero2020
-
- [5] Recent developments in the ABINIT software package.
- Computer Phys. Comm. 205, 106 (2016).
- X.Gonze, F.Jollet, F.Abreu Araujo, D.Adams, B.Amadon, T.Applencourt,
- C.Audouze, J.-M.Beuken, J.Bieder, A.Bokhanchuk, E.Bousquet, F.Bruneval
- D.Caliste, M.Cote, F.Dahm, F.Da Pieve, M.Delaveau, M.Di Gennaro,
- B.Dorado, C.Espejo, G.Geneste, L.Genovese, A.Gerossier, M.Giantomassi,
- Y.Gillet, D.R.Hamann, L.He, G.Jomard, J.Laflamme Janssen, S.Le Roux,
- A.Levitt, A.Lherbier, F.Liu, I.Lukacevic, A.Martin, C.Martins,
- M.J.T.Oliveira, S.Ponce, Y.Pouillon, T.Rangel, G.-M.Rignanese,
- A.H.Romero, B.Rousseau, O.Rubel, A.A.Shukri, M.Stankovski, M.Torrent,
- M.J.Van Setten, B.Van Troeye, M.J.Verstraete, D.Waroquier, J.Wiktor,
- B.Xu, A.Zhou, J.W.Zwanziger.
- Comment: the fourth generic paper describing the ABINIT project.
- Note that a version of this paper, that is not formatted for Computer Phys. Comm. 
- is available at https://www.abinit.org/sites/default/files/ABINIT16.pdf .
- The licence allows the authors to put it on the Web.
- DOI and bibtex: see https://docs.abinit.org/theory/bibliography/#gonze2016
-
- Proc.   0 individual time (sec): cpu=      67118.8  wall=      67243.4

================================================================================

 Calculation completed.
.Delivered   0 WARNINGs and 260 COMMENTs to log file.
+Overall time at end (sec) : cpu=     403147.7  wall=     403460.1
