
.Version 9.2.2 of ABINIT 
.(MPI version, prepared for a x86_64_linux_gnu9.3 computer) 

.Copyright (C) 1998-2020 ABINIT group . 
 ABINIT comes with ABSOLUTELY NO WARRANTY.
 It is free software, and you are welcome to redistribute it
 under certain conditions (GNU General Public License,
 see ~abinit/COPYING or http://www.gnu.org/copyleft/gpl.txt).

 ABINIT is a project of the Universite Catholique de Louvain,
 Corning Inc. and other collaborators, see ~abinit/doc/developers/contributors.txt .
 Please read https://docs.abinit.org/theory/acknowledgments for suggested
 acknowledgments of the ABINIT effort.
 For more information, see https://www.abinit.org .

.Starting date : Fri 21 Oct 2022.
- ( at 08h50 )
  
- input  file    -> Cs2TiI6.in
- output file    -> Cs2TiI6.out
- root for input  files -> Cs2TiI6i
- root for output files -> Cs2TiI6o

- inpspheads : Reading pseudopotential header in XML form from 
-   ../../../Psps_for_tests/ATOMICDATA/Cs.GGA_PBE-JTH.xml
- inpspheads : Reading pseudopotential header in XML form from 
-   ../../../Psps_for_tests/ATOMICDATA/Br.GGA_PBE-JTH.xml
- inpspheads : Reading pseudopotential header in XML form from 
-   ../../../Psps_for_tests/ATOMICDATA/Hf.GGA_PBE-JTH.xml

 DATASET    1 : space group Fm -3 m (#225); Bravais cF (face-center cubic)
================================================================================
 Values of the parameters that define the memory need for DATASET  1.
     intxc =       0    ionmov =       2      iscf =      17    lmnmax =      18
     lnmax =       6     mgfft =      64  mpssoang =       3    mqgrid =    3969
     natom =       9  nloc_mem =       2    nspden =       1   nspinor =       1
    nsppol =       1      nsym =      48    n1xccc =       1    ntypat =       3
    occopt =       1   xclevel =       2
-    mband =          42        mffmem =           1         mkmem =           3
       mpw =       10792          nfft =      262144          nkpt =          10
Pmy_natom=         3
 PAW method is used; the additional fine FFT grid is defined by:
   mgfftf=       100    nfftf =   1000000
================================================================================
P This job should need less than                     326.795 Mbytes of memory.
  Rough estimation (10% accuracy) of disk space for files :
_ WF disk file :     69.165 Mbytes ; DEN or POT disk file :      7.631 Mbytes.
================================================================================


 DATASET    2 : space group Fm -3 m (#225); Bravais cF (face-center cubic)
================================================================================
 Values of the parameters that define the memory need for DATASET  2.
     intxc =       0    ionmov =       2      iscf =      17    lmnmax =      18
     lnmax =       6     mgfft =      64  mpssoang =       3    mqgrid =    3929
     natom =       9  nloc_mem =       2    nspden =       1   nspinor =       1
    nsppol =       1      nsym =      48    n1xccc =       1    ntypat =       3
    occopt =       1   xclevel =       2
-    mband =          42        mffmem =           1         mkmem =           3
       mpw =       10447          nfft =      262144          nkpt =          10
Pmy_natom=         3
 PAW method is used; the additional fine FFT grid is defined by:
   mgfftf=       100    nfftf =   1000000
================================================================================
P This job should need less than                     326.893 Mbytes of memory.
  Rough estimation (10% accuracy) of disk space for files :
_ WF disk file :     66.954 Mbytes ; DEN or POT disk file :      7.631 Mbytes.
================================================================================


 DATASET    3 : space group Fm -3 m (#225); Bravais cF (face-center cubic)
================================================================================
 Values of the parameters that define the memory need for DATASET  3.
     intxc =       0    ionmov =       2      iscf =      17    lmnmax =      18
     lnmax =       6     mgfft =      64  mpssoang =       3    mqgrid =    3889
     natom =       9  nloc_mem =       2    nspden =       1   nspinor =       1
    nsppol =       1      nsym =      48    n1xccc =       1    ntypat =       3
    occopt =       1   xclevel =       2
-    mband =          42        mffmem =           1         mkmem =           3
       mpw =       10134          nfft =      262144          nkpt =          10
Pmy_natom=         3
 PAW method is used; the additional fine FFT grid is defined by:
   mgfftf=        96    nfftf =    884736
================================================================================
P This job should need less than                     296.876 Mbytes of memory.
  Rough estimation (10% accuracy) of disk space for files :
_ WF disk file :     64.948 Mbytes ; DEN or POT disk file :      6.752 Mbytes.
================================================================================


 DATASET    4 : space group Fm -3 m (#225); Bravais cF (face-center cubic)
================================================================================
 Values of the parameters that define the memory need for DATASET  4.
     intxc =       0    ionmov =       2      iscf =      17    lmnmax =      18
     lnmax =       6     mgfft =      60  mpssoang =       3    mqgrid =    3849
     natom =       9  nloc_mem =       2    nspden =       1   nspinor =       1
    nsppol =       1      nsym =      48    n1xccc =       1    ntypat =       3
    occopt =       1   xclevel =       2
-    mband =          42        mffmem =           1         mkmem =           3
       mpw =        9814          nfft =      216000          nkpt =          10
Pmy_natom=         3
 PAW method is used; the additional fine FFT grid is defined by:
   mgfftf=        96    nfftf =    884736
================================================================================
P This job should need less than                     290.128 Mbytes of memory.
  Rough estimation (10% accuracy) of disk space for files :
_ WF disk file :     62.897 Mbytes ; DEN or POT disk file :      6.752 Mbytes.
================================================================================


 DATASET    5 : space group Fm -3 m (#225); Bravais cF (face-center cubic)
================================================================================
 Values of the parameters that define the memory need for DATASET  5.
     intxc =       0    ionmov =       2      iscf =      17    lmnmax =      18
     lnmax =       6     mgfft =      60  mpssoang =       3    mqgrid =    3809
     natom =       9  nloc_mem =       2    nspden =       1   nspinor =       1
    nsppol =       1      nsym =      48    n1xccc =       1    ntypat =       3
    occopt =       1   xclevel =       2
-    mband =          42        mffmem =           1         mkmem =           3
       mpw =        9522          nfft =      216000          nkpt =          10
Pmy_natom=         3
 PAW method is used; the additional fine FFT grid is defined by:
   mgfftf=        96    nfftf =    884736
================================================================================
P This job should need less than                     290.342 Mbytes of memory.
  Rough estimation (10% accuracy) of disk space for files :
_ WF disk file :     61.026 Mbytes ; DEN or POT disk file :      6.752 Mbytes.
================================================================================


 DATASET    6 : space group Fm -3 m (#225); Bravais cF (face-center cubic)
================================================================================
 Values of the parameters that define the memory need for DATASET  6.
     intxc =       0    ionmov =       2      iscf =      17    lmnmax =      18
     lnmax =       6     mgfft =      60  mpssoang =       3    mqgrid =    3769
     natom =       9  nloc_mem =       2    nspden =       1   nspinor =       1
    nsppol =       1      nsym =      48    n1xccc =       1    ntypat =       3
    occopt =       1   xclevel =       2
-    mband =          42        mffmem =           1         mkmem =           3
       mpw =        9240          nfft =      216000          nkpt =          10
Pmy_natom=         3
 PAW method is used; the additional fine FFT grid is defined by:
   mgfftf=        96    nfftf =    884736
================================================================================
P This job should need less than                     290.615 Mbytes of memory.
  Rough estimation (10% accuracy) of disk space for files :
_ WF disk file :     59.218 Mbytes ; DEN or POT disk file :      6.752 Mbytes.
================================================================================


 DATASET    7 : space group Fm -3 m (#225); Bravais cF (face-center cubic)
================================================================================
 Values of the parameters that define the memory need for DATASET  7.
     intxc =       0    ionmov =       2      iscf =      17    lmnmax =      18
     lnmax =       6     mgfft =      60  mpssoang =       3    mqgrid =    3728
     natom =       9  nloc_mem =       2    nspden =       1   nspinor =       1
    nsppol =       1      nsym =      48    n1xccc =       1    ntypat =       3
    occopt =       1   xclevel =       2
-    mband =          42        mffmem =           1         mkmem =           3
       mpw =        8945          nfft =      216000          nkpt =          10
Pmy_natom=         3
 PAW method is used; the additional fine FFT grid is defined by:
   mgfftf=        96    nfftf =    884736
================================================================================
P This job should need less than                     290.898 Mbytes of memory.
  Rough estimation (10% accuracy) of disk space for files :
_ WF disk file :     57.328 Mbytes ; DEN or POT disk file :      6.752 Mbytes.
================================================================================


 DATASET    8 : space group Fm -3 m (#225); Bravais cF (face-center cubic)
================================================================================
 Values of the parameters that define the memory need for DATASET  8.
     intxc =       0    ionmov =       2      iscf =      17    lmnmax =      18
     lnmax =       6     mgfft =      60  mpssoang =       3    mqgrid =    3688
     natom =       9  nloc_mem =       2    nspden =       1   nspinor =       1
    nsppol =       1      nsym =      48    n1xccc =       1    ntypat =       3
    occopt =       1   xclevel =       2
-    mband =          42        mffmem =           1         mkmem =           3
       mpw =        8642          nfft =      216000          nkpt =          10
Pmy_natom=         3
 PAW method is used; the additional fine FFT grid is defined by:
   mgfftf=        96    nfftf =    884736
================================================================================
P This job should need less than                     291.206 Mbytes of memory.
  Rough estimation (10% accuracy) of disk space for files :
_ WF disk file :     55.386 Mbytes ; DEN or POT disk file :      6.752 Mbytes.
================================================================================


 DATASET    9 : space group Fm -3 m (#225); Bravais cF (face-center cubic)
================================================================================
 Values of the parameters that define the memory need for DATASET  9.
     intxc =       0    ionmov =       2      iscf =      17    lmnmax =      18
     lnmax =       6     mgfft =      60  mpssoang =       3    mqgrid =    3648
     natom =       9  nloc_mem =       2    nspden =       1   nspinor =       1
    nsppol =       1      nsym =      48    n1xccc =       1    ntypat =       3
    occopt =       1   xclevel =       2
-    mband =          42        mffmem =           1         mkmem =           3
       mpw =        8364          nfft =      216000          nkpt =          10
Pmy_natom=         3
 PAW method is used; the additional fine FFT grid is defined by:
   mgfftf=        90    nfftf =    729000
================================================================================
P This job should need less than                     249.813 Mbytes of memory.
  Rough estimation (10% accuracy) of disk space for files :
_ WF disk file :     53.604 Mbytes ; DEN or POT disk file :      5.564 Mbytes.
================================================================================


 DATASET   10 : space group Fm -3 m (#225); Bravais cF (face-center cubic)
================================================================================
 Values of the parameters that define the memory need for DATASET 10.
     intxc =       0    ionmov =       2      iscf =      17    lmnmax =      18
     lnmax =       6     mgfft =      60  mpssoang =       3    mqgrid =    3608
     natom =       9  nloc_mem =       2    nspden =       1   nspinor =       1
    nsppol =       1      nsym =      48    n1xccc =       1    ntypat =       3
    occopt =       1   xclevel =       2
-    mband =          42        mffmem =           1         mkmem =           3
       mpw =        8094          nfft =      216000          nkpt =          10
Pmy_natom=         3
 PAW method is used; the additional fine FFT grid is defined by:
   mgfftf=        90    nfftf =    729000
================================================================================
P This job should need less than                     250.094 Mbytes of memory.
  Rough estimation (10% accuracy) of disk space for files :
_ WF disk file :     51.874 Mbytes ; DEN or POT disk file :      5.564 Mbytes.
================================================================================

--------------------------------------------------------------------------------
------------- Echo of variables that govern the present computation ------------
--------------------------------------------------------------------------------
-
- outvars: echo of selected default values                                      
-   iomode0 =  0 , fftalg0 =112 , wfoptalg0 = 10
-
- outvars: echo of global parameters not present in the input file              
-  max_nthreads =    0
-
 -outvars: echo values of preprocessed input variables --------
            acell1     1.4844908963E+01  1.4844908963E+01  1.4844908963E+01 Bohr
            acell2     1.4694960387E+01  1.4694960387E+01  1.4694960387E+01 Bohr
            acell3     1.4545011812E+01  1.4545011812E+01  1.4545011812E+01 Bohr
            acell4     1.4395063236E+01  1.4395063236E+01  1.4395063236E+01 Bohr
            acell5     1.4245114661E+01  1.4245114661E+01  1.4245114661E+01 Bohr
            acell6     1.4095166086E+01  1.4095166086E+01  1.4095166086E+01 Bohr
            acell7     1.3945217510E+01  1.3945217510E+01  1.3945217510E+01 Bohr
            acell8     1.3795268935E+01  1.3795268935E+01  1.3795268935E+01 Bohr
            acell9     1.3645320360E+01  1.3645320360E+01  1.3645320360E+01 Bohr
            acell10    1.3495371784E+01  1.3495371784E+01  1.3495371784E+01 Bohr
              amu      1.32905430E+02  7.99040000E+01  1.78490000E+02
           diemac      1.20000000E+01
          dilatmx      1.15000000E+00
             ecut      1.60000000E+01 Hartree
           ecutsm      5.00000000E-01 Hartree
-          fftalg         112
          getxred1          0
          getxred2         -1
          getxred3         -1
          getxred4         -1
          getxred5         -1
          getxred6         -1
          getxred7         -1
          getxred8         -1
          getxred9         -1
          getxred10        -1
           ionmov           2
              ixc     -101130
           jdtset        1    2    3    4    5    6    7    8    9   10
              kpt     -1.25000000E-01 -2.50000000E-01  0.00000000E+00
                      -1.25000000E-01  5.00000000E-01  0.00000000E+00
                      -2.50000000E-01 -3.75000000E-01  0.00000000E+00
                      -1.25000000E-01 -3.75000000E-01  1.25000000E-01
                      -1.25000000E-01  2.50000000E-01  0.00000000E+00
                      -2.50000000E-01  3.75000000E-01  0.00000000E+00
                      -3.75000000E-01  5.00000000E-01  0.00000000E+00
                      -2.50000000E-01  5.00000000E-01  1.25000000E-01
                      -1.25000000E-01  0.00000000E+00  0.00000000E+00
                      -3.75000000E-01  0.00000000E+00  0.00000000E+00
         kptrlatt        4   -4    4     -4    4    4     -4   -4    4
          kptrlen1     8.39754863E+01
          kptrlen2     8.31272491E+01
          kptrlen3     8.22790119E+01
          kptrlen4     8.14307746E+01
          kptrlen5     8.05825374E+01
          kptrlen6     7.97343002E+01
          kptrlen7     7.88860629E+01
          kptrlen8     7.80378257E+01
          kptrlen9     7.71895885E+01
          kptrlen10    7.63413512E+01
P           mkmem           3
            natom           9
            nband          42
           ndtset          10
            ngfft1         64      64      64
            ngfft2         64      64      64
            ngfft3         64      64      64
            ngfft4         60      60      60
            ngfft5         60      60      60
            ngfft6         60      60      60
            ngfft7         60      60      60
            ngfft8         60      60      60
            ngfft9         60      60      60
            ngfft10        60      60      60
          ngfftdg1        100     100     100
          ngfftdg2        100     100     100
          ngfftdg3         96      96      96
          ngfftdg4         96      96      96
          ngfftdg5         96      96      96
          ngfftdg6         96      96      96
          ngfftdg7         96      96      96
          ngfftdg8         96      96      96
          ngfftdg9         90      90      90
          ngfftdg10        90      90      90
             nkpt          10
            nstep        2500
             nsym          48
            ntime        1000
           ntypat           3
              occ      2.000000  2.000000  2.000000  2.000000  2.000000  2.000000
                       2.000000  2.000000  2.000000  2.000000  2.000000  2.000000
                       2.000000  2.000000  2.000000  2.000000  2.000000  2.000000
                       2.000000  2.000000  2.000000  2.000000  2.000000  2.000000
                       2.000000  2.000000  2.000000  2.000000  2.000000  2.000000
                       2.000000  2.000000  2.000000  2.000000  2.000000  2.000000
                       0.000000  0.000000  0.000000  0.000000  0.000000  0.000000
          optcell           3
        optforces           1
        pawecutdg      4.00000000E+01 Hartree
            prtwf           0
            rprim      0.0000000000E+00  7.0710678119E-01  7.0710678119E-01
                       7.0710678119E-01  0.0000000000E+00  7.0710678119E-01
                       7.0710678119E-01  7.0710678119E-01  0.0000000000E+00
           shiftk      5.00000000E-01  5.00000000E-01  5.00000000E-01
          spgroup         225
           symrel      1  0  0   0  1  0   0  0  1      -1  0  0   0 -1  0   0  0 -1
                       0 -1  1   0 -1  0   1 -1  0       0  1 -1   0  1  0  -1  1  0
                      -1  0  0  -1  0  1  -1  1  0       1  0  0   1  0 -1   1 -1  0
                       0  1 -1   1  0 -1   0  0 -1       0 -1  1  -1  0  1   0  0  1
                      -1  0  0  -1  1  0  -1  0  1       1  0  0   1 -1  0   1  0 -1
                       0 -1  1   1 -1  0   0 -1  0       0  1 -1  -1  1  0   0  1  0
                       1  0  0   0  0  1   0  1  0      -1  0  0   0  0 -1   0 -1  0
                       0  1 -1   0  0 -1   1  0 -1       0 -1  1   0  0  1  -1  0  1
                      -1  0  1  -1  1  0  -1  0  0       1  0 -1   1 -1  0   1  0  0
                       0 -1  0   1 -1  0   0 -1  1       0  1  0  -1  1  0   0  1 -1
                       1  0 -1   0  0 -1   0  1 -1      -1  0  1   0  0  1   0 -1  1
                       0  1  0   0  0  1   1  0  0       0 -1  0   0  0 -1  -1  0  0
                       1  0 -1   0  1 -1   0  0 -1      -1  0  1   0 -1  1   0  0  1
                       0 -1  0   0 -1  1   1 -1  0       0  1  0   0  1 -1  -1  1  0
                      -1  0  1  -1  0  0  -1  1  0       1  0 -1   1  0  0   1 -1  0
                       0  1  0   1  0  0   0  0  1       0 -1  0  -1  0  0   0  0 -1
                       0  0 -1   0  1 -1   1  0 -1       0  0  1   0 -1  1  -1  0  1
                       1 -1  0   0 -1  1   0 -1  0      -1  1  0   0  1 -1   0  1  0
                       0  0  1   1  0  0   0  1  0       0  0 -1  -1  0  0   0 -1  0
                      -1  1  0  -1  0  0  -1  0  1       1 -1  0   1  0  0   1  0 -1
                       0  0  1   0  1  0   1  0  0       0  0 -1   0 -1  0  -1  0  0
                       1 -1  0   0 -1  0   0 -1  1      -1  1  0   0  1  0   0  1 -1
                       0  0 -1   1  0 -1   0  1 -1       0  0  1  -1  0  1   0 -1  1
                      -1  1  0  -1  0  1  -1  0  0       1 -1  0   1  0 -1   1  0  0
           toldff      1.00000000E-08
           tolmxf      1.00000000E-06
            typat      1  1  2  2  2  2  2  2  3
           useylm           1
              wtk        0.09375    0.09375    0.09375    0.18750    0.09375    0.09375
                         0.09375    0.18750    0.03125    0.03125
           xangst1     2.7773695910E+00  2.7773695910E+00  2.7773695910E+00
                       8.3321087730E+00  8.3321087730E+00  8.3321087730E+00
                       5.5547391820E+00  8.5068957120E+00  5.5547391820E+00
                       5.5547391820E+00  5.5547391820E+00  2.6025826520E+00
                       5.5547391820E+00  5.5547391820E+00  8.5068957120E+00
                       5.5547391820E+00  2.6025826520E+00  5.5547391820E+00
                       8.5068957120E+00  5.5547391820E+00  5.5547391820E+00
                       2.6025826520E+00  5.5547391820E+00  5.5547391820E+00
                       1.5774312483E-18 -5.9125014559E-19  1.7824133067E-18
           xangst2     2.7493153527E+00  2.7493153527E+00  2.7493153527E+00
                       8.2479460581E+00  8.2479460581E+00  8.2479460581E+00
                       5.4986307054E+00  8.4209674725E+00  5.4986307054E+00
                       5.4986307054E+00  5.4986307054E+00  2.5762939384E+00
                       5.4986307054E+00  5.4986307054E+00  8.4209674725E+00
                       5.4986307054E+00  2.5762939384E+00  5.4986307054E+00
                       8.4209674725E+00  5.4986307054E+00  5.4986307054E+00
                       2.5762939384E+00  5.4986307054E+00  5.4986307054E+00
                       1.5614975993E-18 -5.8527792190E-19  1.7644091319E-18
           xangst3     2.7212611144E+00  2.7212611144E+00  2.7212611144E+00
                       8.1637833433E+00  8.1637833433E+00  8.1637833433E+00
                       5.4425222288E+00  8.3350392330E+00  5.4425222288E+00
                       5.4425222288E+00  5.4425222288E+00  2.5500052247E+00
                       5.4425222288E+00  5.4425222288E+00  8.3350392330E+00
                       5.4425222288E+00  2.5500052247E+00  5.4425222288E+00
                       8.3350392330E+00  5.4425222288E+00  5.4425222288E+00
                       2.5500052247E+00  5.4425222288E+00  5.4425222288E+00
                       1.5455639503E-18 -5.7930569820E-19  1.7464049571E-18
           xangst4     2.6932068761E+00  2.6932068761E+00  2.6932068761E+00
                       8.0796206284E+00  8.0796206284E+00  8.0796206284E+00
                       5.3864137523E+00  8.2491109935E+00  5.3864137523E+00
                       5.3864137523E+00  5.3864137523E+00  2.5237165110E+00
                       5.3864137523E+00  5.3864137523E+00  8.2491109935E+00
                       5.3864137523E+00  2.5237165110E+00  5.3864137523E+00
                       8.2491109935E+00  5.3864137523E+00  5.3864137523E+00
                       2.5237165110E+00  5.3864137523E+00  5.3864137523E+00
                       1.5296303014E-18 -5.7333347451E-19  1.7284007822E-18
           xangst5     2.6651526378E+00  2.6651526378E+00  2.6651526378E+00
                       7.9954579135E+00  7.9954579135E+00  7.9954579135E+00
                       5.3303052757E+00  8.1631827540E+00  5.3303052757E+00
                       5.3303052757E+00  5.3303052757E+00  2.4974277974E+00
                       5.3303052757E+00  5.3303052757E+00  8.1631827540E+00
                       5.3303052757E+00  2.4974277974E+00  5.3303052757E+00
                       8.1631827540E+00  5.3303052757E+00  5.3303052757E+00
                       2.4974277974E+00  5.3303052757E+00  5.3303052757E+00
                       1.5136966524E-18 -5.6736125082E-19  1.7103966074E-18
           xangst6     2.6370983995E+00  2.6370983995E+00  2.6370983995E+00
                       7.9112951986E+00  7.9112951986E+00  7.9112951986E+00
                       5.2741967991E+00  8.0772545144E+00  5.2741967991E+00
                       5.2741967991E+00  5.2741967991E+00  2.4711390837E+00
                       5.2741967991E+00  5.2741967991E+00  8.0772545144E+00
                       5.2741967991E+00  2.4711390837E+00  5.2741967991E+00
                       8.0772545144E+00  5.2741967991E+00  5.2741967991E+00
                       2.4711390837E+00  5.2741967991E+00  5.2741967991E+00
                       1.4977630034E-18 -5.6138902712E-19  1.6923924326E-18
           xangst7     2.6090441612E+00  2.6090441612E+00  2.6090441612E+00
                       7.8271324837E+00  7.8271324837E+00  7.8271324837E+00
                       5.2180883225E+00  7.9913262749E+00  5.2180883225E+00
                       5.2180883225E+00  5.2180883225E+00  2.4448503701E+00
                       5.2180883225E+00  5.2180883225E+00  7.9913262749E+00
                       5.2180883225E+00  2.4448503701E+00  5.2180883225E+00
                       7.9913262749E+00  5.2180883225E+00  5.2180883225E+00
                       2.4448503701E+00  5.2180883225E+00  5.2180883225E+00
                       1.4818293544E-18 -5.5541680343E-19  1.6743882578E-18
           xangst8     2.5809899230E+00  2.5809899230E+00  2.5809899230E+00
                       7.7429697689E+00  7.7429697689E+00  7.7429697689E+00
                       5.1619798459E+00  7.9053980354E+00  5.1619798459E+00
                       5.1619798459E+00  5.1619798459E+00  2.4185616564E+00
                       5.1619798459E+00  5.1619798459E+00  7.9053980354E+00
                       5.1619798459E+00  2.4185616564E+00  5.1619798459E+00
                       7.9053980354E+00  5.1619798459E+00  5.1619798459E+00
                       2.4185616564E+00  5.1619798459E+00  5.1619798459E+00
                       1.4658957055E-18 -5.4944457974E-19  1.6563840830E-18
           xangst9     2.5529356847E+00  2.5529356847E+00  2.5529356847E+00
                       7.6588070540E+00  7.6588070540E+00  7.6588070540E+00
                       5.1058713693E+00  7.8194697959E+00  5.1058713693E+00
                       5.1058713693E+00  5.1058713693E+00  2.3922729428E+00
                       5.1058713693E+00  5.1058713693E+00  7.8194697959E+00
                       5.1058713693E+00  2.3922729428E+00  5.1058713693E+00
                       7.8194697959E+00  5.1058713693E+00  5.1058713693E+00
                       2.3922729428E+00  5.1058713693E+00  5.1058713693E+00
                       1.4499620565E-18 -5.4347235605E-19  1.6383799082E-18
           xangst10    2.5248814464E+00  2.5248814464E+00  2.5248814464E+00
                       7.5746443391E+00  7.5746443391E+00  7.5746443391E+00
                       5.0497628927E+00  7.7335415564E+00  5.0497628927E+00
                       5.0497628927E+00  5.0497628927E+00  2.3659842291E+00
                       5.0497628927E+00  5.0497628927E+00  7.7335415564E+00
                       5.0497628927E+00  2.3659842291E+00  5.0497628927E+00
                       7.7335415564E+00  5.0497628927E+00  5.0497628927E+00
                       2.3659842291E+00  5.0497628927E+00  5.0497628927E+00
                       1.4340284075E-18 -5.3750013235E-19  1.6203757333E-18
            xcart1     5.2484678968E+00  5.2484678968E+00  5.2484678968E+00
                       1.5745403690E+01  1.5745403690E+01  1.5745403690E+01
                       1.0496935794E+01  1.6075703137E+01  1.0496935794E+01
                       1.0496935794E+01  1.0496935794E+01  4.9181684505E+00
                       1.0496935794E+01  1.0496935794E+01  1.6075703137E+01
                       1.0496935794E+01  4.9181684505E+00  1.0496935794E+01
                       1.6075703137E+01  1.0496935794E+01  1.0496935794E+01
                       4.9181684505E+00  1.0496935794E+01  1.0496935794E+01
                       2.9809130527E-18 -1.1173008512E-18  3.3682730052E-18
            xcart2     5.1954530696E+00  5.1954530696E+00  5.1954530696E+00
                       1.5586359209E+01  1.5586359209E+01  1.5586359209E+01
                       1.0390906139E+01  1.5913322297E+01  1.0390906139E+01
                       1.0390906139E+01  1.0390906139E+01  4.8684899813E+00
                       1.0390906139E+01  1.0390906139E+01  1.5913322297E+01
                       1.0390906139E+01  4.8684899813E+00  1.0390906139E+01
                       1.5913322297E+01  1.0390906139E+01  1.0390906139E+01
                       4.8684899813E+00  1.0390906139E+01  1.0390906139E+01
                       2.9508028198E-18 -1.1060149840E-18  3.3342500456E-18
            xcart3     5.1424382423E+00  5.1424382423E+00  5.1424382423E+00
                       1.5427314727E+01  1.5427314727E+01  1.5427314727E+01
                       1.0284876485E+01  1.5750941457E+01  1.0284876485E+01
                       1.0284876485E+01  1.0284876485E+01  4.8188115121E+00
                       1.0284876485E+01  1.0284876485E+01  1.5750941457E+01
                       1.0284876485E+01  4.8188115121E+00  1.0284876485E+01
                       1.5750941457E+01  1.0284876485E+01  1.0284876485E+01
                       4.8188115121E+00  1.0284876485E+01  1.0284876485E+01
                       2.9206925870E-18 -1.0947291168E-18  3.3002270859E-18
            xcart4     5.0894234151E+00  5.0894234151E+00  5.0894234151E+00
                       1.5268270245E+01  1.5268270245E+01  1.5268270245E+01
                       1.0178846830E+01  1.5588560617E+01  1.0178846830E+01
                       1.0178846830E+01  1.0178846830E+01  4.7691330429E+00
                       1.0178846830E+01  1.0178846830E+01  1.5588560617E+01
                       1.0178846830E+01  4.7691330429E+00  1.0178846830E+01
                       1.5588560617E+01  1.0178846830E+01  1.0178846830E+01
                       4.7691330429E+00  1.0178846830E+01  1.0178846830E+01
                       2.8905823541E-18 -1.0834432496E-18  3.2662041263E-18
            xcart5     5.0364085878E+00  5.0364085878E+00  5.0364085878E+00
                       1.5109225764E+01  1.5109225764E+01  1.5109225764E+01
                       1.0072817176E+01  1.5426179778E+01  1.0072817176E+01
                       1.0072817176E+01  1.0072817176E+01  4.7194545737E+00
                       1.0072817176E+01  1.0072817176E+01  1.5426179778E+01
                       1.0072817176E+01  4.7194545737E+00  1.0072817176E+01
                       1.5426179778E+01  1.0072817176E+01  1.0072817176E+01
                       4.7194545737E+00  1.0072817176E+01  1.0072817176E+01
                       2.8604721213E-18 -1.0721573825E-18  3.2321811666E-18
            xcart6     4.9833937606E+00  4.9833937606E+00  4.9833937606E+00
                       1.4950181282E+01  1.4950181282E+01  1.4950181282E+01
                       9.9667875212E+00  1.5263798938E+01  9.9667875212E+00
                       9.9667875212E+00  9.9667875212E+00  4.6697761045E+00
                       9.9667875212E+00  9.9667875212E+00  1.5263798938E+01
                       9.9667875212E+00  4.6697761045E+00  9.9667875212E+00
                       1.5263798938E+01  9.9667875212E+00  9.9667875212E+00
                       4.6697761045E+00  9.9667875212E+00  9.9667875212E+00
                       2.8303618884E-18 -1.0608715153E-18  3.1981582070E-18
            xcart7     4.9303789334E+00  4.9303789334E+00  4.9303789334E+00
                       1.4791136800E+01  1.4791136800E+01  1.4791136800E+01
                       9.8607578667E+00  1.5101418098E+01  9.8607578667E+00
                       9.8607578667E+00  9.8607578667E+00  4.6200976353E+00
                       9.8607578667E+00  9.8607578667E+00  1.5101418098E+01
                       9.8607578667E+00  4.6200976353E+00  9.8607578667E+00
                       1.5101418098E+01  9.8607578667E+00  9.8607578667E+00
                       4.6200976353E+00  9.8607578667E+00  9.8607578667E+00
                       2.8002516556E-18 -1.0495856481E-18  3.1641352473E-18
            xcart8     4.8773641061E+00  4.8773641061E+00  4.8773641061E+00
                       1.4632092318E+01  1.4632092318E+01  1.4632092318E+01
                       9.7547282122E+00  1.4939037258E+01  9.7547282122E+00
                       9.7547282122E+00  9.7547282122E+00  4.5704191661E+00
                       9.7547282122E+00  9.7547282122E+00  1.4939037258E+01
                       9.7547282122E+00  4.5704191661E+00  9.7547282122E+00
                       1.4939037258E+01  9.7547282122E+00  9.7547282122E+00
                       4.5704191661E+00  9.7547282122E+00  9.7547282122E+00
                       2.7701414227E-18 -1.0382997809E-18  3.1301122877E-18
            xcart9     4.8243492789E+00  4.8243492789E+00  4.8243492789E+00
                       1.4473047837E+01  1.4473047837E+01  1.4473047837E+01
                       9.6486985578E+00  1.4776656419E+01  9.6486985578E+00
                       9.6486985578E+00  9.6486985578E+00  4.5207406969E+00
                       9.6486985578E+00  9.6486985578E+00  1.4776656419E+01
                       9.6486985578E+00  4.5207406969E+00  9.6486985578E+00
                       1.4776656419E+01  9.6486985578E+00  9.6486985578E+00
                       4.5207406969E+00  9.6486985578E+00  9.6486985578E+00
                       2.7400311899E-18 -1.0270139137E-18  3.0960893281E-18
            xcart10    4.7713344516E+00  4.7713344516E+00  4.7713344516E+00
                       1.4314003355E+01  1.4314003355E+01  1.4314003355E+01
                       9.5426689033E+00  1.4614275579E+01  9.5426689033E+00
                       9.5426689033E+00  9.5426689033E+00  4.4710622277E+00
                       9.5426689033E+00  9.5426689033E+00  1.4614275579E+01
                       9.5426689033E+00  4.4710622277E+00  9.5426689033E+00
                       1.4614275579E+01  9.5426689033E+00  9.5426689033E+00
                       4.4710622277E+00  9.5426689033E+00  9.5426689033E+00
                       2.7099209570E-18 -1.0157280465E-18  3.0620663684E-18
             xred      2.5000000000E-01  2.5000000000E-01  2.5000000000E-01
                       7.5000000000E-01  7.5000000000E-01  7.5000000000E-01
                       7.6573313645E-01  2.3426686355E-01  7.6573313645E-01
                       2.3426686355E-01  2.3426686355E-01  7.6573313645E-01
                       7.6573313645E-01  7.6573313645E-01  2.3426686355E-01
                       2.3426686355E-01  7.6573313645E-01  2.3426686355E-01
                       2.3426686355E-01  7.6573313645E-01  7.6573313645E-01
                       7.6573313645E-01  2.3426686355E-01  2.3426686355E-01
                      -3.4769237090E-20  3.5565078495E-19 -7.1671430278E-20
            znucl       55.00000   35.00000   72.00000

================================================================================

 chkinp: Checking input parameters for consistency, jdtset=   1.

 chkinp: Checking input parameters for consistency, jdtset=   2.

 chkinp: Checking input parameters for consistency, jdtset=   3.

 chkinp: Checking input parameters for consistency, jdtset=   4.

 chkinp: Checking input parameters for consistency, jdtset=   5.

 chkinp: Checking input parameters for consistency, jdtset=   6.

 chkinp: Checking input parameters for consistency, jdtset=   7.

 chkinp: Checking input parameters for consistency, jdtset=   8.

 chkinp: Checking input parameters for consistency, jdtset=   9.

 chkinp: Checking input parameters for consistency, jdtset=  10.

================================================================================
== DATASET  1 ==================================================================
-   mpi_nproc: 4, omp_nthreads: -1 (-1 if OMP is not activated)


--- !DatasetInfo
iteration_state: {dtset: 1, }
dimensions: {natom: 9, nkpt: 10, mband: 42, nsppol: 1, nspinor: 1, nspden: 1, mpw: 10792, }
cutoff_energies: {ecut:  16.0, pawecutdg:  40.0, }
electrons: {nelect:   7.20000000E+01, charge:   0.00000000E+00, occopt:   1.00000000E+00, tsmear:   1.00000000E-02, }
meta: {optdriver: 0, ionmov: 2, optcell: 3, iscf: 17, paral_kgb: 0, }
...

 Real(R)+Recip(G) space primitive vectors, cartesian coordinates (Bohr,Bohr^-1):
 R(1)=  0.0000000 10.4969358 10.4969358  G(1)= -0.0476329  0.0476329  0.0476329
 R(2)= 10.4969358  0.0000000 10.4969358  G(2)=  0.0476329 -0.0476329  0.0476329
 R(3)= 10.4969358 10.4969358  0.0000000  G(3)=  0.0476329  0.0476329 -0.0476329
 Unit cell volume ucvol=  2.3132236E+03 bohr^3
 Angles (23,13,12)=  6.00000000E+01  6.00000000E+01  6.00000000E+01 degrees

 Coarse grid specifications (used for wave-functions):

 getcut: wavevector=  0.0000  0.0000  0.0000  ngfft=  64  64  64
         ecut(hartree)=     21.160   => boxcut(ratio)=   2.08199

 Fine grid specifications (used for densities):

 getcut: wavevector=  0.0000  0.0000  0.0000  ngfft= 100 100 100
         ecut(hartree)=     52.900   => boxcut(ratio)=   2.05745

--- Pseudopotential description ------------------------------------------------
- pspini: atom type   1  psp file is ../../../Psps_for_tests/ATOMICDATA/Cs.GGA_PBE-JTH.xml
- pspatm: opening atomic psp file    ../../../Psps_for_tests/ATOMICDATA/Cs.GGA_PBE-JTH.xml
- pspatm : Reading pseudopotential header in XML form from ../../../Psps_for_tests/ATOMICDATA/Cs.GGA_PBE-JTH.xml
 Pseudopotential format is: paw10
 basis_size (lnmax)=  6 (lmn_size= 18), orbitals=   0   0   1   1   2   2
 Spheres core radius: rc_sph= 2.20660278
 1 radial meshes are used:
  - mesh 1: r(i)=AA*[exp(BB*(i-1))-1], size=1500 , AA= 0.15922E-03 BB= 0.87573E-02
 Shapefunction is SIN type: shapef(r)=[sin(pi*r/rshp)/(pi*r/rshp)]**2
 Radius for shape functions =  2.00394208
 mmax= 1500
 Radial grid used for partial waves is grid 1
 Radial grid used for projectors is grid 1
 Radial grid used for (t)core density is grid 1
 Radial grid used for Vloc is grid 1
 Radial grid used for pseudo valence density is grid 1
 Mesh size for Vloc has been set to 1341 to avoid numerical noise.
 Compensation charge density is not taken into account in XC energy/potential
 pspatm: atomic psp has been read  and splines computed

- pspini: atom type   2  psp file is ../../../Psps_for_tests/ATOMICDATA/Br.GGA_PBE-JTH.xml
- pspatm: opening atomic psp file    ../../../Psps_for_tests/ATOMICDATA/Br.GGA_PBE-JTH.xml
- pspatm : Reading pseudopotential header in XML form from ../../../Psps_for_tests/ATOMICDATA/Br.GGA_PBE-JTH.xml
 Pseudopotential format is: paw10
 basis_size (lnmax)=  4 (lmn_size=  8), orbitals=   0   0   1   1
 Spheres core radius: rc_sph= 2.20000000
 1 radial meshes are used:
  - mesh 1: r(i)=AA*[exp(BB*(i-1))-1], size= 927 , AA= 0.40483E-03 BB= 0.14169E-01
 Shapefunction is BESSEL type: shapef(r,l)=aa(1,l)*jl(q(1,l)*r)+aa(2,l)*jl(q(2,l)*r)
 Radius for shape functions =  2.02066386
 mmax=  927
 Radial grid used for partial waves is grid 1
 Radial grid used for projectors is grid 1
 Radial grid used for (t)core density is grid 1
 Radial grid used for Vloc is grid 1
 Radial grid used for pseudo valence density is grid 1
 Mesh size for Vloc has been set to  763 to avoid numerical noise.
 Compensation charge density is not taken into account in XC energy/potential
 pspatm: atomic psp has been read  and splines computed

- pspini: atom type   3  psp file is ../../../Psps_for_tests/ATOMICDATA/Hf.GGA_PBE-JTH.xml
- pspatm: opening atomic psp file    ../../../Psps_for_tests/ATOMICDATA/Hf.GGA_PBE-JTH.xml
- pspatm : Reading pseudopotential header in XML form from ../../../Psps_for_tests/ATOMICDATA/Hf.GGA_PBE-JTH.xml
 Pseudopotential format is: paw10
 basis_size (lnmax)=  6 (lmn_size= 18), orbitals=   0   0   1   1   2   2
 Spheres core radius: rc_sph= 2.41000000
 1 radial meshes are used:
  - mesh 1: r(i)=AA*[exp(BB*(i-1))-1], size= 972 , AA= 0.19796E-03 BB= 0.14253E-01
 Shapefunction is SIN type: shapef(r)=[sin(pi*r/rshp)/(pi*r/rshp)]**2
 Radius for shape functions =  2.41000000
 mmax=  972
 Radial grid used for partial waves is grid 1
 Radial grid used for projectors is grid 1
 Radial grid used for (t)core density is grid 1
 Radial grid used for Vloc is grid 1
 Radial grid used for pseudo valence density is grid 1
 Mesh size for Vloc has been set to  809 to avoid numerical noise.
 Compensation charge density is not taken into account in XC energy/potential
 pspatm: atomic psp has been read  and splines computed

   2.70510764E+04                                ecore*ucvol(ha*bohr**3)
--------------------------------------------------------------------------------

_setup2: Arith. and geom. avg. npw (full set) are   10751.875   10751.869

================================================================================

=== [ionmov= 2] Broyden-Fletcher-Goldfard-Shanno method (forces)            
================================================================================

--- Iteration: (   1/1000) Internal Cycle: (1/1)
--------------------------------------------------------------------------------

---SELF-CONSISTENT-FIELD CONVERGENCE--------------------------------------------

--- !BeginCycle
iteration_state: {dtset: 1, itime: 1, icycle: 1, }
solver: {iscf: 17, nstep: 2500, nline: 4, wfoptalg: 10, }
tolerances: {toldff: 1.00E-08, }
...

     iter   Etot(hartree)      deltaE(h)  residm     nres2    diffor    maxfor
 ETOT  1  -171.93814641752    -1.719E+02 3.372E+00 1.105E+01 1.203E-03 1.203E-03
 ETOT  2  -173.11224752516    -1.174E+00 1.744E-02 2.397E+00 1.591E-02 1.711E-02
 ETOT  3  -173.10722107493     5.026E-03 7.404E-03 4.567E-01 4.533E-03 2.165E-02
 ETOT  4  -173.10770670572    -4.856E-04 2.864E-03 7.015E-02 3.100E-02 9.356E-03
 ETOT  5  -173.10780713570    -1.004E-04 1.428E-03 8.743E-03 7.795E-03 1.561E-03
 ETOT  6  -173.10785929885    -5.216E-05 1.068E-03 9.853E-04 3.389E-03 4.950E-03
 ETOT  7  -173.10786646724    -7.168E-06 1.084E-03 2.615E-04 3.696E-04 5.320E-03
 ETOT  8  -173.10786822415    -1.757E-06 1.555E-03 5.196E-06 4.268E-06 5.324E-03
 ETOT  9  -173.10786828349    -5.933E-08 1.059E-03 1.067E-06 5.890E-05 5.265E-03
 ETOT 10  -173.10786829012    -6.629E-09 1.128E-03 1.397E-07 2.321E-06 5.267E-03
 ETOT 11  -173.10786828928     8.353E-10 4.563E-04 3.221E-08 1.988E-06 5.269E-03
 ETOT 12  -173.10786828891     3.697E-10 4.635E-04 3.192E-09 4.334E-07 5.269E-03
 ETOT 13  -173.10786828904    -1.241E-10 1.967E-04 3.439E-10 5.086E-07 5.268E-03
 ETOT 14  -173.10786828911    -6.960E-11 1.604E-04 4.792E-11 4.920E-07 5.268E-03
 ETOT 15  -173.10786828908     2.987E-11 1.892E-04 1.583E-12 2.552E-07 5.268E-03
 ETOT 16  -173.10786828907     9.379E-12 1.578E-04 2.045E-13 1.140E-08 5.268E-03
 ETOT 17  -173.10786828908    -1.839E-11 2.245E-04 9.204E-15 5.982E-09 5.268E-03
 ETOT 18  -173.10786828909    -1.847E-12 1.771E-04 1.804E-15 1.638E-09 5.268E-03

 At SCF step   18, forces are converged : 
  for the second time, max diff in force=  1.638E-09 < toldff=  1.000E-08

 Cartesian components of stress tensor (hartree/bohr^3)
  sigma(1 1)= -2.91812016E-05  sigma(3 2)=  0.00000000E+00
  sigma(2 2)= -2.91812016E-05  sigma(3 1)=  0.00000000E+00
  sigma(3 3)= -2.91812016E-05  sigma(2 1)=  0.00000000E+00


--- !ResultsGS
iteration_state: {dtset: 1, itime: 1, icycle: 1, }
comment   : Summary of ground state results
lattice_vectors:
- [  0.0000000,  10.4969358,  10.4969358, ]
- [ 10.4969358,   0.0000000,  10.4969358, ]
- [ 10.4969358,  10.4969358,   0.0000000, ]
lattice_lengths: [  14.84491,   14.84491,   14.84491, ]
lattice_angles: [ 60.000,  60.000,  60.000, ] # degrees, (23, 13, 12)
lattice_volume:   2.3132236E+03
convergence: {deltae: -1.847E-12, res2:  1.804E-15, residm:  1.771E-04, diffor:  1.638E-09, }
etotal    :  -1.73107868E+02
entropy   :   0.00000000E+00
fermie    :  -7.80473955E-02
cartesian_stress_tensor: # hartree/bohr^3
- [ -2.91812016E-05,   0.00000000E+00,   0.00000000E+00, ]
- [  0.00000000E+00,  -2.91812016E-05,   0.00000000E+00, ]
- [  0.00000000E+00,   0.00000000E+00,  -2.91812016E-05, ]
pressure_GPa:   8.5854E-01
xred      :
- [  2.5000E-01,   2.5000E-01,   2.5000E-01, Cs]
- [  7.5000E-01,   7.5000E-01,   7.5000E-01, Cs]
- [  7.6573E-01,   2.3427E-01,   7.6573E-01, Br]
- [  2.3427E-01,   2.3427E-01,   7.6573E-01, Br]
- [  7.6573E-01,   7.6573E-01,   2.3427E-01, Br]
- [  2.3427E-01,   7.6573E-01,   2.3427E-01, Br]
- [  2.3427E-01,   7.6573E-01,   7.6573E-01, Br]
- [  7.6573E-01,   2.3427E-01,   2.3427E-01, Br]
- [ -3.4769E-20,   3.5565E-19,  -7.1671E-20, Hf]
cartesian_forces: # hartree/bohr
- [ -0.00000000E+00,  -0.00000000E+00,  -1.26359514E-19, ]
- [  8.14141699E-32,  -8.14141699E-32,  -1.26359514E-19, ]
- [  2.69873889E-19,  -5.26771951E-03,  -3.96233403E-19, ]
- [ -6.06460856E-20,   6.06460856E-20,   5.26771951E-03, ]
- [  1.63806980E-19,  -1.63806980E-19,  -5.26771951E-03, ]
- [ -2.69873889E-19,   5.26771951E-03,   1.43514375E-19, ]
- [ -5.26771951E-03,   2.90911180E-19,  -4.17270695E-19, ]
- [  5.26771951E-03,  -2.90911180E-19,   1.64551666E-19, ]
- [ -0.00000000E+00,  -0.00000000E+00,  -1.26359514E-19, ]
force_length_stats: {min:   1.26359514E-19, max:   5.26771951E-03, mean:   3.51181301E-03, }
...

 Integrated electronic density in atomic spheres:
 ------------------------------------------------
 Atom  Sphere_radius  Integrated_density
    1        2.20660          5.35286139
    2        2.20660          5.35286139
    3        2.20000          4.94592085
    4        2.20000          4.94592085
    5        2.20000          4.94592085
    6        2.20000          4.94592085
    7        2.20000          4.94592085
    8        2.20000          4.94592085
    9        2.41000          9.31531707

 PAW TEST:
 ==== Compensation charge inside spheres ============
 The following values must be close to each other ...
 Compensation charge over spherical meshes =     -0.266185044969282
 Compensation charge over fine fft grid    =     -0.266177735145880

 ==== Results concerning PAW augmentation regions ====

 Total pseudopotential strength Dij (hartree):
 Atom #  1
   0.43032  -0.14256   0.00000   0.00000   0.00000   0.00000   0.00000   0.00000   0.00000   0.00000   0.00000   0.00000 ...
  -0.14256   0.04289   0.00000   0.00000   0.00000   0.00000   0.00000   0.00000   0.00000   0.00000   0.00000   0.00000 ...
   0.00000   0.00000  -0.09237   0.00000   0.00000  -0.16727   0.00000   0.00000   0.00000   0.00000   0.00000  -0.00000 ...
   0.00000   0.00000   0.00000  -0.09237   0.00000   0.00000  -0.16727   0.00000  -0.00000   0.00000   0.00000   0.00000 ...
   0.00000   0.00000   0.00000   0.00000  -0.09237   0.00000   0.00000  -0.16727   0.00000  -0.00000   0.00000   0.00000 ...
   0.00000   0.00000  -0.16727   0.00000   0.00000   0.40098   0.00000   0.00000   0.00000   0.00000   0.00000   0.00000 ...
   0.00000   0.00000   0.00000  -0.16727   0.00000   0.00000   0.40098   0.00000   0.00000   0.00000   0.00000   0.00000 ...
   0.00000   0.00000   0.00000   0.00000  -0.16727   0.00000   0.00000   0.40098   0.00000   0.00000   0.00000   0.00000 ...
   0.00000   0.00000   0.00000  -0.00000   0.00000   0.00000   0.00000   0.00000   0.00540   0.00000   0.00000   0.00000 ...
   0.00000   0.00000   0.00000   0.00000  -0.00000   0.00000   0.00000   0.00000   0.00000   0.00540   0.00000   0.00000 ...
   0.00000   0.00000   0.00000   0.00000   0.00000   0.00000   0.00000   0.00000   0.00000   0.00000   0.00540   0.00000 ...
   0.00000   0.00000  -0.00000   0.00000   0.00000   0.00000   0.00000   0.00000   0.00000   0.00000   0.00000   0.00540 ...
   ...  only 12  components have been written...
 Atom #  9
  -3.50203   0.42239   0.00000   0.00000   0.00000   0.00000   0.00000   0.00000   0.00000   0.00000   0.00000   0.00000 ...
   0.42239   0.00400   0.00000   0.00000   0.00000   0.00000   0.00000   0.00000   0.00000   0.00000   0.00000   0.00000 ...
   0.00000   0.00000  -1.42923   0.00000   0.00000   0.11800   0.00000   0.00000   0.00000   0.00000   0.00000   0.00000 ...
   0.00000   0.00000   0.00000  -1.42923   0.00000   0.00000   0.11800   0.00000   0.00000   0.00000   0.00000   0.00000 ...
   0.00000   0.00000   0.00000   0.00000  -1.42923   0.00000   0.00000   0.11800   0.00000   0.00000   0.00000   0.00000 ...
   0.00000   0.00000   0.11800   0.00000   0.00000   0.01428   0.00000   0.00000   0.00000   0.00000   0.00000   0.00000 ...
   0.00000   0.00000   0.00000   0.11800   0.00000   0.00000   0.01428   0.00000   0.00000   0.00000   0.00000   0.00000 ...
   0.00000   0.00000   0.00000   0.00000   0.11800   0.00000   0.00000   0.01428   0.00000   0.00000   0.00000   0.00000 ...
   0.00000   0.00000   0.00000   0.00000   0.00000   0.00000   0.00000   0.00000  -0.38886   0.00000   0.00000   0.00000 ...
   0.00000   0.00000   0.00000   0.00000   0.00000   0.00000   0.00000   0.00000   0.00000  -0.38886   0.00000   0.00000 ...
   0.00000   0.00000   0.00000   0.00000   0.00000   0.00000   0.00000   0.00000   0.00000   0.00000  -0.38821   0.00000 ...
   0.00000   0.00000   0.00000   0.00000   0.00000   0.00000   0.00000   0.00000   0.00000   0.00000   0.00000  -0.38886 ...
   ...  only 12  components have been written...


 Augmentation waves occupancies Rhoij:
 Atom #  1
   1.99731  -0.01587   0.00000   0.00000   0.00000   0.00000   0.00000   0.00000   0.00000   0.00000   0.00000   0.00000 ...
  -0.01587   0.12227   0.00000   0.00000   0.00000   0.00000   0.00000   0.00000   0.00000   0.00000   0.00000   0.00000 ...
   0.00000   0.00000   2.00944   0.00000   0.00000  -0.00505   0.00000   0.00000   0.00000   0.00000   0.00000   0.00173 ...
   0.00000   0.00000   0.00000   2.00944   0.00000   0.00000  -0.00505   0.00000   0.00173   0.00000   0.00000   0.00000 ...
   0.00000   0.00000   0.00000   0.00000   2.00944   0.00000   0.00000  -0.00505   0.00000   0.00173   0.00000   0.00000 ...
   0.00000   0.00000  -0.00505   0.00000   0.00000   0.00009   0.00000   0.00000   0.00000   0.00000   0.00000  -0.00011 ...
   0.00000   0.00000   0.00000  -0.00505   0.00000   0.00000   0.00009   0.00000  -0.00011   0.00000   0.00000   0.00000 ...
   0.00000   0.00000   0.00000   0.00000  -0.00505   0.00000   0.00000   0.00009   0.00000  -0.00011   0.00000   0.00000 ...
   0.00000   0.00000   0.00000   0.00173   0.00000   0.00000  -0.00011   0.00000   0.03884   0.00000   0.00000   0.00000 ...
   0.00000   0.00000   0.00000   0.00000   0.00173   0.00000   0.00000  -0.00011   0.00000   0.03884   0.00000   0.00000 ...
   0.00000   0.00000   0.00000   0.00000   0.00000   0.00000   0.00000   0.00000   0.00000   0.00000   0.02456   0.00000 ...
   0.00000   0.00000   0.00173   0.00000   0.00000  -0.00011   0.00000   0.00000   0.00000   0.00000   0.00000   0.03884 ...
   ...  only 12  components have been written...
 Atom #  9
   1.99787  -0.02189   0.00000   0.00000   0.00000   0.00000   0.00000   0.00000   0.00000   0.00000   0.00000   0.00000 ...
  -0.02189   1.01578   0.00000   0.00000   0.00000   0.00000   0.00000   0.00000   0.00000   0.00000   0.00000   0.00000 ...
   0.00000   0.00000   1.99242   0.00000   0.00000  -0.06593   0.00000   0.00000   0.00000   0.00000   0.00000   0.00000 ...
   0.00000   0.00000   0.00000   1.99242   0.00000   0.00000  -0.06593   0.00000   0.00000   0.00000   0.00000   0.00000 ...
   0.00000   0.00000   0.00000   0.00000   1.99242   0.00000   0.00000  -0.06593   0.00000   0.00000   0.00000   0.00000 ...
   0.00000   0.00000  -0.06593   0.00000   0.00000   1.35960   0.00000   0.00000   0.00000   0.00000   0.00000   0.00000 ...
   0.00000   0.00000   0.00000  -0.06593   0.00000   0.00000   1.35960   0.00000   0.00000   0.00000   0.00000   0.00000 ...
   0.00000   0.00000   0.00000   0.00000  -0.06593   0.00000   0.00000   1.35960   0.00000   0.00000   0.00000   0.00000 ...
   0.00000   0.00000   0.00000   0.00000   0.00000   0.00000   0.00000   0.00000   0.50716   0.00000   0.00000   0.00000 ...
   0.00000   0.00000   0.00000   0.00000   0.00000   0.00000   0.00000   0.00000   0.00000   0.50716   0.00000   0.00000 ...
   0.00000   0.00000   0.00000   0.00000   0.00000   0.00000   0.00000   0.00000   0.00000   0.00000   1.55306   0.00000 ...
   0.00000   0.00000   0.00000   0.00000   0.00000   0.00000   0.00000   0.00000   0.00000   0.00000   0.00000   0.50716 ...
   ...  only 12  components have been written...



---OUTPUT-----------------------------------------------------------------------

 Cartesian coordinates (xcart) [bohr]
  5.24846789680841E+00  5.24846789680841E+00  5.24846789680841E+00
  1.57454036904252E+01  1.57454036904252E+01  1.57454036904252E+01
  1.04969357936168E+01  1.60757031367209E+01  1.04969357936168E+01
  1.04969357936168E+01  1.04969357936168E+01  4.91816845051268E+00
  1.04969357936168E+01  1.04969357936168E+01  1.60757031367209E+01
  1.04969357936168E+01  4.91816845051268E+00  1.04969357936168E+01
  1.60757031367209E+01  1.04969357936168E+01  1.04969357936168E+01
  4.91816845051268E+00  1.04969357936168E+01  1.04969357936168E+01
  2.98091305270472E-18 -1.11730085119162E-18  3.36827300524280E-18
 Reduced coordinates (xred)
  2.50000000000000E-01  2.50000000000000E-01  2.50000000000000E-01
  7.50000000000000E-01  7.50000000000000E-01  7.50000000000000E-01
  7.65733136450000E-01  2.34266863550000E-01  7.65733136450000E-01
  2.34266863550000E-01  2.34266863550000E-01  7.65733136450000E-01
  7.65733136450000E-01  7.65733136450000E-01  2.34266863550000E-01
  2.34266863550000E-01  7.65733136450000E-01  2.34266863550000E-01
  2.34266863550000E-01  7.65733136450000E-01  7.65733136450000E-01
  7.65733136450000E-01  2.34266863550000E-01  2.34266863550000E-01
 -3.47692370900000E-20  3.55650784950000E-19 -7.16714302780000E-20
 Cartesian forces (fcart) [Ha/bohr]; max,rms= 5.26772E-03 2.48323E-03 (free atoms)
 -0.00000000000000E+00 -0.00000000000000E+00 -1.26359514108641E-19
  8.14141698865217E-32 -8.14141698865217E-32 -1.26359514108559E-19
  2.69873888989362E-19 -5.26771950940133E-03 -3.96233403098002E-19
 -6.06460856172644E-20  6.06460856172644E-20  5.26771950940133E-03
  1.63806980004840E-19 -1.63806980004840E-19 -5.26771950940133E-03
 -2.69873888989362E-19  5.26771950940133E-03  1.43514374880721E-19
 -5.26771950940132E-03  2.90911180433262E-19 -4.17270694541902E-19
  5.26771950940132E-03 -2.90911180433262E-19  1.64551666324621E-19
 -0.00000000000000E+00 -0.00000000000000E+00 -1.26359514108641E-19
 Reduced forces (fred)
  1.32638770651102E-18  1.32638770651102E-18  0.00000000000000E+00
  1.32638770651102E-18  1.32638770650931E-18  8.59001408925992E-48
  5.52949134689684E-02  1.32638770651102E-18  5.52949134689684E-02
 -5.52949134689684E-02 -5.52949134689684E-02 -2.26552632026667E-35
  5.52949134689684E-02  5.52949134689684E-02  4.32242623942572E-35
 -5.52949134689684E-02  1.32638770651102E-18 -5.52949134689684E-02
  1.32638770651102E-18  5.52949134689683E-02  5.52949134689683E-02
  1.32638770651102E-18 -5.52949134689683E-02 -5.52949134689683E-02
  1.32638770651102E-18  1.32638770651102E-18  0.00000000000000E+00
 Scale of Primitive Cell (acell) [bohr]
  1.48449089626200E+01  1.48449089626200E+01  1.48449089626200E+01
 Real space primitive translations (rprimd) [bohr]
  0.00000000000000E+00  1.04969357936168E+01  1.04969357936168E+01
  1.04969357936168E+01  0.00000000000000E+00  1.04969357936168E+01
  1.04969357936168E+01  1.04969357936168E+01  0.00000000000000E+00
 Unitary Cell Volume (ucvol) [Bohr^3]=  2.31322361894971E+03
 Angles (23,13,12)= [degrees]
  6.00000000000000E+01  6.00000000000000E+01  6.00000000000000E+01
 Lengths [Bohr]
  1.48449089626925E+01  1.48449089626925E+01  1.48449089626925E+01
 Stress tensor in cartesian coordinates (strten) [Ha/bohr^3]
 -2.91812015739152E-05  0.00000000000000E+00  0.00000000000000E+00
  0.00000000000000E+00 -2.91812015739169E-05  0.00000000000000E+00
  0.00000000000000E+00  0.00000000000000E+00 -2.91812015739152E-05
 Total energy (etotal) [Ha]= -1.73107868289086E+02

--- Iteration: (   2/1000) Internal Cycle: (1/1)
--------------------------------------------------------------------------------

---SELF-CONSISTENT-FIELD CONVERGENCE--------------------------------------------

--- !BeginCycle
iteration_state: {dtset: 1, itime: 2, icycle: 1, }
solver: {iscf: 17, nstep: 2500, nline: 4, wfoptalg: 10, }
tolerances: {toldff: 1.00E-08, }
...

     iter   Etot(hartree)      deltaE(h)  residm     nres2    diffor    maxfor
 ETOT  1  -173.10834022278    -1.731E+02 1.383E-04 5.225E-02 1.950E-02 2.477E-02
 ETOT  2  -173.10804414659     2.961E-04 1.805E-04 4.277E-03 1.974E-02 5.031E-03
 ETOT  3  -173.10802579588     1.835E-05 1.793E-04 3.666E-04 1.392E-03 6.422E-03
 ETOT  4  -173.10802443568     1.360E-06 9.598E-05 1.013E-04 1.402E-03 5.020E-03
 ETOT  5  -173.10802446724    -3.157E-08 9.878E-05 3.707E-05 1.063E-04 4.914E-03
 ETOT  6  -173.10802450907    -4.183E-08 4.827E-05 3.575E-06 2.310E-04 4.683E-03
 ETOT  7  -173.10802453015    -2.108E-08 4.567E-05 1.434E-06 1.397E-05 4.669E-03
 ETOT  8  -173.10802454916    -1.901E-08 2.504E-05 1.215E-07 3.464E-05 4.635E-03
 ETOT  9  -173.10802454839     7.753E-10 2.636E-05 2.889E-08 5.781E-06 4.629E-03
 ETOT 10  -173.10802454685     1.535E-09 1.907E-05 3.652E-09 2.670E-06 4.631E-03
 ETOT 11  -173.10802454639     4.594E-10 1.855E-05 1.410E-10 2.415E-06 4.629E-03
 ETOT 12  -173.10802454638     6.082E-12 1.291E-05 2.185E-11 1.775E-07 4.629E-03
 ETOT 13  -173.10802454645    -6.244E-11 1.625E-05 2.004E-12 1.506E-07 4.629E-03
 ETOT 14  -173.10802454647    -2.737E-11 1.036E-05 8.504E-13 2.295E-08 4.629E-03
 ETOT 15  -173.10802454650    -2.095E-11 1.874E-05 3.202E-13 9.610E-09 4.629E-03
 ETOT 16  -173.10802454650    -4.917E-12 1.184E-05 1.093E-13 1.435E-09 4.629E-03

 At SCF step   16, forces are converged : 
  for the second time, max diff in force=  1.435E-09 < toldff=  1.000E-08

 Cartesian components of stress tensor (hartree/bohr^3)
  sigma(1 1)= -2.67122042E-05  sigma(3 2)=  0.00000000E+00
  sigma(2 2)= -2.67122042E-05  sigma(3 1)=  0.00000000E+00
  sigma(3 3)= -2.67122042E-05  sigma(2 1)=  0.00000000E+00


--- !ResultsGS
iteration_state: {dtset: 1, itime: 2, icycle: 1, }
comment   : Summary of ground state results
lattice_vectors:
- [  0.0000000,  10.4969358,  10.4969358, ]
- [ 10.4969358,   0.0000000,  10.4969358, ]
- [ 10.4969358,  10.4969358,   0.0000000, ]
lattice_lengths: [  14.84491,   14.84491,   14.84491, ]
lattice_angles: [ 60.000,  60.000,  60.000, ] # degrees, (23, 13, 12)
lattice_volume:   2.3132236E+03
convergence: {deltae: -4.917E-12, res2:  1.093E-13, residm:  1.184E-05, diffor:  1.435E-09, }
etotal    :  -1.73108025E+02
entropy   :   0.00000000E+00
fermie    :  -7.80782168E-02
cartesian_stress_tensor: # hartree/bohr^3
- [ -2.67122042E-05,   0.00000000E+00,   0.00000000E+00, ]
- [  0.00000000E+00,  -2.67122042E-05,   0.00000000E+00, ]
- [  0.00000000E+00,   0.00000000E+00,  -2.67122042E-05, ]
pressure_GPa:   7.8590E-01
xred      :
- [  2.5000E-01,   2.5000E-01,   2.5000E-01, Cs]
- [  7.5000E-01,   7.5000E-01,   7.5000E-01, Cs]
- [  7.6548E-01,   2.3452E-01,   7.6548E-01, Br]
- [  2.3452E-01,   2.3452E-01,   7.6548E-01, Br]
- [  7.6548E-01,   7.6548E-01,   2.3452E-01, Br]
- [  2.3452E-01,   7.6548E-01,   2.3452E-01, Br]
- [  2.3452E-01,   7.6548E-01,   7.6548E-01, Br]
- [  7.6548E-01,   2.3452E-01,   2.3452E-01, Br]
- [ -3.9862E-20,   3.5488E-19,  -6.8739E-20, Hf]
cartesian_forces: # hartree/bohr
- [ -1.05069470E-25,  -5.25347351E-25,  -4.43452726E-20, ]
- [ -1.05069470E-25,  -1.05069470E-25,  -4.43452726E-20, ]
- [  3.99112181E-19,  -4.62896364E-03,  -4.43457979E-19, ]
- [ -2.76828551E-20,   4.14545207E-20,   4.62896364E-03, ]
- [  3.58202830E-19,  -3.71974495E-19,  -4.62896364E-03, ]
- [ -3.99112181E-19,   4.62896364E-03,   3.54766383E-19, ]
- [ -4.62896364E-03,  -3.45686879E-20,  -9.77710998E-21, ]
- [  4.62896364E-03,   3.45686879E-20,  -7.89144858E-20, ]
- [ -0.00000000E+00,  -0.00000000E+00,  -4.43457979E-20, ]
force_length_stats: {min:   4.43452726E-20, max:   4.62896364E-03, mean:   3.08597576E-03, }
...

 Integrated electronic density in atomic spheres:
 ------------------------------------------------
 Atom  Sphere_radius  Integrated_density
    1        2.20660          5.35287366
    2        2.20660          5.35287366
    3        2.20000          4.94169351
    4        2.20000          4.94169351
    5        2.20000          4.94169351
    6        2.20000          4.94169351
    7        2.20000          4.94169351
    8        2.20000          4.94169351
    9        2.41000          9.31078851

 PAW TEST:
 ==== Compensation charge inside spheres ============
 The following values must be close to each other ...
 Compensation charge over spherical meshes =     -0.266459933672085
 Compensation charge over fine fft grid    =     -0.266452768794156

 ==== Results concerning PAW augmentation regions ====

 Total pseudopotential strength Dij (hartree):
 Atom #  1
   0.43030  -0.14255   0.00000   0.00000   0.00000   0.00000   0.00000   0.00000   0.00000   0.00000   0.00000   0.00000 ...
  -0.14255   0.04288   0.00000   0.00000   0.00000   0.00000   0.00000   0.00000   0.00000   0.00000   0.00000   0.00000 ...
   0.00000   0.00000  -0.09237   0.00000   0.00000  -0.16727   0.00000   0.00000   0.00000   0.00000   0.00000  -0.00000 ...
   0.00000   0.00000   0.00000  -0.09237   0.00000   0.00000  -0.16727   0.00000  -0.00000   0.00000   0.00000   0.00000 ...
   0.00000   0.00000   0.00000   0.00000  -0.09237   0.00000   0.00000  -0.16727   0.00000  -0.00000   0.00000   0.00000 ...
   0.00000   0.00000  -0.16727   0.00000   0.00000   0.40097   0.00000   0.00000   0.00000   0.00000   0.00000   0.00000 ...
   0.00000   0.00000   0.00000  -0.16727   0.00000   0.00000   0.40097   0.00000   0.00000   0.00000   0.00000   0.00000 ...
   0.00000   0.00000   0.00000   0.00000  -0.16727   0.00000   0.00000   0.40097   0.00000   0.00000   0.00000   0.00000 ...
   0.00000   0.00000   0.00000  -0.00000   0.00000   0.00000   0.00000   0.00000   0.00540   0.00000   0.00000   0.00000 ...
   0.00000   0.00000   0.00000   0.00000  -0.00000   0.00000   0.00000   0.00000   0.00000   0.00540   0.00000   0.00000 ...
   0.00000   0.00000   0.00000   0.00000   0.00000   0.00000   0.00000   0.00000   0.00000   0.00000   0.00540   0.00000 ...
   0.00000   0.00000  -0.00000   0.00000   0.00000   0.00000   0.00000   0.00000   0.00000   0.00000   0.00000   0.00540 ...
   ...  only 12  components have been written...
 Atom #  9
  -3.50229   0.42248   0.00000   0.00000   0.00000   0.00000   0.00000   0.00000   0.00000   0.00000   0.00000   0.00000 ...
   0.42248   0.00398   0.00000   0.00000   0.00000   0.00000   0.00000   0.00000   0.00000   0.00000   0.00000   0.00000 ...
   0.00000   0.00000  -1.42963   0.00000   0.00000   0.11809   0.00000   0.00000   0.00000   0.00000   0.00000   0.00000 ...
   0.00000   0.00000   0.00000  -1.42963   0.00000   0.00000   0.11809   0.00000   0.00000   0.00000   0.00000   0.00000 ...
   0.00000   0.00000   0.00000   0.00000  -1.42963   0.00000   0.00000   0.11809   0.00000   0.00000   0.00000   0.00000 ...
   0.00000   0.00000   0.11809   0.00000   0.00000   0.01426   0.00000   0.00000   0.00000   0.00000   0.00000   0.00000 ...
   0.00000   0.00000   0.00000   0.11809   0.00000   0.00000   0.01426   0.00000   0.00000   0.00000   0.00000   0.00000 ...
   0.00000   0.00000   0.00000   0.00000   0.11809   0.00000   0.00000   0.01426   0.00000   0.00000   0.00000   0.00000 ...
   0.00000   0.00000   0.00000   0.00000   0.00000   0.00000   0.00000   0.00000  -0.38894   0.00000   0.00000   0.00000 ...
   0.00000   0.00000   0.00000   0.00000   0.00000   0.00000   0.00000   0.00000   0.00000  -0.38894   0.00000   0.00000 ...
   0.00000   0.00000   0.00000   0.00000   0.00000   0.00000   0.00000   0.00000   0.00000   0.00000  -0.38829   0.00000 ...
   0.00000   0.00000   0.00000   0.00000   0.00000   0.00000   0.00000   0.00000   0.00000   0.00000   0.00000  -0.38894 ...
   ...  only 12  components have been written...


 Augmentation waves occupancies Rhoij:
 Atom #  1
   1.99731  -0.01586   0.00000   0.00000   0.00000   0.00000   0.00000   0.00000   0.00000   0.00000   0.00000   0.00000 ...
  -0.01586   0.12236   0.00000   0.00000   0.00000   0.00000   0.00000   0.00000   0.00000   0.00000   0.00000   0.00000 ...
   0.00000   0.00000   2.00944   0.00000   0.00000  -0.00505   0.00000   0.00000   0.00000   0.00000   0.00000   0.00169 ...
   0.00000   0.00000   0.00000   2.00944   0.00000   0.00000  -0.00505   0.00000   0.00169   0.00000   0.00000   0.00000 ...
   0.00000   0.00000   0.00000   0.00000   2.00944   0.00000   0.00000  -0.00505   0.00000   0.00169   0.00000   0.00000 ...
   0.00000   0.00000  -0.00505   0.00000   0.00000   0.00009   0.00000   0.00000   0.00000   0.00000   0.00000  -0.00011 ...
   0.00000   0.00000   0.00000  -0.00505   0.00000   0.00000   0.00009   0.00000  -0.00011   0.00000   0.00000   0.00000 ...
   0.00000   0.00000   0.00000   0.00000  -0.00505   0.00000   0.00000   0.00009   0.00000  -0.00011   0.00000   0.00000 ...
   0.00000   0.00000   0.00000   0.00169   0.00000   0.00000  -0.00011   0.00000   0.03887   0.00000   0.00000   0.00000 ...
   0.00000   0.00000   0.00000   0.00000   0.00169   0.00000   0.00000  -0.00011   0.00000   0.03887   0.00000   0.00000 ...
   0.00000   0.00000   0.00000   0.00000   0.00000   0.00000   0.00000   0.00000   0.00000   0.00000   0.02457   0.00000 ...
   0.00000   0.00000   0.00169   0.00000   0.00000  -0.00011   0.00000   0.00000   0.00000   0.00000   0.00000   0.03887 ...
   ...  only 12  components have been written...
 Atom #  9
   1.99786  -0.02201   0.00000   0.00000   0.00000   0.00000   0.00000   0.00000   0.00000   0.00000   0.00000   0.00000 ...
  -0.02201   1.01385   0.00000   0.00000   0.00000   0.00000   0.00000   0.00000   0.00000   0.00000   0.00000   0.00000 ...
   0.00000   0.00000   1.99234   0.00000   0.00000  -0.06659   0.00000   0.00000   0.00000   0.00000   0.00000   0.00000 ...
   0.00000   0.00000   0.00000   1.99234   0.00000   0.00000  -0.06659   0.00000   0.00000   0.00000   0.00000   0.00000 ...
   0.00000   0.00000   0.00000   0.00000   1.99234   0.00000   0.00000  -0.06659   0.00000   0.00000   0.00000   0.00000 ...
   0.00000   0.00000  -0.06659   0.00000   0.00000   1.35262   0.00000   0.00000   0.00000   0.00000   0.00000   0.00000 ...
   0.00000   0.00000   0.00000  -0.06659   0.00000   0.00000   1.35262   0.00000   0.00000   0.00000   0.00000   0.00000 ...
   0.00000   0.00000   0.00000   0.00000  -0.06659   0.00000   0.00000   1.35262   0.00000   0.00000   0.00000   0.00000 ...
   0.00000   0.00000   0.00000   0.00000   0.00000   0.00000   0.00000   0.00000   0.50408   0.00000   0.00000   0.00000 ...
   0.00000   0.00000   0.00000   0.00000   0.00000   0.00000   0.00000   0.00000   0.00000   0.50408   0.00000   0.00000 ...
   0.00000   0.00000   0.00000   0.00000   0.00000   0.00000   0.00000   0.00000   0.00000   0.00000   1.54407   0.00000 ...
   0.00000   0.00000   0.00000   0.00000   0.00000   0.00000   0.00000   0.00000   0.00000   0.00000   0.00000   0.50408 ...
   ...  only 12  components have been written...



---OUTPUT-----------------------------------------------------------------------

 Cartesian coordinates (xcart) [bohr]
  5.24846789680841E+00  5.24846789680841E+00  5.24846789680841E+00
  1.57454036904252E+01  1.57454036904252E+01  1.57454036904252E+01
  1.04969357936168E+01  1.60704354172115E+01  1.04969357936168E+01
  1.04969357936168E+01  1.04969357936168E+01  4.92343617002208E+00
  1.04969357936168E+01  1.04969357936168E+01  1.60704354172115E+01
  1.04969357936168E+01  4.92343617002208E+00  1.04969357936168E+01
  1.60704354172115E+01  1.04969357936168E+01  1.04969357936168E+01
  4.92343617002208E+00  1.04969357936168E+01  1.04969357936168E+01
  3.00359754831561E-18 -1.13998534680251E-18  3.30671782478126E-18
 Reduced coordinates (xred)
  2.50000000000000E-01  2.50000000000000E-01  2.50000000000000E-01
  7.50000000000000E-01  7.50000000000000E-01  7.50000000000000E-01
  7.65482219438933E-01  2.34517780561067E-01  7.65482219438933E-01
  2.34517780561067E-01  2.34517780561067E-01  7.65482219438933E-01
  7.65482219438933E-01  7.65482219438933E-01  2.34517780561067E-01
  2.34517780561067E-01  7.65482219438933E-01  2.34517780561067E-01
  2.34517780561067E-01  7.65482219438933E-01  7.65482219438933E-01
  7.65482219438933E-01  2.34517780561067E-01  2.34517780561067E-01
 -3.98623506321603E-20  3.54879789034715E-19 -6.87393755492776E-20
 Cartesian forces (fcart) [Ha/bohr]; max,rms= 4.62896E-03 2.18211E-03 (free atoms)
 -1.05069470280528E-25 -5.25347351402642E-25 -4.43452725502743E-20
 -1.05069470280528E-25 -1.05069470280528E-25 -4.43452725502743E-20
  3.99112181078632E-19 -4.62896364068067E-03 -4.43457978976257E-19
 -2.76828551112655E-20  4.14545207198749E-20  4.62896364068067E-03
  3.58202829717892E-19 -3.71974495326501E-19 -4.62896364068067E-03
 -3.99112181078632E-19  4.62896364068067E-03  3.54766383181006E-19
 -4.62896364068067E-03 -3.45686879155702E-20 -9.77710998205553E-21
  4.62896364068067E-03  3.45686879155702E-20 -7.89144858131959E-20
 -0.00000000000000E+00 -0.00000000000000E+00 -4.43457978976257E-20
 Reduced forces (fred)
  4.65494993248085E-19  4.65490581618151E-19  6.61744490042422E-24
  4.65490581618151E-19  4.65490581618151E-19  2.20581496680807E-24
  4.85899341272117E-02  4.65494993248085E-19  4.85899341272117E-02
 -4.85899341272117E-02 -4.85899341272117E-02 -1.44560289664734E-19
  4.85899341272117E-02  4.85899341272117E-02  1.44560289664734E-19
 -4.85899341272117E-02  4.65494993248085E-19 -4.85899341272117E-02
  4.65494993248085E-19  4.85899341272117E-02  4.85899341272117E-02
  4.65494993248085E-19 -4.85899341272117E-02 -4.85899341272117E-02
  4.65494993248085E-19  4.65494993248085E-19  0.00000000000000E+00
 Scale of Primitive Cell (acell) [bohr]
  1.48449089626200E+01  1.48449089626200E+01  1.48449089626200E+01
 Real space primitive translations (rprimd) [bohr]
  0.00000000000000E+00  1.04969357936168E+01  1.04969357936168E+01
  1.04969357936168E+01  0.00000000000000E+00  1.04969357936168E+01
  1.04969357936168E+01  1.04969357936168E+01  0.00000000000000E+00
 Unitary Cell Volume (ucvol) [Bohr^3]=  2.31322361894971E+03
 Angles (23,13,12)= [degrees]
  6.00000000000000E+01  6.00000000000000E+01  6.00000000000000E+01
 Lengths [Bohr]
  1.48449089626925E+01  1.48449089626925E+01  1.48449089626925E+01
 Stress tensor in cartesian coordinates (strten) [Ha/bohr^3]
 -2.67122042441397E-05  0.00000000000000E+00  0.00000000000000E+00
  0.00000000000000E+00 -2.67122042441397E-05  0.00000000000000E+00
  0.00000000000000E+00  0.00000000000000E+00 -2.67122042441406E-05
 Total energy (etotal) [Ha]= -1.73108024546501E+02

 Difference of energy with previous step (new-old):
           Absolute (Ha)=-1.56257E-04
           Relative     =-9.02659E-07

--- Iteration: (   3/1000) Internal Cycle: (1/1)
--------------------------------------------------------------------------------

---SELF-CONSISTENT-FIELD CONVERGENCE--------------------------------------------

--- !BeginCycle
iteration_state: {dtset: 1, itime: 3, icycle: 1, }
solver: {iscf: 17, nstep: 2500, nline: 4, wfoptalg: 10, }
tolerances: {toldff: 1.00E-08, }
...

     iter   Etot(hartree)      deltaE(h)  residm     nres2    diffor    maxfor
 ETOT  1  -173.12498945892    -1.731E+02 1.418E-04 2.675E+00 1.407E-01 1.454E-01
 ETOT  2  -173.10949091490     1.550E-02 1.972E-04 1.946E-01 1.406E-01 4.736E-03
 ETOT  3  -173.10866186491     8.290E-04 1.008E-04 1.857E-02 8.374E-03 1.311E-02
 ETOT  4  -173.10857770168     8.416E-05 8.698E-05 5.224E-03 1.018E-02 2.932E-03
 ETOT  5  -173.10857009238     7.609E-06 3.214E-05 1.717E-03 8.209E-04 2.111E-03
 ETOT  6  -173.10856770394     2.388E-06 4.918E-05 1.377E-04 1.561E-03 5.496E-04
 ETOT  7  -173.10856806504    -3.611E-07 2.159E-05 5.464E-05 1.521E-04 3.975E-04
 ETOT  8  -173.10856824658    -1.815E-07 3.095E-05 5.105E-06 1.850E-04 2.125E-04
 ETOT  9  -173.10856824922    -2.637E-09 2.132E-05 1.216E-06 3.495E-05 1.775E-04
 ETOT 10  -173.10856824110     8.117E-09 2.619E-05 1.278E-07 1.436E-05 1.919E-04
 ETOT 11  -173.10856823993     1.174E-09 2.037E-05 6.676E-09 1.555E-05 1.763E-04
 ETOT 12  -173.10856824010    -1.743E-10 2.464E-05 1.082E-09 5.696E-07 1.758E-04
 ETOT 13  -173.10856824050    -4.004E-10 1.886E-05 6.899E-11 1.056E-06 1.768E-04
 ETOT 14  -173.10856824065    -1.513E-10 2.253E-05 3.046E-11 9.085E-08 1.767E-04
 ETOT 15  -173.10856824084    -1.851E-10 1.699E-05 9.035E-12 7.547E-09 1.767E-04
 ETOT 16  -173.10856824089    -4.840E-11 2.007E-05 5.168E-12 8.600E-09 1.767E-04

 At SCF step   16, forces are converged : 
  for the second time, max diff in force=  8.600E-09 < toldff=  1.000E-08

 Cartesian components of stress tensor (hartree/bohr^3)
  sigma(1 1)= -9.46896561E-06  sigma(3 2)=  0.00000000E+00
  sigma(2 2)= -9.46896561E-06  sigma(3 1)=  0.00000000E+00
  sigma(3 3)= -9.46896561E-06  sigma(2 1)=  0.00000000E+00


--- !ResultsGS
iteration_state: {dtset: 1, itime: 3, icycle: 1, }
comment   : Summary of ground state results
lattice_vectors:
- [  0.0000000,  10.4969358,  10.4969358, ]
- [ 10.4969358,   0.0000000,  10.4969358, ]
- [ 10.4969358,  10.4969358,   0.0000000, ]
lattice_lengths: [  14.84491,   14.84491,   14.84491, ]
lattice_angles: [ 60.000,  60.000,  60.000, ] # degrees, (23, 13, 12)
lattice_volume:   2.3132236E+03
convergence: {deltae: -4.840E-11, res2:  5.168E-12, residm:  2.007E-05, diffor:  8.600E-09, }
etotal    :  -1.73108568E+02
entropy   :   0.00000000E+00
fermie    :  -7.82623582E-02
cartesian_stress_tensor: # hartree/bohr^3
- [ -9.46896561E-06,   0.00000000E+00,   0.00000000E+00, ]
- [  0.00000000E+00,  -9.46896561E-06,   0.00000000E+00, ]
- [  0.00000000E+00,   0.00000000E+00,  -9.46896561E-06, ]
pressure_GPa:   2.7859E-01
xred      :
- [  2.5000E-01,   2.5000E-01,   2.5000E-01, Cs]
- [  7.5000E-01,   7.5000E-01,   7.5000E-01, Cs]
- [  7.6366E-01,   2.3634E-01,   7.6366E-01, Br]
- [  2.3634E-01,   2.3634E-01,   7.6366E-01, Br]
- [  7.6366E-01,   7.6366E-01,   2.3634E-01, Br]
- [  2.3634E-01,   7.6366E-01,   2.3634E-01, Br]
- [  2.3634E-01,   7.6366E-01,   7.6366E-01, Br]
- [  7.6366E-01,   2.3634E-01,   2.3634E-01, Br]
- [ -6.2617E-21,   3.2303E-19,  -6.9617E-20, Hf]
cartesian_forces: # hartree/bohr
- [ -3.00915103E-21,   3.01251326E-21,   5.21791921E-22, ]
- [ -3.01083215E-21,   3.01083215E-21,   5.23473032E-22, ]
- [ -2.12830221E-20,  -1.76739443E-04,   1.87956630E-20, ]
- [ -3.84930168E-21,   3.84930168E-21,   1.76739443E-04, ]
- [ -2.17404372E-21,   2.17404372E-21,  -1.76739443E-04, ]
- [  2.88122039E-20,   1.76739443E-04,  -3.12995630E-20, ]
- [ -1.76739443E-04,   5.39782167E-21,  -1.86183538E-21, ]
- [  1.76739443E-04,   6.25523735E-22,   2.91046255E-21, ]
- [ -3.01167270E-21,   3.01167270E-21,   5.24313588E-22, ]
force_length_stats: {min:   4.28981269E-21, max:   1.76739443E-04, mean:   1.17826295E-04, }
...

 Integrated electronic density in atomic spheres:
 ------------------------------------------------
 Atom  Sphere_radius  Integrated_density
    1        2.20660          5.35295961
    2        2.20660          5.35295961
    3        2.20000          4.93836502
    4        2.20000          4.93836502
    5        2.20000          4.93836502
    6        2.20000          4.93836502
    7        2.20000          4.93836502
    8        2.20000          4.93836502
    9        2.41000          9.27913419

 PAW TEST:
 ==== Compensation charge inside spheres ============
 The following values must be close to each other ...
 Compensation charge over spherical meshes =     -0.268457182784156
 Compensation charge over fine fft grid    =     -0.268449479369220

 ==== Results concerning PAW augmentation regions ====

 Total pseudopotential strength Dij (hartree):
 Atom #  1
   0.43017  -0.14251   0.00000   0.00000   0.00000   0.00000   0.00000   0.00000   0.00000   0.00000   0.00000   0.00000 ...
  -0.14251   0.04287   0.00000   0.00000   0.00000   0.00000   0.00000   0.00000   0.00000   0.00000   0.00000   0.00000 ...
   0.00000   0.00000  -0.09235   0.00000   0.00000  -0.16728   0.00000   0.00000   0.00000   0.00000   0.00000  -0.00000 ...
   0.00000   0.00000   0.00000  -0.09235   0.00000   0.00000  -0.16728   0.00000  -0.00000   0.00000   0.00000   0.00000 ...
   0.00000   0.00000   0.00000   0.00000  -0.09235   0.00000   0.00000  -0.16728   0.00000  -0.00000   0.00000   0.00000 ...
   0.00000   0.00000  -0.16728   0.00000   0.00000   0.40093   0.00000   0.00000   0.00000   0.00000   0.00000   0.00000 ...
   0.00000   0.00000   0.00000  -0.16728   0.00000   0.00000   0.40093   0.00000   0.00000   0.00000   0.00000   0.00000 ...
   0.00000   0.00000   0.00000   0.00000  -0.16728   0.00000   0.00000   0.40093   0.00000   0.00000   0.00000   0.00000 ...
   0.00000   0.00000   0.00000  -0.00000   0.00000   0.00000   0.00000   0.00000   0.00540   0.00000   0.00000   0.00000 ...
   0.00000   0.00000   0.00000   0.00000  -0.00000   0.00000   0.00000   0.00000   0.00000   0.00540   0.00000   0.00000 ...
   0.00000   0.00000   0.00000   0.00000   0.00000   0.00000   0.00000   0.00000   0.00000   0.00000   0.00540   0.00000 ...
   0.00000   0.00000  -0.00000   0.00000   0.00000   0.00000   0.00000   0.00000   0.00000   0.00000   0.00000   0.00540 ...
   ...  only 12  components have been written...
 Atom #  9
  -3.50419   0.42315   0.00000   0.00000   0.00000   0.00000   0.00000   0.00000   0.00000   0.00000   0.00000   0.00000 ...
   0.42315   0.00382   0.00000   0.00000   0.00000   0.00000   0.00000   0.00000   0.00000   0.00000   0.00000   0.00000 ...
   0.00000   0.00000  -1.43253   0.00000   0.00000   0.11868   0.00000   0.00000   0.00000   0.00000   0.00000   0.00000 ...
   0.00000   0.00000   0.00000  -1.43253   0.00000   0.00000   0.11868   0.00000   0.00000   0.00000   0.00000   0.00000 ...
   0.00000   0.00000   0.00000   0.00000  -1.43253   0.00000   0.00000   0.11868   0.00000   0.00000   0.00000   0.00000 ...
   0.00000   0.00000   0.11868   0.00000   0.00000   0.01415   0.00000   0.00000   0.00000   0.00000   0.00000   0.00000 ...
   0.00000   0.00000   0.00000   0.11868   0.00000   0.00000   0.01415   0.00000   0.00000   0.00000   0.00000   0.00000 ...
   0.00000   0.00000   0.00000   0.00000   0.11868   0.00000   0.00000   0.01415   0.00000   0.00000   0.00000   0.00000 ...
   0.00000   0.00000   0.00000   0.00000   0.00000   0.00000   0.00000   0.00000  -0.38952   0.00000   0.00000   0.00000 ...
   0.00000   0.00000   0.00000   0.00000   0.00000   0.00000   0.00000   0.00000   0.00000  -0.38952   0.00000   0.00000 ...
   0.00000   0.00000   0.00000   0.00000   0.00000   0.00000   0.00000   0.00000   0.00000   0.00000  -0.38886   0.00000 ...
   0.00000   0.00000   0.00000   0.00000   0.00000   0.00000   0.00000   0.00000   0.00000   0.00000   0.00000  -0.38952 ...
[...]
                       7.6290647867E+00  5.1058713693E+00  5.1058713693E+00
                       2.5826779519E+00  5.1058713693E+00  5.1058713693E+00
                       1.1254356507E-18 -1.8686276121E-19  1.3365929032E-18
           xangst10    2.5248814464E+00  2.5248814464E+00  2.5248814464E+00
                       7.5746443391E+00  7.5746443391E+00  7.5746443391E+00
                       5.0497628927E+00  7.5267601659E+00  5.0497628927E+00
                       5.0497628927E+00  5.0497628927E+00  2.5727656195E+00
                       5.0497628927E+00  5.0497628927E+00  7.5267601659E+00
                       5.0497628927E+00  2.5727656195E+00  5.0497628927E+00
                       7.5267601659E+00  5.0497628927E+00  5.0497628927E+00
                       2.5727656195E+00  5.0497628927E+00  5.0497628927E+00
                       1.4446621889E-18 -5.5190565708E-19  1.6268654892E-18
            xcart1     5.2484678968E+00  5.2484678968E+00  5.2484678968E+00
                       1.5745403690E+01  1.5745403690E+01  1.5745403690E+01
                       1.0496935794E+01  1.6030690941E+01  1.0496935794E+01
                       1.0496935794E+01  1.0496935794E+01  4.9631806464E+00
                       1.0496935794E+01  1.0496935794E+01  1.6030690941E+01
                       1.0496935794E+01  4.9631806464E+00  1.0496935794E+01
                       1.6030690941E+01  1.0496935794E+01  1.0496935794E+01
                       4.9631806464E+00  1.0496935794E+01  1.0496935794E+01
                       2.6429930201E-18 -7.7938081862E-19  3.3282631976E-18
            xcart2     5.1954530696E+00  5.1954530696E+00  5.1954530696E+00
                       1.5586359209E+01  1.5586359209E+01  1.5586359209E+01
                       1.0390906139E+01  1.5824117498E+01  1.0390906139E+01
                       1.0390906139E+01  1.0390906139E+01  4.9576947805E+00
                       1.0390906139E+01  1.0390906139E+01  1.5824117498E+01
                       1.0390906139E+01  4.9576947805E+00  1.0390906139E+01
                       1.5824117498E+01  1.0390906139E+01  1.0390906139E+01
                       4.9576947805E+00  1.0390906139E+01  1.0390906139E+01
                       5.6799816044E-18 -3.2228533649E-18  3.0382666298E-18
            xcart3     5.1424382423E+00  5.1424382423E+00  5.1424382423E+00
                       1.5427314727E+01  1.5427314727E+01  1.5427314727E+01
                       1.0284876485E+01  1.5618835070E+01  1.0284876485E+01
                       1.0284876485E+01  1.0284876485E+01  4.9509178993E+00
                       1.0284876485E+01  1.0284876485E+01  1.5618835070E+01
                       1.0284876485E+01  4.9509178993E+00  1.0284876485E+01
                       1.5618835070E+01  1.0284876485E+01  1.0284876485E+01
                       4.9509178993E+00  1.0284876485E+01  1.0284876485E+01
                       6.4607850784E-18 -6.0767880254E-18  3.1043089212E-18
            xcart4     5.0894234151E+00  5.0894234151E+00  5.0894234151E+00
                       1.5268270245E+01  1.5268270245E+01  1.5268270245E+01
                       1.0178846830E+01  1.5414153888E+01  1.0178846830E+01
                       1.0178846830E+01  1.0178846830E+01  4.9435397725E+00
                       1.0178846830E+01  1.0178846830E+01  1.5414153888E+01
                       1.0178846830E+01  4.9435397725E+00  1.0178846830E+01
                       1.5414153888E+01  1.0178846830E+01  1.0178846830E+01
                       4.9435397725E+00  1.0178846830E+01  1.0178846830E+01
                       2.8905823541E-18 -1.0834432496E-18  3.2662041263E-18
            xcart5     5.0364085878E+00  5.0364085878E+00  5.0364085878E+00
                       1.5109225764E+01  1.5109225764E+01  1.5109225764E+01
                       1.0072817176E+01  1.5211231528E+01  1.0072817176E+01
                       1.0072817176E+01  1.0072817176E+01  4.9344028233E+00
                       1.0072817176E+01  1.0072817176E+01  1.5211231528E+01
                       1.0072817176E+01  4.9344028233E+00  1.0072817176E+01
                       1.5211231528E+01  1.0072817176E+01  1.0072817176E+01
                       4.9344028233E+00  1.0072817176E+01  1.0072817176E+01
                       2.5678649477E-18  2.3138393748E-18  3.2253476491E-18
            xcart6     4.9833937606E+00  4.9833937606E+00  4.9833937606E+00
                       1.4950181282E+01  1.4950181282E+01  1.4950181282E+01
                       9.9667875212E+00  1.5009846697E+01  9.9667875212E+00
                       9.9667875212E+00  9.9667875212E+00  4.9237283455E+00
                       9.9667875212E+00  9.9667875212E+00  1.5009846697E+01
                       9.9667875212E+00  4.9237283455E+00  9.9667875212E+00
                       1.5009846697E+01  9.9667875212E+00  9.9667875212E+00
                       4.9237283455E+00  9.9667875212E+00  9.9667875212E+00
                       2.8536557363E-18 -1.1828230009E-18  3.1962528134E-18
            xcart7     4.9303789334E+00  4.9303789334E+00  4.9303789334E+00
                       1.4791136800E+01  1.4791136800E+01  1.4791136800E+01
                       9.8607578667E+00  1.4810296283E+01  9.8607578667E+00
                       9.8607578667E+00  9.8607578667E+00  4.9112194505E+00
                       9.8607578667E+00  9.8607578667E+00  1.4810296283E+01
                       9.8607578667E+00  4.9112194505E+00  9.8607578667E+00
                       1.4810296283E+01  9.8607578667E+00  9.8607578667E+00
                       4.9112194505E+00  9.8607578667E+00  9.8607578667E+00
                       3.2310123586E-18 -1.6217544541E-18  3.8600340610E-18
            xcart8     4.8773641061E+00  4.8773641061E+00  4.8773641061E+00
                       1.4632092318E+01  1.4632092318E+01  1.4632092318E+01
                       9.7547282122E+00  1.4612446257E+01  9.7547282122E+00
                       9.7547282122E+00  9.7547282122E+00  4.8970101671E+00
                       9.7547282122E+00  9.7547282122E+00  1.4612446257E+01
                       9.7547282122E+00  4.8970101671E+00  9.7547282122E+00
                       1.4612446257E+01  9.7547282122E+00  9.7547282122E+00
                       4.8970101671E+00  9.7547282122E+00  9.7547282122E+00
                       1.6085918381E-18 -1.1031346336E-18  3.5590646884E-18
            xcart9     4.8243492789E+00  4.8243492789E+00  4.8243492789E+00
                       1.4473047837E+01  1.4473047837E+01  1.4473047837E+01
                       9.6486985578E+00  1.4416843097E+01  9.6486985578E+00
                       9.6486985578E+00  9.6486985578E+00  4.8805540186E+00
                       9.6486985578E+00  9.6486985578E+00  1.4416843097E+01
                       9.6486985578E+00  4.8805540186E+00  9.6486985578E+00
                       1.4416843097E+01  9.6486985578E+00  9.6486985578E+00
                       4.8805540186E+00  9.6486985578E+00  9.6486985578E+00
                       2.1267651600E-18 -3.5311944313E-19  2.5257945381E-18
            xcart10    4.7713344516E+00  4.7713344516E+00  4.7713344516E+00
                       1.4314003355E+01  1.4314003355E+01  1.4314003355E+01
                       9.5426689033E+00  1.4223515382E+01  9.5426689033E+00
                       9.5426689033E+00  9.5426689033E+00  4.8618224251E+00
                       9.5426689033E+00  9.5426689033E+00  1.4223515382E+01
                       9.5426689033E+00  4.8618224251E+00  9.5426689033E+00
                       1.4223515382E+01  9.5426689033E+00  9.5426689033E+00
                       4.8618224251E+00  9.5426689033E+00  9.5426689033E+00
                       2.7300158916E-18 -1.0429505431E-18  3.0743302295E-18
             xred1     2.5000000000E-01  2.5000000000E-01  2.5000000000E-01
                       7.5000000000E-01  7.5000000000E-01  7.5000000000E-01
                       7.6358907285E-01  2.3641092715E-01  7.6358907285E-01
                       2.3641092715E-01  2.3641092715E-01  7.6358907285E-01
                       7.6358907285E-01  7.6358907285E-01  2.3641092715E-01
                       2.3641092715E-01  7.6358907285E-01  2.3641092715E-01
                       2.3641092715E-01  7.6358907285E-01  7.6358907285E-01
                       7.6358907285E-01  2.3641092715E-01  2.3641092715E-01
                      -4.4827673062E-21  3.2155274497E-19 -6.9765645178E-20
             xred2     2.5000000000E-01  2.5000000000E-01  2.5000000000E-01
                       7.5000000000E-01  7.5000000000E-01  7.5000000000E-01
                       7.6144069083E-01  2.3855930917E-01  7.6144069083E-01
                       2.3855930917E-01  2.3855930917E-01  7.6144069083E-01
                       7.6144069083E-01  7.6144069083E-01  2.3855930917E-01
                       2.3855930917E-01  7.6144069083E-01  2.3855930917E-01
                       2.3855930917E-01  7.6144069083E-01  7.6144069083E-01
                       7.6144069083E-01  2.3855930917E-01  2.3855930917E-01
                      -2.8219715687E-19  5.7459385347E-19 -2.7963797506E-20
             xred3     2.5000000000E-01  2.5000000000E-01  2.5000000000E-01
                       7.5000000000E-01  7.5000000000E-01  7.5000000000E-01
                       7.5931077506E-01  2.4068922494E-01  7.5931077506E-01
                       2.4068922494E-01  2.4068922494E-01  7.5931077506E-01
                       7.5931077506E-01  7.5931077506E-01  2.4068922494E-01
                       2.4068922494E-01  7.5931077506E-01  2.4068922494E-01
                       2.4068922494E-01  7.5931077506E-01  7.5931077506E-01
                       7.5931077506E-01  2.4068922494E-01  2.4068922494E-01
                      -4.5859880751E-19  7.6043120442E-19 -1.3224815447E-19
             xred4     2.5000000000E-01  2.5000000000E-01  2.5000000000E-01
                       7.5000000000E-01  7.5000000000E-01  7.5000000000E-01
                       7.5716602013E-01  2.4283397987E-01  7.5716602013E-01
                       2.4283397987E-01  2.4283397987E-01  7.5716602013E-01
                       7.5716602013E-01  7.5716602013E-01  2.4283397987E-01
                       2.4283397987E-01  7.5716602013E-01  2.4283397987E-01
                       2.4283397987E-01  7.5716602013E-01  7.5716602013E-01
                       7.5716602013E-01  2.4283397987E-01  2.4283397987E-01
                      -3.4769237090E-20  3.5565078495E-19 -7.1671430278E-20
             xred5     2.5000000000E-01  2.5000000000E-01  2.5000000000E-01
                       7.5000000000E-01  7.5000000000E-01  7.5000000000E-01
                       7.5506341785E-01  2.4493658215E-01  7.5506341785E-01
                       2.4493658215E-01  2.4493658215E-01  7.5506341785E-01
                       7.5506341785E-01  7.5506341785E-01  2.4493658215E-01
                       2.4493658215E-01  7.5506341785E-01  2.4493658215E-01
                       2.4493658215E-01  7.5506341785E-01  7.5506341785E-01
                       7.5506341785E-01  2.4493658215E-01  2.4493658215E-01
                       1.4749210794E-19  1.7271102817E-19  8.2219137136E-20
             xred6     2.5000000000E-01  2.5000000000E-01  2.5000000000E-01
                       7.5000000000E-01  7.5000000000E-01  7.5000000000E-01
                       7.5299321195E-01  2.4700678805E-01  7.5299321195E-01
                       2.4700678805E-01  2.4700678805E-01  7.5299321195E-01
                       7.5299321195E-01  7.5299321195E-01  2.4700678805E-01
                       2.4700678805E-01  7.5299321195E-01  2.4700678805E-01
                       2.4700678805E-01  7.5299321195E-01  7.5299321195E-01
                       7.5299321195E-01  2.4700678805E-01  2.4700678805E-01
                      -4.2151291083E-20  3.6284166464E-19 -7.6525162933E-20
             xred7     2.5000000000E-01  2.5000000000E-01  2.5000000000E-01
                       7.5000000000E-01  7.5000000000E-01  7.5000000000E-01
                       7.5097150154E-01  2.4902849846E-01  7.5097150154E-01
                       2.4902849846E-01  2.4902849846E-01  7.5097150154E-01
                       7.5097150154E-01  7.5097150154E-01  2.4902849846E-01
                       2.4902849846E-01  7.5097150154E-01  2.4902849846E-01
                       2.4902849846E-01  7.5097150154E-01  7.5097150154E-01
                       7.5097150154E-01  2.4902849846E-01  2.4902849846E-01
                      -5.0337548342E-20  4.4179164479E-19 -1.1412794975E-19
             xred8     2.5000000000E-01  2.5000000000E-01  2.5000000000E-01
                       7.5000000000E-01  7.5000000000E-01  7.5000000000E-01
                       7.4899299803E-01  2.5100700197E-01  7.4899299803E-01
                       2.5100700197E-01  2.5100700197E-01  7.4899299803E-01
                       7.4899299803E-01  7.4899299803E-01  2.5100700197E-01
                       2.5100700197E-01  7.4899299803E-01  2.5100700197E-01
                       2.5100700197E-01  7.4899299803E-01  7.4899299803E-01
                       7.4899299803E-01  2.5100700197E-01  2.5100700197E-01
                       4.3432179672E-20  3.2142316134E-19 -1.5651935233E-19
             xred9     2.5000000000E-01  2.5000000000E-01  2.5000000000E-01
                       7.5000000000E-01  7.5000000000E-01  7.5000000000E-01
                       7.4708744452E-01  2.5291255548E-01  7.4708744452E-01
                       2.5291255548E-01  2.5291255548E-01  7.4708744452E-01
                       7.4708744452E-01  7.4708744452E-01  2.5291255548E-01
                       2.5291255548E-01  7.4708744452E-01  2.5291255548E-01
                       2.5291255548E-01  7.4708744452E-01  7.4708744452E-01
                       7.4708744452E-01  2.5291255548E-01  2.5291255548E-01
                       2.3790739629E-21  2.5939659692E-19 -3.8976698090E-20
             xred10    2.5000000000E-01  2.5000000000E-01  2.5000000000E-01
                       7.5000000000E-01  7.5000000000E-01  7.5000000000E-01
                       7.4525877014E-01  2.5474122986E-01  7.4525877014E-01
                       2.5474122986E-01  2.5474122986E-01  7.4525877014E-01
                       7.4525877014E-01  7.4525877014E-01  2.5474122986E-01
                       2.5474122986E-01  7.4525877014E-01  2.5474122986E-01
                       2.5474122986E-01  7.4525877014E-01  7.4525877014E-01
                       7.4525877014E-01  2.5474122986E-01  2.5474122986E-01
                      -3.6605912468E-20  3.5877262083E-19 -7.2687467994E-20
            znucl       55.00000   35.00000   72.00000

================================================================================


- Timing analysis has been suppressed with timopt=0



================================================================================

 Suggested references for the acknowledgment of ABINIT usage.

 The users of ABINIT have little formal obligations with respect to the ABINIT group
 (those specified in the GNU General Public License, http://www.gnu.org/copyleft/gpl.txt).
 However, it is common practice in the scientific literature,
 to acknowledge the efforts of people that have made the research possible.
 In this spirit, please find below suggested citations of work written by ABINIT developers,
 corresponding to implementations inside of ABINIT that you have used in the present run.
 Note also that it will be of great value to readers of publications presenting these results,
 to read papers enabling them to understand the theoretical formalism and details
 of the ABINIT implementation.
 For information on why they are suggested, see also https://docs.abinit.org/theory/acknowledgments.
-
- [1] Implementation of the Projector Augmented-Wave Method in the ABINIT code.
- M. Torrent, F. Jollet, F. Bottin, G. Zerah, and X. Gonze Comput. Mat. Science 42, 337, (2008).
- Comment: PAW calculations. Strong suggestion to cite this paper.
- DOI and bibtex: see https://docs.abinit.org/theory/bibliography/#torrent2008
-
- [2] Libxc: A library of exchange and correlation functionals for density functional theory.
- M.A.L. Marques, M.J.T. Oliveira, T. Burnus, Computer Physics Communications 183, 2227 (2012).
- Comment: to be cited when LibXC is used (negative value of ixc)
- Strong suggestion to cite this paper.
- DOI and bibtex: see https://docs.abinit.org/theory/bibliography/#marques2012
-
- [3] The Abinit project: Impact, environment and recent developments.
- Computer Phys. Comm. 248, 107042 (2020).
- X.Gonze, B. Amadon, G. Antonius, F.Arnardi, L.Baguet, J.-M.Beuken,
- J.Bieder, F.Bottin, J.Bouchet, E.Bousquet, N.Brouwer, F.Bruneval,
- G.Brunin, T.Cavignac, J.-B. Charraud, Wei Chen, M.Cote, S.Cottenier,
- J.Denier, G.Geneste, Ph.Ghosez, M.Giantomassi, Y.Gillet, O.Gingras,
- D.R.Hamann, G.Hautier, Xu He, N.Helbig, N.Holzwarth, Y.Jia, F.Jollet,
- W.Lafargue-Dit-Hauret, K.Lejaeghere, M.A.L.Marques, A.Martin, C.Martins,
- H.P.C. Miranda, F.Naccarato, K. Persson, G.Petretto, V.Planes, Y.Pouillon,
- S.Prokhorenko, F.Ricci, G.-M.Rignanese, A.H.Romero, M.M.Schmitt, M.Torrent,
- M.J.van Setten, B.Van Troeye, M.J.Verstraete, G.Zerah and J.W.Zwanzig
- Comment: the fifth generic paper describing the ABINIT project.
- Note that a version of this paper, that is not formatted for Computer Phys. Comm. 
- is available at https://www.abinit.org/sites/default/files/ABINIT20.pdf .
- The licence allows the authors to put it on the Web.
- DOI and bibtex: see https://docs.abinit.org/theory/bibliography/#gonze2020
-
- [4] ABINIT: Overview, and focus on selected capabilities
- J. Chem. Phys. 152, 124102 (2020).
- A. Romero, D.C. Allan, B. Amadon, G. Antonius, T. Applencourt, L.Baguet,
- J.Bieder, F.Bottin, J.Bouchet, E.Bousquet, F.Bruneval,
- G.Brunin, D.Caliste, M.Cote,
- J.Denier, C. Dreyer, Ph.Ghosez, M.Giantomassi, Y.Gillet, O.Gingras,
- D.R.Hamann, G.Hautier, F.Jollet, G. Jomard,
- A.Martin, 
- H.P.C. Miranda, F.Naccarato, G.Petretto, N.A. Pike, V.Planes,
- S.Prokhorenko, T. Rangel, F.Ricci, G.-M.Rignanese, M.Royo, M.Stengel, M.Torrent,
- M.J.van Setten, B.Van Troeye, M.J.Verstraete, J.Wiktor, J.W.Zwanziger, and X.Gonze.
- Comment: a global overview of ABINIT, with focus on selected capabilities .
- Note that a version of this paper, that is not formatted for J. Chem. Phys 
- is available at https://www.abinit.org/sites/default/files/ABINIT20_JPC.pdf .
- The licence allows the authors to put it on the Web.
- DOI and bibtex: see https://docs.abinit.org/theory/bibliography/#romero2020
-
- [5] Recent developments in the ABINIT software package.
- Computer Phys. Comm. 205, 106 (2016).
- X.Gonze, F.Jollet, F.Abreu Araujo, D.Adams, B.Amadon, T.Applencourt,
- C.Audouze, J.-M.Beuken, J.Bieder, A.Bokhanchuk, E.Bousquet, F.Bruneval
- D.Caliste, M.Cote, F.Dahm, F.Da Pieve, M.Delaveau, M.Di Gennaro,
- B.Dorado, C.Espejo, G.Geneste, L.Genovese, A.Gerossier, M.Giantomassi,
- Y.Gillet, D.R.Hamann, L.He, G.Jomard, J.Laflamme Janssen, S.Le Roux,
- A.Levitt, A.Lherbier, F.Liu, I.Lukacevic, A.Martin, C.Martins,
- M.J.T.Oliveira, S.Ponce, Y.Pouillon, T.Rangel, G.-M.Rignanese,
- A.H.Romero, B.Rousseau, O.Rubel, A.A.Shukri, M.Stankovski, M.Torrent,
- M.J.Van Setten, B.Van Troeye, M.J.Verstraete, D.Waroquier, J.Wiktor,
- B.Xu, A.Zhou, J.W.Zwanziger.
- Comment: the fourth generic paper describing the ABINIT project.
- Note that a version of this paper, that is not formatted for Computer Phys. Comm. 
- is available at https://www.abinit.org/sites/default/files/ABINIT16.pdf .
- The licence allows the authors to put it on the Web.
- DOI and bibtex: see https://docs.abinit.org/theory/bibliography/#gonze2016
-
- Proc.   0 individual time (sec): cpu=       7364.0  wall=       7426.0

================================================================================

 Calculation completed.
.Delivered   0 WARNINGs and  50 COMMENTs to log file.
+Overall time at end (sec) : cpu=      29461.4  wall=      29703.8
