
.Version 9.2.2 of ABINIT 
.(MPI version, prepared for a x86_64_linux_gnu9.3 computer) 

.Copyright (C) 1998-2020 ABINIT group . 
 ABINIT comes with ABSOLUTELY NO WARRANTY.
 It is free software, and you are welcome to redistribute it
 under certain conditions (GNU General Public License,
 see ~abinit/COPYING or http://www.gnu.org/copyleft/gpl.txt).

 ABINIT is a project of the Universite Catholique de Louvain,
 Corning Inc. and other collaborators, see ~abinit/doc/developers/contributors.txt .
 Please read https://docs.abinit.org/theory/acknowledgments for suggested
 acknowledgments of the ABINIT effort.
 For more information, see https://www.abinit.org .

.Starting date : Wed 26 Jul 2023.
- ( at 17h21 )
  
- The starting date is more than 2 years after the initial release
- of this version of ABINIT, namely Nov 2020.
- Note that the use beyond 3 years after the release will not be supported.
- Action: please, switch to a more recent version of ABINIT.

- input  file    -> Cs2TiI6.in
- output file    -> Cs2TiI6.out
- root for input  files -> Cs2TiI6i
- root for output files -> Cs2TiI6o

- inpspheads : Reading pseudopotential header in XML form from 
-   ../../../Psps_for_tests/ATOMICDATA/Cs.GGA_PBE-JTH.xml
- inpspheads : Reading pseudopotential header in XML form from 
-   ../../../Psps_for_tests/ATOMICDATA/I.GGA_PBE-JTH.xml
- inpspheads : Reading pseudopotential header in XML form from 
-   ../../../Psps_for_tests/ATOMICDATA/Hf.GGA_PBE-JTH.xml

 DATASET    1 : space group Fm -3 m (#225); Bravais cF (face-center cubic)
================================================================================
 Values of the parameters that define the memory need for DATASET  1.
     intxc =       0    ionmov =       2      iscf =      17    lmnmax =      18
     lnmax =       6     mgfft =      72  mpssoang =       3    mqgrid =    4294
     natom =       9  nloc_mem =       2    nspden =       1   nspinor =       1
    nsppol =       1      nsym =      48    n1xccc =       1    ntypat =       3
    occopt =       1   xclevel =       2
-    mband =          42        mffmem =           1         mkmem =           3
       mpw =       13653          nfft =      373248          nkpt =          10
Pmy_natom=         3
 PAW method is used; the additional fine FFT grid is defined by:
   mgfftf=       108    nfftf =   1259712
================================================================================
P This job should need less than                     410.813 Mbytes of memory.
  Rough estimation (10% accuracy) of disk space for files :
_ WF disk file :     87.500 Mbytes ; DEN or POT disk file :      9.613 Mbytes.
================================================================================


 DATASET    2 : space group Fm -3 m (#225); Bravais cF (face-center cubic)
================================================================================
 Values of the parameters that define the memory need for DATASET  2.
     intxc =       0    ionmov =       2      iscf =      17    lmnmax =      18
     lnmax =       6     mgfft =      72  mpssoang =       3    mqgrid =    4299
     natom =       9  nloc_mem =       2    nspden =       1   nspinor =       1
    nsppol =       1      nsym =      48    n1xccc =       1    ntypat =       3
    occopt =       1   xclevel =       2
-    mband =          42        mffmem =           1         mkmem =           3
       mpw =       13697          nfft =      373248          nkpt =          10
Pmy_natom=         3
 PAW method is used; the additional fine FFT grid is defined by:
   mgfftf=       108    nfftf =   1259712
================================================================================
P This job should need less than                     410.826 Mbytes of memory.
  Rough estimation (10% accuracy) of disk space for files :
_ WF disk file :     87.782 Mbytes ; DEN or POT disk file :      9.613 Mbytes.
================================================================================


 DATASET    3 : space group Fm -3 m (#225); Bravais cF (face-center cubic)
================================================================================
 Values of the parameters that define the memory need for DATASET  3.
     intxc =       0    ionmov =       2      iscf =      17    lmnmax =      18
     lnmax =       6     mgfft =      72  mpssoang =       3    mqgrid =    4303
     natom =       9  nloc_mem =       2    nspden =       1   nspinor =       1
    nsppol =       1      nsym =      48    n1xccc =       1    ntypat =       3
    occopt =       1   xclevel =       2
-    mband =          42        mffmem =           1         mkmem =           3
       mpw =       13731          nfft =      373248          nkpt =          10
Pmy_natom=         3
 PAW method is used; the additional fine FFT grid is defined by:
   mgfftf=       108    nfftf =   1259712
================================================================================
P This job should need less than                     410.817 Mbytes of memory.
  Rough estimation (10% accuracy) of disk space for files :
_ WF disk file :     88.000 Mbytes ; DEN or POT disk file :      9.613 Mbytes.
================================================================================


 DATASET    4 : space group Fm -3 m (#225); Bravais cF (face-center cubic)
================================================================================
 Values of the parameters that define the memory need for DATASET  4.
     intxc =       0    ionmov =       2      iscf =      17    lmnmax =      18
     lnmax =       6     mgfft =      72  mpssoang =       3    mqgrid =    4307
     natom =       9  nloc_mem =       2    nspden =       1   nspinor =       1
    nsppol =       1      nsym =      48    n1xccc =       1    ntypat =       3
    occopt =       1   xclevel =       2
-    mband =          42        mffmem =           1         mkmem =           3
       mpw =       13762          nfft =      373248          nkpt =          10
Pmy_natom=         3
 PAW method is used; the additional fine FFT grid is defined by:
   mgfftf=       108    nfftf =   1259712
================================================================================
P This job should need less than                     410.802 Mbytes of memory.
  Rough estimation (10% accuracy) of disk space for files :
_ WF disk file :     88.198 Mbytes ; DEN or POT disk file :      9.613 Mbytes.
================================================================================


 DATASET    5 : space group Fm -3 m (#225); Bravais cF (face-center cubic)
================================================================================
 Values of the parameters that define the memory need for DATASET  5.
     intxc =       0    ionmov =       2      iscf =      17    lmnmax =      18
     lnmax =       6     mgfft =      72  mpssoang =       3    mqgrid =    4311
     natom =       9  nloc_mem =       2    nspden =       1   nspinor =       1
    nsppol =       1      nsym =      48    n1xccc =       1    ntypat =       3
    occopt =       1   xclevel =       2
-    mband =          42        mffmem =           1         mkmem =           3
       mpw =       13808          nfft =      373248          nkpt =          10
Pmy_natom=         3
 PAW method is used; the additional fine FFT grid is defined by:
   mgfftf=       108    nfftf =   1259712
================================================================================
P This job should need less than                     410.819 Mbytes of memory.
  Rough estimation (10% accuracy) of disk space for files :
_ WF disk file :     88.493 Mbytes ; DEN or POT disk file :      9.613 Mbytes.
================================================================================


 DATASET    6 : space group Fm -3 m (#225); Bravais cF (face-center cubic)
================================================================================
 Values of the parameters that define the memory need for DATASET  6.
     intxc =       0    ionmov =       2      iscf =      17    lmnmax =      18
     lnmax =       6     mgfft =      72  mpssoang =       3    mqgrid =    4316
     natom =       9  nloc_mem =       2    nspden =       1   nspinor =       1
    nsppol =       1      nsym =      48    n1xccc =       1    ntypat =       3
    occopt =       1   xclevel =       2
-    mband =          42        mffmem =           1         mkmem =           3
       mpw =       13842          nfft =      373248          nkpt =          10
Pmy_natom=         3
 PAW method is used; the additional fine FFT grid is defined by:
   mgfftf=       108    nfftf =   1259712
================================================================================
P This job should need less than                     410.810 Mbytes of memory.
  Rough estimation (10% accuracy) of disk space for files :
_ WF disk file :     88.711 Mbytes ; DEN or POT disk file :      9.613 Mbytes.
================================================================================


 DATASET    7 : space group Fm -3 m (#225); Bravais cF (face-center cubic)
================================================================================
 Values of the parameters that define the memory need for DATASET  7.
     intxc =       0    ionmov =       2      iscf =      17    lmnmax =      18
     lnmax =       6     mgfft =      72  mpssoang =       3    mqgrid =    4320
     natom =       9  nloc_mem =       2    nspden =       1   nspinor =       1
    nsppol =       1      nsym =      48    n1xccc =       1    ntypat =       3
    occopt =       1   xclevel =       2
-    mband =          42        mffmem =           1         mkmem =           3
       mpw =       13893          nfft =      373248          nkpt =          10
Pmy_natom=         3
 PAW method is used; the additional fine FFT grid is defined by:
   mgfftf=       108    nfftf =   1259712
================================================================================
P This job should need less than                     410.840 Mbytes of memory.
  Rough estimation (10% accuracy) of disk space for files :
_ WF disk file :     89.038 Mbytes ; DEN or POT disk file :      9.613 Mbytes.
================================================================================


 DATASET    8 : space group Fm -3 m (#225); Bravais cF (face-center cubic)
================================================================================
 Values of the parameters that define the memory need for DATASET  8.
     intxc =       0    ionmov =       2      iscf =      17    lmnmax =      18
     lnmax =       6     mgfft =      72  mpssoang =       3    mqgrid =    4324
     natom =       9  nloc_mem =       2    nspden =       1   nspinor =       1
    nsppol =       1      nsym =      48    n1xccc =       1    ntypat =       3
    occopt =       1   xclevel =       2
-    mband =          42        mffmem =           1         mkmem =           3
       mpw =       13932          nfft =      373248          nkpt =          10
Pmy_natom=         3
 PAW method is used; the additional fine FFT grid is defined by:
   mgfftf=       108    nfftf =   1259712
================================================================================
P This job should need less than                     410.844 Mbytes of memory.
  Rough estimation (10% accuracy) of disk space for files :
_ WF disk file :     89.288 Mbytes ; DEN or POT disk file :      9.613 Mbytes.
================================================================================


 DATASET    9 : space group Fm -3 m (#225); Bravais cF (face-center cubic)
================================================================================
 Values of the parameters that define the memory need for DATASET  9.
     intxc =       0    ionmov =       2      iscf =      17    lmnmax =      18
     lnmax =       6     mgfft =      72  mpssoang =       3    mqgrid =    4329
     natom =       9  nloc_mem =       2    nspden =       1   nspinor =       1
    nsppol =       1      nsym =      48    n1xccc =       1    ntypat =       3
    occopt =       1   xclevel =       2
-    mband =          42        mffmem =           1         mkmem =           3
       mpw =       13966          nfft =      373248          nkpt =          10
Pmy_natom=         3
 PAW method is used; the additional fine FFT grid is defined by:
   mgfftf=       108    nfftf =   1259712
================================================================================
P This job should need less than                     410.835 Mbytes of memory.
  Rough estimation (10% accuracy) of disk space for files :
_ WF disk file :     89.506 Mbytes ; DEN or POT disk file :      9.613 Mbytes.
================================================================================


 DATASET   10 : space group Fm -3 m (#225); Bravais cF (face-center cubic)
================================================================================
 Values of the parameters that define the memory need for DATASET 10.
     intxc =       0    ionmov =       2      iscf =      17    lmnmax =      18
     lnmax =       6     mgfft =      72  mpssoang =       3    mqgrid =    4333
     natom =       9  nloc_mem =       2    nspden =       1   nspinor =       1
    nsppol =       1      nsym =      48    n1xccc =       1    ntypat =       3
    occopt =       1   xclevel =       2
-    mband =          42        mffmem =           1         mkmem =           3
       mpw =       14012          nfft =      373248          nkpt =          10
Pmy_natom=         3
 PAW method is used; the additional fine FFT grid is defined by:
   mgfftf=       108    nfftf =   1259712
================================================================================
P This job should need less than                     410.854 Mbytes of memory.
  Rough estimation (10% accuracy) of disk space for files :
_ WF disk file :     89.801 Mbytes ; DEN or POT disk file :      9.613 Mbytes.
================================================================================


 DATASET   11 : space group Fm -3 m (#225); Bravais cF (face-center cubic)
================================================================================
 Values of the parameters that define the memory need for DATASET 11.
     intxc =       0    ionmov =       2      iscf =      17    lmnmax =      18
     lnmax =       6     mgfft =      72  mpssoang =       3    mqgrid =    4341
     natom =       9  nloc_mem =       2    nspden =       1   nspinor =       1
    nsppol =       1      nsym =      48    n1xccc =       1    ntypat =       3
    occopt =       1   xclevel =       2
-    mband =          42        mffmem =           1         mkmem =           3
       mpw =       14095          nfft =      373248          nkpt =          10
Pmy_natom=         3
 PAW method is used; the additional fine FFT grid is defined by:
   mgfftf=       108    nfftf =   1259712
================================================================================
P This job should need less than                     410.875 Mbytes of memory.
  Rough estimation (10% accuracy) of disk space for files :
_ WF disk file :     90.333 Mbytes ; DEN or POT disk file :      9.613 Mbytes.
================================================================================


 DATASET   12 : space group Fm -3 m (#225); Bravais cF (face-center cubic)
================================================================================
 Values of the parameters that define the memory need for DATASET 12.
     intxc =       0    ionmov =       2      iscf =      17    lmnmax =      18
     lnmax =       6     mgfft =      72  mpssoang =       3    mqgrid =    4350
     natom =       9  nloc_mem =       2    nspden =       1   nspinor =       1
    nsppol =       1      nsym =      48    n1xccc =       1    ntypat =       3
    occopt =       1   xclevel =       2
-    mband =          42        mffmem =           1         mkmem =           3
       mpw =       14176          nfft =      373248          nkpt =          10
Pmy_natom=         3
 PAW method is used; the additional fine FFT grid is defined by:
   mgfftf=       108    nfftf =   1259712
================================================================================
P This job should need less than                     410.891 Mbytes of memory.
  Rough estimation (10% accuracy) of disk space for files :
_ WF disk file :     90.852 Mbytes ; DEN or POT disk file :      9.613 Mbytes.
================================================================================


 DATASET   13 : space group Fm -3 m (#225); Bravais cF (face-center cubic)
================================================================================
 Values of the parameters that define the memory need for DATASET 13.
     intxc =       0    ionmov =       2      iscf =      17    lmnmax =      18
     lnmax =       6     mgfft =      72  mpssoang =       3    mqgrid =    4359
     natom =       9  nloc_mem =       2    nspden =       1   nspinor =       1
    nsppol =       1      nsym =      48    n1xccc =       1    ntypat =       3
    occopt =       1   xclevel =       2
-    mband =          42        mffmem =           1         mkmem =           3
       mpw =       14260          nfft =      373248          nkpt =          10
Pmy_natom=         3
 PAW method is used; the additional fine FFT grid is defined by:
   mgfftf=       108    nfftf =   1259712
================================================================================
P This job should need less than                     410.915 Mbytes of memory.
  Rough estimation (10% accuracy) of disk space for files :
_ WF disk file :     91.390 Mbytes ; DEN or POT disk file :      9.613 Mbytes.
================================================================================


 DATASET   14 : space group Fm -3 m (#225); Bravais cF (face-center cubic)
================================================================================
 Values of the parameters that define the memory need for DATASET 14.
     intxc =       0    ionmov =       2      iscf =      17    lmnmax =      18
     lnmax =       6     mgfft =      72  mpssoang =       3    mqgrid =    4367
     natom =       9  nloc_mem =       2    nspden =       1   nspinor =       1
    nsppol =       1      nsym =      48    n1xccc =       1    ntypat =       3
    occopt =       1   xclevel =       2
-    mband =          42        mffmem =           1         mkmem =           3
       mpw =       14340          nfft =      373248          nkpt =          10
Pmy_natom=         3
 PAW method is used; the additional fine FFT grid is defined by:
   mgfftf=       108    nfftf =   1259712
================================================================================
P This job should need less than                     410.931 Mbytes of memory.
  Rough estimation (10% accuracy) of disk space for files :
_ WF disk file :     91.903 Mbytes ; DEN or POT disk file :      9.613 Mbytes.
================================================================================


 DATASET   15 : space group Fm -3 m (#225); Bravais cF (face-center cubic)
================================================================================
 Values of the parameters that define the memory need for DATASET 15.
     intxc =       0    ionmov =       2      iscf =      17    lmnmax =      18
     lnmax =       6     mgfft =      72  mpssoang =       3    mqgrid =    4376
     natom =       9  nloc_mem =       2    nspden =       1   nspinor =       1
    nsppol =       1      nsym =      48    n1xccc =       1    ntypat =       3
    occopt =       1   xclevel =       2
-    mband =          42        mffmem =           1         mkmem =           3
       mpw =       14433          nfft =      373248          nkpt =          10
Pmy_natom=         3
 PAW method is used; the additional fine FFT grid is defined by:
   mgfftf=       108    nfftf =   1259712
================================================================================
P This job should need less than                     410.978 Mbytes of memory.
  Rough estimation (10% accuracy) of disk space for files :
_ WF disk file :     92.499 Mbytes ; DEN or POT disk file :      9.613 Mbytes.
================================================================================


 DATASET   16 : space group Fm -3 m (#225); Bravais cF (face-center cubic)
================================================================================
 Values of the parameters that define the memory need for DATASET 16.
     intxc =       0    ionmov =       2      iscf =      17    lmnmax =      18
     lnmax =       6     mgfft =      72  mpssoang =       3    mqgrid =    4384
     natom =       9  nloc_mem =       2    nspden =       1   nspinor =       1
    nsppol =       1      nsym =      48    n1xccc =       1    ntypat =       3
    occopt =       1   xclevel =       2
-    mband =          42        mffmem =           1         mkmem =           3
       mpw =       14519          nfft =      373248          nkpt =          10
Pmy_natom=         3
 PAW method is used; the additional fine FFT grid is defined by:
   mgfftf=       108    nfftf =   1259712
================================================================================
P This job should need less than                     411.010 Mbytes of memory.
  Rough estimation (10% accuracy) of disk space for files :
_ WF disk file :     93.050 Mbytes ; DEN or POT disk file :      9.613 Mbytes.
================================================================================


 DATASET   17 : space group Fm -3 m (#225); Bravais cF (face-center cubic)
================================================================================
 Values of the parameters that define the memory need for DATASET 17.
     intxc =       0    ionmov =       2      iscf =      17    lmnmax =      18
     lnmax =       6     mgfft =      72  mpssoang =       3    mqgrid =    4393
     natom =       9  nloc_mem =       2    nspden =       1   nspinor =       1
    nsppol =       1      nsym =      48    n1xccc =       1    ntypat =       3
    occopt =       1   xclevel =       2
-    mband =          42        mffmem =           1         mkmem =           3
       mpw =       14609          nfft =      373248          nkpt =          10
Pmy_natom=         3
 PAW method is used; the additional fine FFT grid is defined by:
   mgfftf=       108    nfftf =   1259712
================================================================================
P This job should need less than                     411.054 Mbytes of memory.
  Rough estimation (10% accuracy) of disk space for files :
_ WF disk file :     93.627 Mbytes ; DEN or POT disk file :      9.613 Mbytes.
================================================================================


 DATASET   18 : space group Fm -3 m (#225); Bravais cF (face-center cubic)
================================================================================
 Values of the parameters that define the memory need for DATASET 18.
     intxc =       0    ionmov =       2      iscf =      17    lmnmax =      18
     lnmax =       6     mgfft =      72  mpssoang =       3    mqgrid =    4402
     natom =       9  nloc_mem =       2    nspden =       1   nspinor =       1
    nsppol =       1      nsym =      48    n1xccc =       1    ntypat =       3
    occopt =       1   xclevel =       2
-    mband =          42        mffmem =           1         mkmem =           3
       mpw =       14686          nfft =      373248          nkpt =          10
Pmy_natom=         3
 PAW method is used; the additional fine FFT grid is defined by:
   mgfftf=       108    nfftf =   1259712
================================================================================
P This job should need less than                     411.069 Mbytes of memory.
  Rough estimation (10% accuracy) of disk space for files :
_ WF disk file :     94.120 Mbytes ; DEN or POT disk file :      9.613 Mbytes.
================================================================================


 DATASET   19 : space group Fm -3 m (#225); Bravais cF (face-center cubic)
================================================================================
 Values of the parameters that define the memory need for DATASET 19.
     intxc =       0    ionmov =       2      iscf =      17    lmnmax =      18
     lnmax =       6     mgfft =      72  mpssoang =       3    mqgrid =    4410
     natom =       9  nloc_mem =       2    nspden =       1   nspinor =       1
    nsppol =       1      nsym =      48    n1xccc =       1    ntypat =       3
    occopt =       1   xclevel =       2
-    mband =          42        mffmem =           1         mkmem =           3
       mpw =       14775          nfft =      373248          nkpt =          10
Pmy_natom=         3
 PAW method is used; the additional fine FFT grid is defined by:
   mgfftf=       120    nfftf =   1728000
================================================================================
P This job should need less than                     529.775 Mbytes of memory.
  Rough estimation (10% accuracy) of disk space for files :
_ WF disk file :     94.690 Mbytes ; DEN or POT disk file :     13.186 Mbytes.
================================================================================


 DATASET   20 : space group Fm -3 m (#225); Bravais cF (face-center cubic)
================================================================================
 Values of the parameters that define the memory need for DATASET 20.
     intxc =       0    ionmov =       2      iscf =      17    lmnmax =      18
     lnmax =       6     mgfft =      72  mpssoang =       3    mqgrid =    4419
     natom =       9  nloc_mem =       2    nspden =       1   nspinor =       1
    nsppol =       1      nsym =      48    n1xccc =       1    ntypat =       3
    occopt =       1   xclevel =       2
-    mband =          42        mffmem =           1         mkmem =           3
       mpw =       14861          nfft =      373248          nkpt =          10
Pmy_natom=         3
 PAW method is used; the additional fine FFT grid is defined by:
   mgfftf=       120    nfftf =   1728000
================================================================================
P This job should need less than                     529.757 Mbytes of memory.
  Rough estimation (10% accuracy) of disk space for files :
_ WF disk file :     95.242 Mbytes ; DEN or POT disk file :     13.186 Mbytes.
================================================================================


 DATASET   21 : space group Fm -3 m (#225); Bravais cF (face-center cubic)
================================================================================
 Values of the parameters that define the memory need for DATASET 21.
     intxc =       0    ionmov =       2      iscf =      17    lmnmax =      18
     lnmax =       6     mgfft =      72  mpssoang =       3    mqgrid =    4432
     natom =       9  nloc_mem =       2    nspden =       1   nspinor =       1
    nsppol =       1      nsym =      48    n1xccc =       1    ntypat =       3
    occopt =       1   xclevel =       2
-    mband =          42        mffmem =           1         mkmem =           3
       mpw =       14983          nfft =      373248          nkpt =          10
Pmy_natom=         3
 PAW method is used; the additional fine FFT grid is defined by:
   mgfftf=       120    nfftf =   1728000
================================================================================
P This job should need less than                     529.716 Mbytes of memory.
  Rough estimation (10% accuracy) of disk space for files :
_ WF disk file :     96.023 Mbytes ; DEN or POT disk file :     13.186 Mbytes.
================================================================================


 DATASET   22 : space group Fm -3 m (#225); Bravais cF (face-center cubic)
================================================================================
 Values of the parameters that define the memory need for DATASET 22.
     intxc =       0    ionmov =       2      iscf =      17    lmnmax =      18
     lnmax =       6     mgfft =      72  mpssoang =       3    mqgrid =    4444
     natom =       9  nloc_mem =       2    nspden =       1   nspinor =       1
    nsppol =       1      nsym =      48    n1xccc =       1    ntypat =       3
    occopt =       1   xclevel =       2
-    mband =          42        mffmem =           1         mkmem =           3
       mpw =       15126          nfft =      373248          nkpt =          10
Pmy_natom=         3
 PAW method is used; the additional fine FFT grid is defined by:
   mgfftf=       120    nfftf =   1728000
================================================================================
P This job should need less than                     529.724 Mbytes of memory.
  Rough estimation (10% accuracy) of disk space for files :
_ WF disk file :     96.940 Mbytes ; DEN or POT disk file :     13.186 Mbytes.
================================================================================


 DATASET   23 : space group Fm -3 m (#225); Bravais cF (face-center cubic)
================================================================================
 Values of the parameters that define the memory need for DATASET 23.
     intxc =       0    ionmov =       2      iscf =      17    lmnmax =      18
     lnmax =       6     mgfft =      72  mpssoang =       3    mqgrid =    4457
     natom =       9  nloc_mem =       2    nspden =       1   nspinor =       1
    nsppol =       1      nsym =      48    n1xccc =       1    ntypat =       3
    occopt =       1   xclevel =       2
-    mband =          42        mffmem =           1         mkmem =           3
       mpw =       15251          nfft =      373248          nkpt =          10
Pmy_natom=         3
 PAW method is used; the additional fine FFT grid is defined by:
   mgfftf=       120    nfftf =   1728000
================================================================================
P This job should need less than                     529.699 Mbytes of memory.
  Rough estimation (10% accuracy) of disk space for files :
_ WF disk file :     97.741 Mbytes ; DEN or POT disk file :     13.186 Mbytes.
================================================================================


 DATASET   24 : space group Fm -3 m (#225); Bravais cF (face-center cubic)
================================================================================
 Values of the parameters that define the memory need for DATASET 24.
     intxc =       0    ionmov =       2      iscf =      17    lmnmax =      18
     lnmax =       6     mgfft =      72  mpssoang =       3    mqgrid =    4470
     natom =       9  nloc_mem =       2    nspden =       1   nspinor =       1
    nsppol =       1      nsym =      48    n1xccc =       1    ntypat =       3
    occopt =       1   xclevel =       2
-    mband =          42        mffmem =           1         mkmem =           3
       mpw =       15388          nfft =      373248          nkpt =          10
Pmy_natom=         3
 PAW method is used; the additional fine FFT grid is defined by:
   mgfftf=       120    nfftf =   1728000
================================================================================
P This job should need less than                     529.700 Mbytes of memory.
  Rough estimation (10% accuracy) of disk space for files :
_ WF disk file :     98.619 Mbytes ; DEN or POT disk file :     13.186 Mbytes.
================================================================================


 DATASET   25 : space group Fm -3 m (#225); Bravais cF (face-center cubic)
================================================================================
 Values of the parameters that define the memory need for DATASET 25.
     intxc =       0    ionmov =       2      iscf =      17    lmnmax =      18
     lnmax =       6     mgfft =      72  mpssoang =       3    mqgrid =    4483
     natom =       9  nloc_mem =       2    nspden =       1   nspinor =       1
    nsppol =       1      nsym =      48    n1xccc =       1    ntypat =       3
    occopt =       1   xclevel =       2
-    mband =          42        mffmem =           1         mkmem =           3
       mpw =       15530          nfft =      373248          nkpt =          10
Pmy_natom=         3
 PAW method is used; the additional fine FFT grid is defined by:
   mgfftf=       120    nfftf =   1728000
================================================================================
P This job should need less than                     529.718 Mbytes of memory.
  Rough estimation (10% accuracy) of disk space for files :
_ WF disk file :     99.529 Mbytes ; DEN or POT disk file :     13.186 Mbytes.
================================================================================


 DATASET   26 : space group Fm -3 m (#225); Bravais cF (face-center cubic)
================================================================================
 Values of the parameters that define the memory need for DATASET 26.
     intxc =       0    ionmov =       2      iscf =      17    lmnmax =      18
     lnmax =       6     mgfft =      72  mpssoang =       3    mqgrid =    4496
     natom =       9  nloc_mem =       2    nspden =       1   nspinor =       1
    nsppol =       1      nsym =      48    n1xccc =       1    ntypat =       3
    occopt =       1   xclevel =       2
-    mband =          42        mffmem =           1         mkmem =           3
       mpw =       15669          nfft =      373248          nkpt =          10
Pmy_natom=         3
 PAW method is used; the additional fine FFT grid is defined by:
   mgfftf=       120    nfftf =   1728000
================================================================================
P This job should need less than                     529.731 Mbytes of memory.
  Rough estimation (10% accuracy) of disk space for files :
_ WF disk file :    100.420 Mbytes ; DEN or POT disk file :     13.186 Mbytes.
================================================================================


 DATASET   27 : space group Fm -3 m (#225); Bravais cF (face-center cubic)
================================================================================
 Values of the parameters that define the memory need for DATASET 27.
     intxc =       0    ionmov =       2      iscf =      17    lmnmax =      18
     lnmax =       6     mgfft =      72  mpssoang =       3    mqgrid =    4509
     natom =       9  nloc_mem =       2    nspden =       1   nspinor =       1
    nsppol =       1      nsym =      48    n1xccc =       1    ntypat =       3
    occopt =       1   xclevel =       2
-    mband =          42        mffmem =           1         mkmem =           3
       mpw =       15809          nfft =      373248          nkpt =          10
Pmy_natom=         3
 PAW method is used; the additional fine FFT grid is defined by:
   mgfftf=       120    nfftf =   1728000
================================================================================
P This job should need less than                     529.750 Mbytes of memory.
  Rough estimation (10% accuracy) of disk space for files :
_ WF disk file :    101.317 Mbytes ; DEN or POT disk file :     13.186 Mbytes.
================================================================================


 DATASET   28 : space group Fm -3 m (#225); Bravais cF (face-center cubic)
================================================================================
 Values of the parameters that define the memory need for DATASET 28.
     intxc =       0    ionmov =       2      iscf =      17    lmnmax =      18
     lnmax =       6     mgfft =      72  mpssoang =       3    mqgrid =    4522
     natom =       9  nloc_mem =       2    nspden =       1   nspinor =       1
    nsppol =       1      nsym =      48    n1xccc =       1    ntypat =       3
    occopt =       1   xclevel =       2
-    mband =          42        mffmem =           1         mkmem =           3
       mpw =       15938          nfft =      373248          nkpt =          10
Pmy_natom=         3
 PAW method is used; the additional fine FFT grid is defined by:
   mgfftf=       120    nfftf =   1728000
================================================================================
P This job should need less than                     529.749 Mbytes of memory.
  Rough estimation (10% accuracy) of disk space for files :
_ WF disk file :    102.144 Mbytes ; DEN or POT disk file :     13.186 Mbytes.
================================================================================


 DATASET   29 : space group Fm -3 m (#225); Bravais cF (face-center cubic)
================================================================================
 Values of the parameters that define the memory need for DATASET 29.
     intxc =       0    ionmov =       2      iscf =      17    lmnmax =      18
     lnmax =       6     mgfft =      72  mpssoang =       3    mqgrid =    4534
     natom =       9  nloc_mem =       2    nspden =       1   nspinor =       1
    nsppol =       1      nsym =      48    n1xccc =       1    ntypat =       3
    occopt =       1   xclevel =       2
-    mband =          42        mffmem =           1         mkmem =           3
       mpw =       16088          nfft =      373248          nkpt =          10
Pmy_natom=         3
 PAW method is used; the additional fine FFT grid is defined by:
   mgfftf=       120    nfftf =   1728000
================================================================================
P This job should need less than                     529.797 Mbytes of memory.
  Rough estimation (10% accuracy) of disk space for files :
_ WF disk file :    103.105 Mbytes ; DEN or POT disk file :     13.186 Mbytes.
================================================================================


 DATASET   30 : space group Fm -3 m (#225); Bravais cF (face-center cubic)
================================================================================
 Values of the parameters that define the memory need for DATASET 30.
     intxc =       0    ionmov =       2      iscf =      17    lmnmax =      18
     lnmax =       6     mgfft =      72  mpssoang =       3    mqgrid =    4547
     natom =       9  nloc_mem =       2    nspden =       1   nspinor =       1
    nsppol =       1      nsym =      48    n1xccc =       1    ntypat =       3
    occopt =       1   xclevel =       2
-    mband =          42        mffmem =           1         mkmem =           3
       mpw =       16211          nfft =      373248          nkpt =          10
Pmy_natom=         3
 PAW method is used; the additional fine FFT grid is defined by:
   mgfftf=       120    nfftf =   1728000
================================================================================
P This job should need less than                     529.789 Mbytes of memory.
  Rough estimation (10% accuracy) of disk space for files :
_ WF disk file :    103.893 Mbytes ; DEN or POT disk file :     13.186 Mbytes.
================================================================================


 DATASET   31 : space group Fm -3 m (#225); Bravais cF (face-center cubic)
================================================================================
 Values of the parameters that define the memory need for DATASET 31.
     intxc =       0    ionmov =       2      iscf =      17    lmnmax =      18
     lnmax =       6     mgfft =      72  mpssoang =       3    mqgrid =    4565
     natom =       9  nloc_mem =       2    nspden =       1   nspinor =       1
    nsppol =       1      nsym =      48    n1xccc =       1    ntypat =       3
    occopt =       1   xclevel =       2
-    mband =          42        mffmem =           1         mkmem =           3
       mpw =       16406          nfft =      373248          nkpt =          10
Pmy_natom=         3
 PAW method is used; the additional fine FFT grid is defined by:
   mgfftf=       120    nfftf =   1728000
================================================================================
P This job should need less than                     529.850 Mbytes of memory.
  Rough estimation (10% accuracy) of disk space for files :
_ WF disk file :    105.143 Mbytes ; DEN or POT disk file :     13.186 Mbytes.
================================================================================


 DATASET   32 : space group Fm -3 m (#225); Bravais cF (face-center cubic)
================================================================================
 Values of the parameters that define the memory need for DATASET 32.
     intxc =       0    ionmov =       2      iscf =      17    lmnmax =      18
     lnmax =       6     mgfft =      72  mpssoang =       3    mqgrid =    4582
     natom =       9  nloc_mem =       2    nspden =       1   nspinor =       1
    nsppol =       1      nsym =      48    n1xccc =       1    ntypat =       3
    occopt =       1   xclevel =       2
-    mband =          42        mffmem =           1         mkmem =           3
       mpw =       16564          nfft =      373248          nkpt =          10
Pmy_natom=         3
 PAW method is used; the additional fine FFT grid is defined by:
   mgfftf=       120    nfftf =   1728000
================================================================================
P This job should need less than                     529.835 Mbytes of memory.
  Rough estimation (10% accuracy) of disk space for files :
_ WF disk file :    106.156 Mbytes ; DEN or POT disk file :     13.186 Mbytes.
================================================================================


 DATASET   33 : space group Fm -3 m (#225); Bravais cF (face-center cubic)
================================================================================
 Values of the parameters that define the memory need for DATASET 33.
     intxc =       0    ionmov =       2      iscf =      17    lmnmax =      18
     lnmax =       6     mgfft =      72  mpssoang =       3    mqgrid =    4599
     natom =       9  nloc_mem =       2    nspden =       1   nspinor =       1
    nsppol =       1      nsym =      48    n1xccc =       1    ntypat =       3
    occopt =       1   xclevel =       2
-    mband =          42        mffmem =           1         mkmem =           3
       mpw =       16744          nfft =      373248          nkpt =          10
Pmy_natom=         3
 PAW method is used; the additional fine FFT grid is defined by:
   mgfftf=       120    nfftf =   1728000
================================================================================
P This job should need less than                     529.876 Mbytes of memory.
  Rough estimation (10% accuracy) of disk space for files :
_ WF disk file :    107.309 Mbytes ; DEN or POT disk file :     13.186 Mbytes.
================================================================================


 DATASET   34 : space group Fm -3 m (#225); Bravais cF (face-center cubic)
================================================================================
 Values of the parameters that define the memory need for DATASET 34.
     intxc =       0    ionmov =       2      iscf =      17    lmnmax =      18
     lnmax =       6     mgfft =      72  mpssoang =       3    mqgrid =    4616
     natom =       9  nloc_mem =       2    nspden =       1   nspinor =       1
    nsppol =       1      nsym =      48    n1xccc =       1    ntypat =       3
    occopt =       1   xclevel =       2
-    mband =          42        mffmem =           1         mkmem =           3
       mpw =       16943          nfft =      373248          nkpt =          10
Pmy_natom=         3
 PAW method is used; the additional fine FFT grid is defined by:
   mgfftf=       120    nfftf =   1728000
================================================================================
P This job should need less than                     529.961 Mbytes of memory.
  Rough estimation (10% accuracy) of disk space for files :
_ WF disk file :    108.584 Mbytes ; DEN or POT disk file :     13.186 Mbytes.
================================================================================


 DATASET   35 : space group Fm -3 m (#225); Bravais cF (face-center cubic)
================================================================================
 Values of the parameters that define the memory need for DATASET 35.
     intxc =       0    ionmov =       2      iscf =      17    lmnmax =      18
     lnmax =       6     mgfft =      72  mpssoang =       3    mqgrid =    4633
     natom =       9  nloc_mem =       2    nspden =       1   nspinor =       1
    nsppol =       1      nsym =      48    n1xccc =       1    ntypat =       3
    occopt =       1   xclevel =       2
-    mband =          42        mffmem =           1         mkmem =           3
       mpw =       17123          nfft =      373248          nkpt =          10
Pmy_natom=         3
 PAW method is used; the additional fine FFT grid is defined by:
   mgfftf=       120    nfftf =   1728000
================================================================================
P This job should need less than                     530.011 Mbytes of memory.
  Rough estimation (10% accuracy) of disk space for files :
_ WF disk file :    109.738 Mbytes ; DEN or POT disk file :     13.186 Mbytes.
================================================================================


 DATASET   36 : space group Fm -3 m (#225); Bravais cF (face-center cubic)
================================================================================
 Values of the parameters that define the memory need for DATASET 36.
     intxc =       0    ionmov =       2      iscf =      17    lmnmax =      18
     lnmax =       6     mgfft =      75  mpssoang =       3    mqgrid =    4650
     natom =       9  nloc_mem =       2    nspden =       1   nspinor =       1
    nsppol =       1      nsym =      48    n1xccc =       1    ntypat =       3
    occopt =       1   xclevel =       2
-    mband =          42        mffmem =           1         mkmem =           3
       mpw =       17321          nfft =      421875          nkpt =          10
Pmy_natom=         3
 PAW method is used; the additional fine FFT grid is defined by:
   mgfftf=       120    nfftf =   1728000
================================================================================
P This job should need less than                     537.341 Mbytes of memory.
  Rough estimation (10% accuracy) of disk space for files :
_ WF disk file :    111.007 Mbytes ; DEN or POT disk file :     13.186 Mbytes.
================================================================================


 DATASET   37 : space group Fm -3 m (#225); Bravais cF (face-center cubic)
================================================================================
 Values of the parameters that define the memory need for DATASET 37.
     intxc =       0    ionmov =       2      iscf =      17    lmnmax =      18
     lnmax =       6     mgfft =      75  mpssoang =       3    mqgrid =    4667
     natom =       9  nloc_mem =       2    nspden =       1   nspinor =       1
    nsppol =       1      nsym =      48    n1xccc =       1    ntypat =       3
    occopt =       1   xclevel =       2
-    mband =          42        mffmem =           1         mkmem =           3
       mpw =       17509          nfft =      421875          nkpt =          10
Pmy_natom=         3
 PAW method is used; the additional fine FFT grid is defined by:
   mgfftf=       120    nfftf =   1728000
================================================================================
P This job should need less than                     537.418 Mbytes of memory.
  Rough estimation (10% accuracy) of disk space for files :
_ WF disk file :    112.212 Mbytes ; DEN or POT disk file :     13.186 Mbytes.
================================================================================


 DATASET   38 : space group Fm -3 m (#225); Bravais cF (face-center cubic)
================================================================================
 Values of the parameters that define the memory need for DATASET 38.
     intxc =       0    ionmov =       2      iscf =      17    lmnmax =      18
     lnmax =       6     mgfft =      75  mpssoang =       3    mqgrid =    4685
     natom =       9  nloc_mem =       2    nspden =       1   nspinor =       1
    nsppol =       1      nsym =      48    n1xccc =       1    ntypat =       3
    occopt =       1   xclevel =       2
-    mband =          42        mffmem =           1         mkmem =           3
       mpw =       17705          nfft =      421875          nkpt =          10
Pmy_natom=         3
 PAW method is used; the additional fine FFT grid is defined by:
   mgfftf=       120    nfftf =   1728000
================================================================================
P This job should need less than                     537.518 Mbytes of memory.
  Rough estimation (10% accuracy) of disk space for files :
_ WF disk file :    113.468 Mbytes ; DEN or POT disk file :     13.186 Mbytes.
================================================================================


 DATASET   39 : space group Fm -3 m (#225); Bravais cF (face-center cubic)
================================================================================
 Values of the parameters that define the memory need for DATASET 39.
     intxc =       0    ionmov =       2      iscf =      17    lmnmax =      18
     lnmax =       6     mgfft =      75  mpssoang =       3    mqgrid =    4702
     natom =       9  nloc_mem =       2    nspden =       1   nspinor =       1
    nsppol =       1      nsym =      48    n1xccc =       1    ntypat =       3
    occopt =       1   xclevel =       2
-    mband =          42        mffmem =           1         mkmem =           3
       mpw =       17908          nfft =      421875          nkpt =          10
Pmy_natom=         3
 PAW method is used; the additional fine FFT grid is defined by:
   mgfftf=       120    nfftf =   1728000
================================================================================
P This job should need less than                     537.637 Mbytes of memory.
  Rough estimation (10% accuracy) of disk space for files :
_ WF disk file :    114.769 Mbytes ; DEN or POT disk file :     13.186 Mbytes.
================================================================================


 DATASET   40 : space group Fm -3 m (#225); Bravais cF (face-center cubic)
================================================================================
 Values of the parameters that define the memory need for DATASET 40.
     intxc =       0    ionmov =       2      iscf =      17    lmnmax =      18
     lnmax =       6     mgfft =      75  mpssoang =       3    mqgrid =    4719
     natom =       9  nloc_mem =       2    nspden =       1   nspinor =       1
    nsppol =       1      nsym =      48    n1xccc =       1    ntypat =       3
    occopt =       1   xclevel =       2
-    mband =          42        mffmem =           1         mkmem =           3
       mpw =       18102          nfft =      421875          nkpt =          10
Pmy_natom=         3
 PAW method is used; the additional fine FFT grid is defined by:
   mgfftf=       120    nfftf =   1728000
================================================================================
P This job should need less than                     537.741 Mbytes of memory.
  Rough estimation (10% accuracy) of disk space for files :
_ WF disk file :    116.012 Mbytes ; DEN or POT disk file :     13.186 Mbytes.
================================================================================

--------------------------------------------------------------------------------
------------- Echo of variables that govern the present computation ------------
--------------------------------------------------------------------------------
-
- outvars: echo of selected default values                                      
-   iomode0 =  0 , fftalg0 =112 , wfoptalg0 = 10
-
- outvars: echo of global parameters not present in the input file              
-  max_nthreads =    0
-
 -outvars: echo values of preprocessed input variables --------
            acell1     1.6061709500E+01  1.6061709500E+01  1.6061709500E+01 Bohr
            acell2     1.6077755164E+01  1.6077755164E+01  1.6077755164E+01 Bohr
            acell3     1.6093800828E+01  1.6093800828E+01  1.6093800828E+01 Bohr
            acell4     1.6109846491E+01  1.6109846491E+01  1.6109846491E+01 Bohr
            acell5     1.6125892155E+01  1.6125892155E+01  1.6125892155E+01 Bohr
            acell6     1.6141937819E+01  1.6141937819E+01  1.6141937819E+01 Bohr
            acell7     1.6157983483E+01  1.6157983483E+01  1.6157983483E+01 Bohr
            acell8     1.6174029147E+01  1.6174029147E+01  1.6174029147E+01 Bohr
            acell9     1.6190074811E+01  1.6190074811E+01  1.6190074811E+01 Bohr
            acell10    1.6206120474E+01  1.6206120474E+01  1.6206120474E+01 Bohr
            acell11    1.6238211802E+01  1.6238211802E+01  1.6238211802E+01 Bohr
            acell12    1.6270303130E+01  1.6270303130E+01  1.6270303130E+01 Bohr
            acell13    1.6302394457E+01  1.6302394457E+01  1.6302394457E+01 Bohr
            acell14    1.6334485785E+01  1.6334485785E+01  1.6334485785E+01 Bohr
            acell15    1.6366577113E+01  1.6366577113E+01  1.6366577113E+01 Bohr
            acell16    1.6398668440E+01  1.6398668440E+01  1.6398668440E+01 Bohr
            acell17    1.6430759768E+01  1.6430759768E+01  1.6430759768E+01 Bohr
            acell18    1.6462851096E+01  1.6462851096E+01  1.6462851096E+01 Bohr
            acell19    1.6494942423E+01  1.6494942423E+01  1.6494942423E+01 Bohr
            acell20    1.6527033751E+01  1.6527033751E+01  1.6527033751E+01 Bohr
            acell21    1.6575170743E+01  1.6575170743E+01  1.6575170743E+01 Bohr
            acell22    1.6623307734E+01  1.6623307734E+01  1.6623307734E+01 Bohr
            acell23    1.6671444726E+01  1.6671444726E+01  1.6671444726E+01 Bohr
            acell24    1.6719581717E+01  1.6719581717E+01  1.6719581717E+01 Bohr
            acell25    1.6767718709E+01  1.6767718709E+01  1.6767718709E+01 Bohr
            acell26    1.6815855700E+01  1.6815855700E+01  1.6815855700E+01 Bohr
            acell27    1.6863992692E+01  1.6863992692E+01  1.6863992692E+01 Bohr
            acell28    1.6912129683E+01  1.6912129683E+01  1.6912129683E+01 Bohr
            acell29    1.6960266675E+01  1.6960266675E+01  1.6960266675E+01 Bohr
            acell30    1.7008403666E+01  1.7008403666E+01  1.7008403666E+01 Bohr
            acell31    1.7072586322E+01  1.7072586322E+01  1.7072586322E+01 Bohr
            acell32    1.7136768977E+01  1.7136768977E+01  1.7136768977E+01 Bohr
            acell33    1.7200951632E+01  1.7200951632E+01  1.7200951632E+01 Bohr
            acell34    1.7265134288E+01  1.7265134288E+01  1.7265134288E+01 Bohr
            acell35    1.7329316943E+01  1.7329316943E+01  1.7329316943E+01 Bohr
            acell36    1.7393499598E+01  1.7393499598E+01  1.7393499598E+01 Bohr
            acell37    1.7457682254E+01  1.7457682254E+01  1.7457682254E+01 Bohr
            acell38    1.7521864909E+01  1.7521864909E+01  1.7521864909E+01 Bohr
            acell39    1.7586047564E+01  1.7586047564E+01  1.7586047564E+01 Bohr
            acell40    1.7650230220E+01  1.7650230220E+01  1.7650230220E+01 Bohr
              amu      1.32905430E+02  1.26904470E+02  1.78490000E+02
           diemac      1.20000000E+01
          dilatmx      1.15000000E+00
             ecut      1.60000000E+01 Hartree
           ecutsm      5.00000000E-01 Hartree
-          fftalg         112
          getxred1          0
          getxred2         -1
          getxred3         -1
          getxred4         -1
          getxred5         -1
          getxred6         -1
          getxred7         -1
          getxred8         -1
          getxred9         -1
          getxred10        -1
          getxred11        -1
          getxred12        -1
          getxred13        -1
          getxred14        -1
          getxred15        -1
          getxred16        -1
          getxred17        -1
          getxred18        -1
          getxred19        -1
          getxred20        -1
          getxred21        -1
          getxred22        -1
          getxred23        -1
          getxred24        -1
          getxred25        -1
          getxred26        -1
          getxred27        -1
          getxred28        -1
          getxred29        -1
          getxred30        -1
          getxred31        -1
          getxred32        -1
          getxred33        -1
          getxred34        -1
          getxred35        -1
          getxred36        -1
          getxred37        -1
          getxred38        -1
          getxred39        -1
          getxred40        -1
           ionmov           2
              ixc     -101130
           jdtset        1    2    3    4    5    6    7    8    9   10
                        11   12   13   14   15   16   17   18   19   20
                        21   22   23   24   25   26   27   28   29   30
                        31   32   33   34   35   36   37   38   39   40
              kpt     -1.25000000E-01 -2.50000000E-01  0.00000000E+00
                      -1.25000000E-01  5.00000000E-01  0.00000000E+00
                      -2.50000000E-01 -3.75000000E-01  0.00000000E+00
                      -1.25000000E-01 -3.75000000E-01  1.25000000E-01
                      -1.25000000E-01  2.50000000E-01  0.00000000E+00
                      -2.50000000E-01  3.75000000E-01  0.00000000E+00
                      -3.75000000E-01  5.00000000E-01  0.00000000E+00
                      -2.50000000E-01  5.00000000E-01  1.25000000E-01
                      -1.25000000E-01  0.00000000E+00  0.00000000E+00
                      -3.75000000E-01  0.00000000E+00  0.00000000E+00
         kptrlatt        4   -4    4     -4    4    4     -4   -4    4
          kptrlen1     9.08587496E+01
          kptrlen2     9.09495176E+01
          kptrlen3     9.10402856E+01
          kptrlen4     9.11310536E+01
          kptrlen5     9.12218216E+01
          kptrlen6     9.13125895E+01
          kptrlen7     9.14033575E+01
          kptrlen8     9.14941255E+01
          kptrlen9     9.15848935E+01
          kptrlen10    9.16756615E+01
          kptrlen11    9.18571974E+01
          kptrlen12    9.20387334E+01
          kptrlen13    9.22202694E+01
          kptrlen14    9.24018053E+01
          kptrlen15    9.25833413E+01
          kptrlen16    9.27648773E+01
          kptrlen17    9.29464132E+01
          kptrlen18    9.31279492E+01
          kptrlen19    9.33094851E+01
          kptrlen20    9.34910211E+01
          kptrlen21    9.37633251E+01
          kptrlen22    9.40356290E+01
          kptrlen23    9.43079329E+01
          kptrlen24    9.45802369E+01
          kptrlen25    9.48525408E+01
          kptrlen26    9.51248448E+01
          kptrlen27    9.53971487E+01
          kptrlen28    9.56694527E+01
          kptrlen29    9.59417566E+01
          kptrlen30    9.62140606E+01
          kptrlen31    9.65771325E+01
          kptrlen32    9.69402044E+01
          kptrlen33    9.73032763E+01
          kptrlen34    9.76663483E+01
          kptrlen35    9.80294202E+01
          kptrlen36    9.83924921E+01
          kptrlen37    9.87555640E+01
          kptrlen38    9.91186360E+01
          kptrlen39    9.94817079E+01
          kptrlen40    9.98447798E+01
P           mkmem           3
            natom           9
            nband          42
           ndtset          40
            ngfft1         72      72      72
            ngfft2         72      72      72
            ngfft3         72      72      72
            ngfft4         72      72      72
            ngfft5         72      72      72
            ngfft6         72      72      72
            ngfft7         72      72      72
            ngfft8         72      72      72
            ngfft9         72      72      72
            ngfft10        72      72      72
            ngfft11        72      72      72
            ngfft12        72      72      72
            ngfft13        72      72      72
            ngfft14        72      72      72
            ngfft15        72      72      72
            ngfft16        72      72      72
            ngfft17        72      72      72
            ngfft18        72      72      72
            ngfft19        72      72      72
            ngfft20        72      72      72
            ngfft21        72      72      72
            ngfft22        72      72      72
            ngfft23        72      72      72
            ngfft24        72      72      72
            ngfft25        72      72      72
            ngfft26        72      72      72
            ngfft27        72      72      72
            ngfft28        72      72      72
            ngfft29        72      72      72
            ngfft30        72      72      72
            ngfft31        72      72      72
            ngfft32        72      72      72
            ngfft33        72      72      72
            ngfft34        72      72      72
            ngfft35        72      72      72
            ngfft36        75      75      75
            ngfft37        75      75      75
            ngfft38        75      75      75
            ngfft39        75      75      75
            ngfft40        75      75      75
          ngfftdg1        108     108     108
          ngfftdg2        108     108     108
          ngfftdg3        108     108     108
          ngfftdg4        108     108     108
          ngfftdg5        108     108     108
          ngfftdg6        108     108     108
          ngfftdg7        108     108     108
          ngfftdg8        108     108     108
          ngfftdg9        108     108     108
          ngfftdg10       108     108     108
          ngfftdg11       108     108     108
          ngfftdg12       108     108     108
          ngfftdg13       108     108     108
          ngfftdg14       108     108     108
          ngfftdg15       108     108     108
          ngfftdg16       108     108     108
          ngfftdg17       108     108     108
          ngfftdg18       108     108     108
          ngfftdg19       120     120     120
          ngfftdg20       120     120     120
          ngfftdg21       120     120     120
          ngfftdg22       120     120     120
          ngfftdg23       120     120     120
          ngfftdg24       120     120     120
          ngfftdg25       120     120     120
          ngfftdg26       120     120     120
          ngfftdg27       120     120     120
          ngfftdg28       120     120     120
          ngfftdg29       120     120     120
          ngfftdg30       120     120     120
          ngfftdg31       120     120     120
          ngfftdg32       120     120     120
          ngfftdg33       120     120     120
          ngfftdg34       120     120     120
          ngfftdg35       120     120     120
          ngfftdg36       120     120     120
          ngfftdg37       120     120     120
          ngfftdg38       120     120     120
          ngfftdg39       120     120     120
          ngfftdg40       120     120     120
             nkpt          10
            nstep        2500
             nsym          48
            ntime        1000
           ntypat           3
              occ      2.000000  2.000000  2.000000  2.000000  2.000000  2.000000
                       2.000000  2.000000  2.000000  2.000000  2.000000  2.000000
                       2.000000  2.000000  2.000000  2.000000  2.000000  2.000000
                       2.000000  2.000000  2.000000  2.000000  2.000000  2.000000
                       2.000000  2.000000  2.000000  2.000000  2.000000  2.000000
                       2.000000  2.000000  2.000000  2.000000  2.000000  2.000000
                       0.000000  0.000000  0.000000  0.000000  0.000000  0.000000
        optforces           1
        pawecutdg      4.00000000E+01 Hartree
            prtwf           0
            rprim      0.0000000000E+00  7.0710678119E-01  7.0710678119E-01
                       7.0710678119E-01  0.0000000000E+00  7.0710678119E-01
                       7.0710678119E-01  7.0710678119E-01  0.0000000000E+00
           shiftk      5.00000000E-01  5.00000000E-01  5.00000000E-01
          spgroup         225
           symrel      1  0  0   0  1  0   0  0  1      -1  0  0   0 -1  0   0  0 -1
                       0 -1  1   0 -1  0   1 -1  0       0  1 -1   0  1  0  -1  1  0
                      -1  0  0  -1  0  1  -1  1  0       1  0  0   1  0 -1   1 -1  0
                       0  1 -1   1  0 -1   0  0 -1       0 -1  1  -1  0  1   0  0  1
                      -1  0  0  -1  1  0  -1  0  1       1  0  0   1 -1  0   1  0 -1
                       0 -1  1   1 -1  0   0 -1  0       0  1 -1  -1  1  0   0  1  0
                       1  0  0   0  0  1   0  1  0      -1  0  0   0  0 -1   0 -1  0
                       0  1 -1   0  0 -1   1  0 -1       0 -1  1   0  0  1  -1  0  1
                      -1  0  1  -1  1  0  -1  0  0       1  0 -1   1 -1  0   1  0  0
                       0 -1  0   1 -1  0   0 -1  1       0  1  0  -1  1  0   0  1 -1
                       1  0 -1   0  0 -1   0  1 -1      -1  0  1   0  0  1   0 -1  1
                       0  1  0   0  0  1   1  0  0       0 -1  0   0  0 -1  -1  0  0
                       1  0 -1   0  1 -1   0  0 -1      -1  0  1   0 -1  1   0  0  1
                       0 -1  0   0 -1  1   1 -1  0       0  1  0   0  1 -1  -1  1  0
                      -1  0  1  -1  0  0  -1  1  0       1  0 -1   1  0  0   1 -1  0
                       0  1  0   1  0  0   0  0  1       0 -1  0  -1  0  0   0  0 -1
                       0  0 -1   0  1 -1   1  0 -1       0  0  1   0 -1  1  -1  0  1
                       1 -1  0   0 -1  1   0 -1  0      -1  1  0   0  1 -1   0  1  0
                       0  0  1   1  0  0   0  1  0       0  0 -1  -1  0  0   0 -1  0
                      -1  1  0  -1  0  0  -1  0  1       1 -1  0   1  0  0   1  0 -1
                       0  0  1   0  1  0   1  0  0       0  0 -1   0 -1  0  -1  0  0
                       1 -1  0   0 -1  0   0 -1  1      -1  1  0   0  1  0   0  1 -1
                       0  0 -1   1  0 -1   0  1 -1       0  0  1  -1  0  1   0 -1  1
                      -1  1  0  -1  0  1  -1  0  0       1 -1  0   1  0 -1   1  0  0
           toldff      1.00000000E-08
           tolmxf      1.00000000E-05
            typat      1  1  2  2  2  2  2  2  3
           useylm           1
              wtk        0.09375    0.09375    0.09375    0.18750    0.09375    0.09375
                         0.09375    0.18750    0.03125    0.03125
           xangst1     3.0050237194E+00  3.0050237194E+00  3.0050237194E+00
                       9.0150711581E+00  9.0150711581E+00  9.0150711581E+00
                       6.0100474387E+00  9.1533212136E+00  6.0100474387E+00
                       6.0100474387E+00  6.0100474387E+00  2.8667736638E+00
                       6.0100474387E+00  6.0100474387E+00  9.1533212136E+00
                       6.0100474387E+00  2.8667736638E+00  6.0100474387E+00
                       9.1533212136E+00  6.0100474387E+00  6.0100474387E+00
                       2.8667736638E+00  6.0100474387E+00  6.0100474387E+00
                       0.0000000000E+00  0.0000000000E+00  0.0000000000E+00
           xangst2     3.0080257411E+00  3.0080257411E+00  3.0080257411E+00
                       9.0240772232E+00  9.0240772232E+00  9.0240772232E+00
                       6.0160514821E+00  9.1624653907E+00  6.0160514821E+00
                       6.0160514821E+00  6.0160514821E+00  2.8696375736E+00
                       6.0160514821E+00  6.0160514821E+00  9.1624653907E+00
                       6.0160514821E+00  2.8696375736E+00  6.0160514821E+00
                       9.1624653907E+00  6.0160514821E+00  6.0160514821E+00
                       2.8696375736E+00  6.0160514821E+00  6.0160514821E+00
                       0.0000000000E+00  0.0000000000E+00  0.0000000000E+00
           xangst3     3.0110277628E+00  3.0110277628E+00  3.0110277628E+00
                       9.0330832883E+00  9.0330832883E+00  9.0330832883E+00
                       6.0220555255E+00  9.1716095677E+00  6.0220555255E+00
                       6.0220555255E+00  6.0220555255E+00  2.8725014833E+00
                       6.0220555255E+00  6.0220555255E+00  9.1716095677E+00
                       6.0220555255E+00  2.8725014833E+00  6.0220555255E+00
                       9.1716095677E+00  6.0220555255E+00  6.0220555255E+00
                       2.8725014833E+00  6.0220555255E+00  6.0220555255E+00
                       0.0000000000E+00  0.0000000000E+00  0.0000000000E+00
           xangst4     3.0140297845E+00  3.0140297845E+00  3.0140297845E+00
                       9.0420893534E+00  9.0420893534E+00  9.0420893534E+00
                       6.0280595689E+00  9.1807537447E+00  6.0280595689E+00
                       6.0280595689E+00  6.0280595689E+00  2.8753653931E+00
                       6.0280595689E+00  6.0280595689E+00  9.1807537447E+00
                       6.0280595689E+00  2.8753653931E+00  6.0280595689E+00
                       9.1807537447E+00  6.0280595689E+00  6.0280595689E+00
                       2.8753653931E+00  6.0280595689E+00  6.0280595689E+00
                       0.0000000000E+00  0.0000000000E+00  0.0000000000E+00
           xangst5     3.0170318062E+00  3.0170318062E+00  3.0170318062E+00
                       9.0510954185E+00  9.0510954185E+00  9.0510954185E+00
                       6.0340636123E+00  9.1898979218E+00  6.0340636123E+00
                       6.0340636123E+00  6.0340636123E+00  2.8782293028E+00
                       6.0340636123E+00  6.0340636123E+00  9.1898979218E+00
                       6.0340636123E+00  2.8782293028E+00  6.0340636123E+00
                       9.1898979218E+00  6.0340636123E+00  6.0340636123E+00
                       2.8782293028E+00  6.0340636123E+00  6.0340636123E+00
                       0.0000000000E+00  0.0000000000E+00  0.0000000000E+00
           xangst6     3.0200338278E+00  3.0200338278E+00  3.0200338278E+00
                       9.0601014835E+00  9.0601014835E+00  9.0601014835E+00
                       6.0400676557E+00  9.1990420988E+00  6.0400676557E+00
                       6.0400676557E+00  6.0400676557E+00  2.8810932126E+00
                       6.0400676557E+00  6.0400676557E+00  9.1990420988E+00
                       6.0400676557E+00  2.8810932126E+00  6.0400676557E+00
                       9.1990420988E+00  6.0400676557E+00  6.0400676557E+00
                       2.8810932126E+00  6.0400676557E+00  6.0400676557E+00
                       0.0000000000E+00  0.0000000000E+00  0.0000000000E+00
           xangst7     3.0230358495E+00  3.0230358495E+00  3.0230358495E+00
                       9.0691075486E+00  9.0691075486E+00  9.0691075486E+00
                       6.0460716991E+00  9.2081862759E+00  6.0460716991E+00
                       6.0460716991E+00  6.0460716991E+00  2.8839571223E+00
                       6.0460716991E+00  6.0460716991E+00  9.2081862759E+00
                       6.0460716991E+00  2.8839571223E+00  6.0460716991E+00
                       9.2081862759E+00  6.0460716991E+00  6.0460716991E+00
                       2.8839571223E+00  6.0460716991E+00  6.0460716991E+00
                       0.0000000000E+00  0.0000000000E+00  0.0000000000E+00
           xangst8     3.0260378712E+00  3.0260378712E+00  3.0260378712E+00
                       9.0781136137E+00  9.0781136137E+00  9.0781136137E+00
                       6.0520757425E+00  9.2173304529E+00  6.0520757425E+00
                       6.0520757425E+00  6.0520757425E+00  2.8868210321E+00
                       6.0520757425E+00  6.0520757425E+00  9.2173304529E+00
                       6.0520757425E+00  2.8868210321E+00  6.0520757425E+00
                       9.2173304529E+00  6.0520757425E+00  6.0520757425E+00
                       2.8868210321E+00  6.0520757425E+00  6.0520757425E+00
                       0.0000000000E+00  0.0000000000E+00  0.0000000000E+00
           xangst9     3.0290398929E+00  3.0290398929E+00  3.0290398929E+00
                       9.0871196788E+00  9.0871196788E+00  9.0871196788E+00
                       6.0580797859E+00  9.2264746299E+00  6.0580797859E+00
                       6.0580797859E+00  6.0580797859E+00  2.8896849418E+00
                       6.0580797859E+00  6.0580797859E+00  9.2264746299E+00
                       6.0580797859E+00  2.8896849418E+00  6.0580797859E+00
                       9.2264746299E+00  6.0580797859E+00  6.0580797859E+00
                       2.8896849418E+00  6.0580797859E+00  6.0580797859E+00
                       0.0000000000E+00  0.0000000000E+00  0.0000000000E+00
           xangst10    3.0320419146E+00  3.0320419146E+00  3.0320419146E+00
                       9.0961257439E+00  9.0961257439E+00  9.0961257439E+00
                       6.0640838293E+00  9.2356188070E+00  6.0640838293E+00
                       6.0640838293E+00  6.0640838293E+00  2.8925488516E+00
                       6.0640838293E+00  6.0640838293E+00  9.2356188070E+00
                       6.0640838293E+00  2.8925488516E+00  6.0640838293E+00
                       9.2356188070E+00  6.0640838293E+00  6.0640838293E+00
                       2.8925488516E+00  6.0640838293E+00  6.0640838293E+00
                       0.0000000000E+00  0.0000000000E+00  0.0000000000E+00
           xangst11    3.0380459580E+00  3.0380459580E+00  3.0380459580E+00
                       9.1141378741E+00  9.1141378741E+00  9.1141378741E+00
                       6.0760919161E+00  9.2539071610E+00  6.0760919161E+00
                       6.0760919161E+00  6.0760919161E+00  2.8982766711E+00
                       6.0760919161E+00  6.0760919161E+00  9.2539071610E+00
                       6.0760919161E+00  2.8982766711E+00  6.0760919161E+00
                       9.2539071610E+00  6.0760919161E+00  6.0760919161E+00
                       2.8982766711E+00  6.0760919161E+00  6.0760919161E+00
                       0.0000000000E+00  0.0000000000E+00  0.0000000000E+00
           xangst12    3.0440500014E+00  3.0440500014E+00  3.0440500014E+00
                       9.1321500043E+00  9.1321500043E+00  9.1321500043E+00
                       6.0881000029E+00  9.2721955151E+00  6.0881000029E+00
                       6.0881000029E+00  6.0881000029E+00  2.9040044906E+00
                       6.0881000029E+00  6.0881000029E+00  9.2721955151E+00
                       6.0881000029E+00  2.9040044906E+00  6.0881000029E+00
                       9.2721955151E+00  6.0881000029E+00  6.0881000029E+00
                       2.9040044906E+00  6.0881000029E+00  6.0881000029E+00
                       0.0000000000E+00  0.0000000000E+00  0.0000000000E+00
           xangst13    3.0500540448E+00  3.0500540448E+00  3.0500540448E+00
                       9.1501621345E+00  9.1501621345E+00  9.1501621345E+00
                       6.1001080897E+00  9.2904838692E+00  6.1001080897E+00
                       6.1001080897E+00  6.1001080897E+00  2.9097323101E+00
                       6.1001080897E+00  6.1001080897E+00  9.2904838692E+00
                       6.1001080897E+00  2.9097323101E+00  6.1001080897E+00
                       9.2904838692E+00  6.1001080897E+00  6.1001080897E+00
                       2.9097323101E+00  6.1001080897E+00  6.1001080897E+00
                       0.0000000000E+00  0.0000000000E+00  0.0000000000E+00
           xangst14    3.0560580882E+00  3.0560580882E+00  3.0560580882E+00
                       9.1681742647E+00  9.1681742647E+00  9.1681742647E+00
                       6.1121161764E+00  9.3087722233E+00  6.1121161764E+00
                       6.1121161764E+00  6.1121161764E+00  2.9154601296E+00
                       6.1121161764E+00  6.1121161764E+00  9.3087722233E+00
                       6.1121161764E+00  2.9154601296E+00  6.1121161764E+00
                       9.3087722233E+00  6.1121161764E+00  6.1121161764E+00
                       2.9154601296E+00  6.1121161764E+00  6.1121161764E+00
                       0.0000000000E+00  0.0000000000E+00  0.0000000000E+00
           xangst15    3.0620621316E+00  3.0620621316E+00  3.0620621316E+00
                       9.1861863949E+00  9.1861863949E+00  9.1861863949E+00
                       6.1241242632E+00  9.3270605773E+00  6.1241242632E+00
                       6.1241242632E+00  6.1241242632E+00  2.9211879491E+00
                       6.1241242632E+00  6.1241242632E+00  9.3270605773E+00
                       6.1241242632E+00  2.9211879491E+00  6.1241242632E+00
                       9.3270605773E+00  6.1241242632E+00  6.1241242632E+00
                       2.9211879491E+00  6.1241242632E+00  6.1241242632E+00
                       0.0000000000E+00  0.0000000000E+00  0.0000000000E+00
           xangst16    3.0680661750E+00  3.0680661750E+00  3.0680661750E+00
                       9.2041985250E+00  9.2041985250E+00  9.2041985250E+00
                       6.1361323500E+00  9.3453489314E+00  6.1361323500E+00
                       6.1361323500E+00  6.1361323500E+00  2.9269157686E+00
                       6.1361323500E+00  6.1361323500E+00  9.3453489314E+00
                       6.1361323500E+00  2.9269157686E+00  6.1361323500E+00
                       9.3453489314E+00  6.1361323500E+00  6.1361323500E+00
                       2.9269157686E+00  6.1361323500E+00  6.1361323500E+00
                       0.0000000000E+00  0.0000000000E+00  0.0000000000E+00
           xangst17    3.0740702184E+00  3.0740702184E+00  3.0740702184E+00
                       9.2222106552E+00  9.2222106552E+00  9.2222106552E+00
                       6.1481404368E+00  9.3636372855E+00  6.1481404368E+00
                       6.1481404368E+00  6.1481404368E+00  2.9326435881E+00
                       6.1481404368E+00  6.1481404368E+00  9.3636372855E+00
                       6.1481404368E+00  2.9326435881E+00  6.1481404368E+00
                       9.3636372855E+00  6.1481404368E+00  6.1481404368E+00
                       2.9326435881E+00  6.1481404368E+00  6.1481404368E+00
                       0.0000000000E+00  0.0000000000E+00  0.0000000000E+00
           xangst18    3.0800742618E+00  3.0800742618E+00  3.0800742618E+00
                       9.2402227854E+00  9.2402227854E+00  9.2402227854E+00
                       6.1601485236E+00  9.3819256396E+00  6.1601485236E+00
                       6.1601485236E+00  6.1601485236E+00  2.9383714077E+00
                       6.1601485236E+00  6.1601485236E+00  9.3819256396E+00
                       6.1601485236E+00  2.9383714077E+00  6.1601485236E+00
                       9.3819256396E+00  6.1601485236E+00  6.1601485236E+00
                       2.9383714077E+00  6.1601485236E+00  6.1601485236E+00
                       0.0000000000E+00  0.0000000000E+00  0.0000000000E+00
           xangst19    3.0860783052E+00  3.0860783052E+00  3.0860783052E+00
                       9.2582349156E+00  9.2582349156E+00  9.2582349156E+00
                       6.1721566104E+00  9.4002139936E+00  6.1721566104E+00
                       6.1721566104E+00  6.1721566104E+00  2.9440992272E+00
                       6.1721566104E+00  6.1721566104E+00  9.4002139936E+00
                       6.1721566104E+00  2.9440992272E+00  6.1721566104E+00
[...]
                       2.3256916833E-01  7.6743083167E-01  7.6743083167E-01
                       7.6743083167E-01  2.3256916833E-01  2.3256916833E-01
                       0.0000000000E+00  0.0000000000E+00  0.0000000000E+00
             xred20    2.5000000000E-01  2.5000000000E-01  2.5000000000E-01
                       7.5000000000E-01  7.5000000000E-01  7.5000000000E-01
                       7.6784793850E-01  2.3215206150E-01  7.6784793850E-01
                       2.3215206150E-01  2.3215206150E-01  7.6784793850E-01
                       7.6784793850E-01  7.6784793850E-01  2.3215206150E-01
                       2.3215206150E-01  7.6784793850E-01  2.3215206150E-01
                       2.3215206150E-01  7.6784793850E-01  7.6784793850E-01
                       7.6784793850E-01  2.3215206150E-01  2.3215206150E-01
                       0.0000000000E+00  0.0000000000E+00  0.0000000000E+00
             xred21    2.5000000000E-01  2.5000000000E-01  2.5000000000E-01
                       7.5000000000E-01  7.5000000000E-01  7.5000000000E-01
                       7.6847562173E-01  2.3152437827E-01  7.6847562173E-01
                       2.3152437827E-01  2.3152437827E-01  7.6847562173E-01
                       7.6847562173E-01  7.6847562173E-01  2.3152437827E-01
                       2.3152437827E-01  7.6847562173E-01  2.3152437827E-01
                       2.3152437827E-01  7.6847562173E-01  7.6847562173E-01
                       7.6847562173E-01  2.3152437827E-01  2.3152437827E-01
                      -2.8108874886E-20  3.2037370616E-20 -1.8751056975E-20
             xred22    2.5000000000E-01  2.5000000000E-01  2.5000000000E-01
                       7.5000000000E-01  7.5000000000E-01  7.5000000000E-01
                       7.6910948066E-01  2.3089051934E-01  7.6910948066E-01
                       2.3089051934E-01  2.3089051934E-01  7.6910948066E-01
                       7.6910948066E-01  7.6910948066E-01  2.3089051934E-01
                       2.3089051934E-01  7.6910948066E-01  2.3089051934E-01
                       2.3089051934E-01  7.6910948066E-01  7.6910948066E-01
                       7.6910948066E-01  2.3089051934E-01  2.3089051934E-01
                      -3.0273376882E-22  2.4835429313E-22 -6.5993914685E-23
             xred23    2.5000000000E-01  2.5000000000E-01  2.5000000000E-01
                       7.5000000000E-01  7.5000000000E-01  7.5000000000E-01
                       7.6973577074E-01  2.3026422926E-01  7.6973577074E-01
                       2.3026422926E-01  2.3026422926E-01  7.6973577074E-01
                       7.6973577074E-01  7.6973577074E-01  2.3026422926E-01
                       2.3026422926E-01  7.6973577074E-01  2.3026422926E-01
                       2.3026422926E-01  7.6973577074E-01  7.6973577074E-01
                       7.6973577074E-01  2.3026422926E-01  2.3026422926E-01
                       9.4640315960E-24 -2.5788546584E-23 -1.6224385713E-23
             xred24    2.5000000000E-01  2.5000000000E-01  2.5000000000E-01
                       7.5000000000E-01  7.5000000000E-01  7.5000000000E-01
                       7.7035756141E-01  2.2964243859E-01  7.7035756141E-01
                       2.2964243859E-01  2.2964243859E-01  7.7035756141E-01
                       7.7035756141E-01  7.7035756141E-01  2.2964243859E-01
                       2.2964243859E-01  7.7035756141E-01  2.2964243859E-01
                       2.2964243859E-01  7.7035756141E-01  7.7035756141E-01
                       7.7035756141E-01  2.2964243859E-01  2.2964243859E-01
                       8.1933783873E-24  8.2045242506E-25  2.8259059047E-23
             xred25    2.5000000000E-01  2.5000000000E-01  2.5000000000E-01
                       7.5000000000E-01  7.5000000000E-01  7.5000000000E-01
                       7.7099409026E-01  2.2900590974E-01  7.7099409026E-01
                       2.2900590974E-01  2.2900590974E-01  7.7099409026E-01
                       7.7099409026E-01  7.7099409026E-01  2.2900590974E-01
                       2.2900590974E-01  7.7099409026E-01  2.2900590974E-01
                       2.2900590974E-01  7.7099409026E-01  7.7099409026E-01
                       7.7099409026E-01  2.2900590974E-01  2.2900590974E-01
                       0.0000000000E+00  0.0000000000E+00  0.0000000000E+00
             xred26    2.5000000000E-01  2.5000000000E-01  2.5000000000E-01
                       7.5000000000E-01  7.5000000000E-01  7.5000000000E-01
                       7.7162402231E-01  2.2837597769E-01  7.7162402231E-01
                       2.2837597769E-01  2.2837597769E-01  7.7162402231E-01
                       7.7162402231E-01  7.7162402231E-01  2.2837597769E-01
                       2.2837597769E-01  7.7162402231E-01  2.2837597769E-01
                       2.2837597769E-01  7.7162402231E-01  7.7162402231E-01
                       7.7162402231E-01  2.2837597769E-01  2.2837597769E-01
                      -3.9888526518E-21  1.3360190848E-20 -4.9886165361E-21
             xred27    2.5000000000E-01  2.5000000000E-01  2.5000000000E-01
                       7.5000000000E-01  7.5000000000E-01  7.5000000000E-01
                       7.7224528206E-01  2.2775471794E-01  7.7224528206E-01
                       2.2775471794E-01  2.2775471794E-01  7.7224528206E-01
                       7.7224528206E-01  7.7224528206E-01  2.2775471794E-01
                       2.2775471794E-01  7.7224528206E-01  2.2775471794E-01
                       2.2775471794E-01  7.7224528206E-01  7.7224528206E-01
                       7.7224528206E-01  2.2775471794E-01  2.2775471794E-01
                       0.0000000000E+00  0.0000000000E+00  0.0000000000E+00
             xred28    2.5000000000E-01  2.5000000000E-01  2.5000000000E-01
                       7.5000000000E-01  7.5000000000E-01  7.5000000000E-01
                       7.7286507223E-01  2.2713492777E-01  7.7286507223E-01
                       2.2713492777E-01  2.2713492777E-01  7.7286507223E-01
                       7.7286507223E-01  7.7286507223E-01  2.2713492777E-01
                       2.2713492777E-01  7.7286507223E-01  2.2713492777E-01
                       2.2713492777E-01  7.7286507223E-01  7.7286507223E-01
                       7.7286507223E-01  2.2713492777E-01  2.2713492777E-01
                      -6.2486567787E-21 -1.0540045151E-20  3.1382551441E-21
             xred29    2.5000000000E-01  2.5000000000E-01  2.5000000000E-01
                       7.5000000000E-01  7.5000000000E-01  7.5000000000E-01
                       7.7347716665E-01  2.2652283335E-01  7.7347716665E-01
                       2.2652283335E-01  2.2652283335E-01  7.7347716665E-01
                       7.7347716665E-01  7.7347716665E-01  2.2652283335E-01
                       2.2652283335E-01  7.7347716665E-01  2.2652283335E-01
                       2.2652283335E-01  7.7347716665E-01  7.7347716665E-01
                       7.7347716665E-01  2.2652283335E-01  2.2652283335E-01
                      -1.2168327626E-20  1.5426401881E-20  9.1841362713E-21
             xred30    2.5000000000E-01  2.5000000000E-01  2.5000000000E-01
                       7.5000000000E-01  7.5000000000E-01  7.5000000000E-01
                       7.7409335341E-01  2.2590664659E-01  7.7409335341E-01
                       2.2590664659E-01  2.2590664659E-01  7.7409335341E-01
                       7.7409335341E-01  7.7409335341E-01  2.2590664659E-01
                       2.2590664659E-01  7.7409335341E-01  2.2590664659E-01
                       2.2590664659E-01  7.7409335341E-01  7.7409335341E-01
                       7.7409335341E-01  2.2590664659E-01  2.2590664659E-01
                      -1.3456058861E-20 -8.3314560359E-21  5.4672205739E-20
             xred31    2.5000000000E-01  2.5000000000E-01  2.5000000000E-01
                       7.5000000000E-01  7.5000000000E-01  7.5000000000E-01
                       7.7491303850E-01  2.2508696150E-01  7.7491303850E-01
                       2.2508696150E-01  2.2508696150E-01  7.7491303850E-01
                       7.7491303850E-01  7.7491303850E-01  2.2508696150E-01
                       2.2508696150E-01  7.7491303850E-01  2.2508696150E-01
                       2.2508696150E-01  7.7491303850E-01  7.7491303850E-01
                       7.7491303850E-01  2.2508696150E-01  2.2508696150E-01
                       7.4610371843E-23  4.4251835069E-23 -9.5303937611E-23
             xred32    2.5000000000E-01  2.5000000000E-01  2.5000000000E-01
                       7.5000000000E-01  7.5000000000E-01  7.5000000000E-01
                       7.7573151229E-01  2.2426848771E-01  7.7573151229E-01
                       2.2426848771E-01  2.2426848771E-01  7.7573151229E-01
                       7.7573151229E-01  7.7573151229E-01  2.2426848771E-01
                       2.2426848771E-01  7.7573151229E-01  2.2426848771E-01
                       2.2426848771E-01  7.7573151229E-01  7.7573151229E-01
                       7.7573151229E-01  2.2426848771E-01  2.2426848771E-01
                       1.5709843391E-20  1.3895318350E-20 -5.9822070041E-20
             xred33    2.5000000000E-01  2.5000000000E-01  2.5000000000E-01
                       7.5000000000E-01  7.5000000000E-01  7.5000000000E-01
                       7.7655259274E-01  2.2344740726E-01  7.7655259274E-01
                       2.2344740726E-01  2.2344740726E-01  7.7655259274E-01
                       7.7655259274E-01  7.7655259274E-01  2.2344740726E-01
                       2.2344740726E-01  7.7655259274E-01  2.2344740726E-01
                       2.2344740726E-01  7.7655259274E-01  7.7655259274E-01
                       7.7655259274E-01  2.2344740726E-01  2.2344740726E-01
                       2.8497543104E-22  1.8434417815E-22 -8.2981583512E-22
             xred34    2.5000000000E-01  2.5000000000E-01  2.5000000000E-01
                       7.5000000000E-01  7.5000000000E-01  7.5000000000E-01
                       7.7735671400E-01  2.2264328600E-01  7.7735671400E-01
                       2.2264328600E-01  2.2264328600E-01  7.7735671400E-01
                       7.7735671400E-01  7.7735671400E-01  2.2264328600E-01
                       2.2264328600E-01  7.7735671400E-01  2.2264328600E-01
                       2.2264328600E-01  7.7735671400E-01  7.7735671400E-01
                       7.7735671400E-01  2.2264328600E-01  2.2264328600E-01
                       1.0643140917E-22 -2.0013490751E-22 -5.5788557339E-23
             xred35    2.5000000000E-01  2.5000000000E-01  2.5000000000E-01
                       7.5000000000E-01  7.5000000000E-01  7.5000000000E-01
                       7.7815599902E-01  2.2184400098E-01  7.7815599902E-01
                       2.2184400098E-01  2.2184400098E-01  7.7815599902E-01
                       7.7815599902E-01  7.7815599902E-01  2.2184400098E-01
                       2.2184400098E-01  7.7815599902E-01  2.2184400098E-01
                       2.2184400098E-01  7.7815599902E-01  7.7815599902E-01
                       7.7815599902E-01  2.2184400098E-01  2.2184400098E-01
                       7.2636577238E-20  1.1010806520E-20 -5.8483081861E-20
             xred36    2.5000000000E-01  2.5000000000E-01  2.5000000000E-01
                       7.5000000000E-01  7.5000000000E-01  7.5000000000E-01
                       7.7894576338E-01  2.2105423662E-01  7.7894576338E-01
                       2.2105423662E-01  2.2105423662E-01  7.7894576338E-01
                       7.7894576338E-01  7.7894576338E-01  2.2105423662E-01
                       2.2105423662E-01  7.7894576338E-01  2.2105423662E-01
                       2.2105423662E-01  7.7894576338E-01  7.7894576338E-01
                       7.7894576338E-01  2.2105423662E-01  2.2105423662E-01
                       8.3147099028E-20  7.3668540719E-22 -4.6658525591E-20
             xred37    2.5000000000E-01  2.5000000000E-01  2.5000000000E-01
                       7.5000000000E-01  7.5000000000E-01  7.5000000000E-01
                       7.7974189611E-01  2.2025810389E-01  7.7974189611E-01
                       2.2025810389E-01  2.2025810389E-01  7.7974189611E-01
                       7.7974189611E-01  7.7974189611E-01  2.2025810389E-01
                       2.2025810389E-01  7.7974189611E-01  2.2025810389E-01
                       2.2025810389E-01  7.7974189611E-01  7.7974189611E-01
                       7.7974189611E-01  2.2025810389E-01  2.2025810389E-01
                       1.3553469747E-21  7.6337263232E-23 -7.5332566164E-22
             xred38    2.5000000000E-01  2.5000000000E-01  2.5000000000E-01
                       7.5000000000E-01  7.5000000000E-01  7.5000000000E-01
                       7.8053487602E-01  2.1946512398E-01  7.8053487602E-01
                       2.1946512398E-01  2.1946512398E-01  7.8053487602E-01
                       7.8053487602E-01  7.8053487602E-01  2.1946512398E-01
                       2.1946512398E-01  7.8053487602E-01  2.1946512398E-01
                       2.1946512398E-01  7.8053487602E-01  7.8053487602E-01
                       7.8053487602E-01  2.1946512398E-01  2.1946512398E-01
                       5.7173117013E-22 -1.4334855194E-21  3.6069132515E-22
             xred39    2.5000000000E-01  2.5000000000E-01  2.5000000000E-01
                       7.5000000000E-01  7.5000000000E-01  7.5000000000E-01
                       7.8132582359E-01  2.1867417641E-01  7.8132582359E-01
                       2.1867417641E-01  2.1867417641E-01  7.8132582359E-01
                       7.8132582359E-01  7.8132582359E-01  2.1867417641E-01
                       2.1867417641E-01  7.8132582359E-01  2.1867417641E-01
                       2.1867417641E-01  7.8132582359E-01  7.8132582359E-01
                       7.8132582359E-01  2.1867417641E-01  2.1867417641E-01
                      -9.4768683342E-23  1.7727237640E-22 -1.5269910420E-22
             xred40    2.5000000000E-01  2.5000000000E-01  2.5000000000E-01
                       7.5000000000E-01  7.5000000000E-01  7.5000000000E-01
                       7.8210690313E-01  2.1789309687E-01  7.8210690313E-01
                       2.1789309687E-01  2.1789309687E-01  7.8210690313E-01
                       7.8210690313E-01  7.8210690313E-01  2.1789309687E-01
                       2.1789309687E-01  7.8210690313E-01  2.1789309687E-01
                       2.1789309687E-01  7.8210690313E-01  7.8210690313E-01
                       7.8210690313E-01  2.1789309687E-01  2.1789309687E-01
                      -5.2712203594E-24  4.9310503388E-23 -2.6764450441E-23
            znucl       55.00000   53.00000   72.00000

================================================================================


- Timing analysis has been suppressed with timopt=0



================================================================================

 Suggested references for the acknowledgment of ABINIT usage.

 The users of ABINIT have little formal obligations with respect to the ABINIT group
 (those specified in the GNU General Public License, http://www.gnu.org/copyleft/gpl.txt).
 However, it is common practice in the scientific literature,
 to acknowledge the efforts of people that have made the research possible.
 In this spirit, please find below suggested citations of work written by ABINIT developers,
 corresponding to implementations inside of ABINIT that you have used in the present run.
 Note also that it will be of great value to readers of publications presenting these results,
 to read papers enabling them to understand the theoretical formalism and details
 of the ABINIT implementation.
 For information on why they are suggested, see also https://docs.abinit.org/theory/acknowledgments.
-
- [1] Implementation of the Projector Augmented-Wave Method in the ABINIT code.
- M. Torrent, F. Jollet, F. Bottin, G. Zerah, and X. Gonze Comput. Mat. Science 42, 337, (2008).
- Comment: PAW calculations. Strong suggestion to cite this paper.
- DOI and bibtex: see https://docs.abinit.org/theory/bibliography/#torrent2008
-
- [2] Libxc: A library of exchange and correlation functionals for density functional theory.
- M.A.L. Marques, M.J.T. Oliveira, T. Burnus, Computer Physics Communications 183, 2227 (2012).
- Comment: to be cited when LibXC is used (negative value of ixc)
- Strong suggestion to cite this paper.
- DOI and bibtex: see https://docs.abinit.org/theory/bibliography/#marques2012
-
- [3] The Abinit project: Impact, environment and recent developments.
- Computer Phys. Comm. 248, 107042 (2020).
- X.Gonze, B. Amadon, G. Antonius, F.Arnardi, L.Baguet, J.-M.Beuken,
- J.Bieder, F.Bottin, J.Bouchet, E.Bousquet, N.Brouwer, F.Bruneval,
- G.Brunin, T.Cavignac, J.-B. Charraud, Wei Chen, M.Cote, S.Cottenier,
- J.Denier, G.Geneste, Ph.Ghosez, M.Giantomassi, Y.Gillet, O.Gingras,
- D.R.Hamann, G.Hautier, Xu He, N.Helbig, N.Holzwarth, Y.Jia, F.Jollet,
- W.Lafargue-Dit-Hauret, K.Lejaeghere, M.A.L.Marques, A.Martin, C.Martins,
- H.P.C. Miranda, F.Naccarato, K. Persson, G.Petretto, V.Planes, Y.Pouillon,
- S.Prokhorenko, F.Ricci, G.-M.Rignanese, A.H.Romero, M.M.Schmitt, M.Torrent,
- M.J.van Setten, B.Van Troeye, M.J.Verstraete, G.Zerah and J.W.Zwanzig
- Comment: the fifth generic paper describing the ABINIT project.
- Note that a version of this paper, that is not formatted for Computer Phys. Comm. 
- is available at https://www.abinit.org/sites/default/files/ABINIT20.pdf .
- The licence allows the authors to put it on the Web.
- DOI and bibtex: see https://docs.abinit.org/theory/bibliography/#gonze2020
-
- [4] ABINIT: Overview, and focus on selected capabilities
- J. Chem. Phys. 152, 124102 (2020).
- A. Romero, D.C. Allan, B. Amadon, G. Antonius, T. Applencourt, L.Baguet,
- J.Bieder, F.Bottin, J.Bouchet, E.Bousquet, F.Bruneval,
- G.Brunin, D.Caliste, M.Cote,
- J.Denier, C. Dreyer, Ph.Ghosez, M.Giantomassi, Y.Gillet, O.Gingras,
- D.R.Hamann, G.Hautier, F.Jollet, G. Jomard,
- A.Martin, 
- H.P.C. Miranda, F.Naccarato, G.Petretto, N.A. Pike, V.Planes,
- S.Prokhorenko, T. Rangel, F.Ricci, G.-M.Rignanese, M.Royo, M.Stengel, M.Torrent,
- M.J.van Setten, B.Van Troeye, M.J.Verstraete, J.Wiktor, J.W.Zwanziger, and X.Gonze.
- Comment: a global overview of ABINIT, with focus on selected capabilities .
- Note that a version of this paper, that is not formatted for J. Chem. Phys 
- is available at https://www.abinit.org/sites/default/files/ABINIT20_JPC.pdf .
- The licence allows the authors to put it on the Web.
- DOI and bibtex: see https://docs.abinit.org/theory/bibliography/#romero2020
-
- [5] Recent developments in the ABINIT software package.
- Computer Phys. Comm. 205, 106 (2016).
- X.Gonze, F.Jollet, F.Abreu Araujo, D.Adams, B.Amadon, T.Applencourt,
- C.Audouze, J.-M.Beuken, J.Bieder, A.Bokhanchuk, E.Bousquet, F.Bruneval
- D.Caliste, M.Cote, F.Dahm, F.Da Pieve, M.Delaveau, M.Di Gennaro,
- B.Dorado, C.Espejo, G.Geneste, L.Genovese, A.Gerossier, M.Giantomassi,
- Y.Gillet, D.R.Hamann, L.He, G.Jomard, J.Laflamme Janssen, S.Le Roux,
- A.Levitt, A.Lherbier, F.Liu, I.Lukacevic, A.Martin, C.Martins,
- M.J.T.Oliveira, S.Ponce, Y.Pouillon, T.Rangel, G.-M.Rignanese,
- A.H.Romero, B.Rousseau, O.Rubel, A.A.Shukri, M.Stankovski, M.Torrent,
- M.J.Van Setten, B.Van Troeye, M.J.Verstraete, D.Waroquier, J.Wiktor,
- B.Xu, A.Zhou, J.W.Zwanziger.
- Comment: the fourth generic paper describing the ABINIT project.
- Note that a version of this paper, that is not formatted for Computer Phys. Comm. 
- is available at https://www.abinit.org/sites/default/files/ABINIT16.pdf .
- The licence allows the authors to put it on the Web.
- DOI and bibtex: see https://docs.abinit.org/theory/bibliography/#gonze2016
-
- Proc.   0 individual time (sec): cpu=      35458.9  wall=      35508.8

================================================================================

 Calculation completed.
.Delivered   0 WARNINGs and 143 COMMENTs to log file.
+Overall time at end (sec) : cpu=     141851.0  wall=     142035.3
