
.Version 9.2.2 of ABINIT 
.(MPI version, prepared for a x86_64_linux_gnu9.3 computer) 

.Copyright (C) 1998-2020 ABINIT group . 
 ABINIT comes with ABSOLUTELY NO WARRANTY.
 It is free software, and you are welcome to redistribute it
 under certain conditions (GNU General Public License,
 see ~abinit/COPYING or http://www.gnu.org/copyleft/gpl.txt).

 ABINIT is a project of the Universite Catholique de Louvain,
 Corning Inc. and other collaborators, see ~abinit/doc/developers/contributors.txt .
 Please read https://docs.abinit.org/theory/acknowledgments for suggested
 acknowledgments of the ABINIT effort.
 For more information, see https://www.abinit.org .

.Starting date : Thu 24 Nov 2022.
- ( at 08h31 )
  
- input  file    -> Cs2TiI6.in
- output file    -> Cs2TiI6.out
- root for input  files -> Cs2TiI6i
- root for output files -> Cs2TiI6o

- inpspheads : Reading pseudopotential header in XML form from 
-   ../../../Psps_for_tests/ATOMICDATA/Cs.GGA_PBE-JTH.xml
- inpspheads : Reading pseudopotential header in XML form from 
-   ../../../Psps_for_tests/ATOMICDATA/I.GGA_PBE-JTH.xml
- inpspheads : Reading pseudopotential header in XML form from 
-   ../../../Psps_for_tests/ATOMICDATA/Zr.GGA_PBE-JTH.xml
- inpspheads : Reading pseudopotential header in XML form from 
-   ../../../Psps_for_tests/ATOMICDATA/Br.GGA_PBE-JTH.xml

 DATASET    1 : space group I4/m m m (#139); Bravais tI (body-center tetrag.)
================================================================================
 Values of the parameters that define the memory need for DATASET  1.
     intxc =       0    ionmov =       2      iscf =      17    lmnmax =      18
     lnmax =       6     mgfft =      72  mpssoang =       3    mqgrid =    4174
     natom =       9  nloc_mem =       2    nspden =       1   nspinor =       1
    nsppol =       1      nsym =      16    n1xccc =       1    ntypat =       4
    occopt =       1   xclevel =       2
-    mband =          42        mffmem =           1         mkmem =           4
       mpw =       12560          nfft =      373248          nkpt =          20
Pmy_natom=         2
 PAW method is used; the additional fine FFT grid is defined by:
   mgfftf=       108    nfftf =   1259712
================================================================================
P This job should need less than                     415.123 Mbytes of memory.
  Rough estimation (10% accuracy) of disk space for files :
_ WF disk file :    160.988 Mbytes ; DEN or POT disk file :      9.613 Mbytes.
================================================================================


 DATASET    2 : space group I4/m m m (#139); Bravais tI (body-center tetrag.)
================================================================================
 Values of the parameters that define the memory need for DATASET  2.
     intxc =       0    ionmov =       2      iscf =      17    lmnmax =      18
     lnmax =       6     mgfft =      72  mpssoang =       3    mqgrid =    4132
     natom =       9  nloc_mem =       2    nspden =       1   nspinor =       1
    nsppol =       1      nsym =      16    n1xccc =       1    ntypat =       4
    occopt =       1   xclevel =       2
-    mband =          42        mffmem =           1         mkmem =           4
       mpw =       12181          nfft =      373248          nkpt =          20
Pmy_natom=         2
 PAW method is used; the additional fine FFT grid is defined by:
   mgfftf=       108    nfftf =   1259712
================================================================================
P This job should need less than                     414.793 Mbytes of memory.
  Rough estimation (10% accuracy) of disk space for files :
_ WF disk file :    156.131 Mbytes ; DEN or POT disk file :      9.613 Mbytes.
================================================================================


 DATASET    3 : space group I4/m m m (#139); Bravais tI (body-center tetrag.)
================================================================================
 Values of the parameters that define the memory need for DATASET  3.
     intxc =       0    ionmov =       2      iscf =      17    lmnmax =      18
     lnmax =       6     mgfft =      72  mpssoang =       3    mqgrid =    4090
     natom =       9  nloc_mem =       2    nspden =       1   nspinor =       1
    nsppol =       1      nsym =      16    n1xccc =       1    ntypat =       4
    occopt =       1   xclevel =       2
-    mband =          42        mffmem =           1         mkmem =           4
       mpw =       11795          nfft =      373248          nkpt =          20
Pmy_natom=         2
 PAW method is used; the additional fine FFT grid is defined by:
   mgfftf=       108    nfftf =   1259712
================================================================================
P This job should need less than                     414.474 Mbytes of memory.
  Rough estimation (10% accuracy) of disk space for files :
_ WF disk file :    151.183 Mbytes ; DEN or POT disk file :      9.613 Mbytes.
================================================================================


 DATASET    4 : space group I4/m m m (#139); Bravais tI (body-center tetrag.)
================================================================================
 Values of the parameters that define the memory need for DATASET  4.
     intxc =       0    ionmov =       2      iscf =      17    lmnmax =      18
     lnmax =       6     mgfft =      64  mpssoang =       3    mqgrid =    4047
     natom =       9  nloc_mem =       2    nspden =       1   nspinor =       1
    nsppol =       1      nsym =      16    n1xccc =       1    ntypat =       4
    occopt =       1   xclevel =       2
-    mband =          42        mffmem =           1         mkmem =           4
       mpw =       11434          nfft =      262144          nkpt =          20
Pmy_natom=         2
 PAW method is used; the additional fine FFT grid is defined by:
   mgfftf=       108    nfftf =   1259712
================================================================================
P This job should need less than                     397.724 Mbytes of memory.
  Rough estimation (10% accuracy) of disk space for files :
_ WF disk file :    146.556 Mbytes ; DEN or POT disk file :      9.613 Mbytes.
================================================================================


 DATASET    5 : space group I4/m m m (#139); Bravais tI (body-center tetrag.)
================================================================================
 Values of the parameters that define the memory need for DATASET  5.
     intxc =       0    ionmov =       2      iscf =      17    lmnmax =      18
     lnmax =       6     mgfft =      64  mpssoang =       3    mqgrid =    4005
     natom =       9  nloc_mem =       2    nspden =       1   nspinor =       1
    nsppol =       1      nsym =      16    n1xccc =       1    ntypat =       4
    occopt =       1   xclevel =       2
-    mband =          42        mffmem =           1         mkmem =           4
       mpw =       11087          nfft =      262144          nkpt =          20
Pmy_natom=         2
 PAW method is used; the additional fine FFT grid is defined by:
   mgfftf=       100    nfftf =   1000000
================================================================================
P This job should need less than                     331.285 Mbytes of memory.
  Rough estimation (10% accuracy) of disk space for files :
_ WF disk file :    142.108 Mbytes ; DEN or POT disk file :      7.631 Mbytes.
================================================================================


 DATASET    6 : space group I4/m m m (#139); Bravais tI (body-center tetrag.)
================================================================================
 Values of the parameters that define the memory need for DATASET  6.
     intxc =       0    ionmov =       2      iscf =      17    lmnmax =      18
     lnmax =       6     mgfft =      64  mpssoang =       3    mqgrid =    3963
     natom =       9  nloc_mem =       2    nspden =       1   nspinor =       1
    nsppol =       1      nsym =      16    n1xccc =       1    ntypat =       4
    occopt =       1   xclevel =       2
-    mband =          42        mffmem =           1         mkmem =           4
       mpw =       10750          nfft =      262144          nkpt =          20
Pmy_natom=         2
 PAW method is used; the additional fine FFT grid is defined by:
   mgfftf=       100    nfftf =   1000000
================================================================================
P This job should need less than                     331.027 Mbytes of memory.
  Rough estimation (10% accuracy) of disk space for files :
_ WF disk file :    137.789 Mbytes ; DEN or POT disk file :      7.631 Mbytes.
================================================================================


 DATASET    7 : space group I4/m m m (#139); Bravais tI (body-center tetrag.)
================================================================================
 Values of the parameters that define the memory need for DATASET  7.
     intxc =       0    ionmov =       2      iscf =      17    lmnmax =      18
     lnmax =       6     mgfft =      64  mpssoang =       3    mqgrid =    3920
     natom =       9  nloc_mem =       2    nspden =       1   nspinor =       1
    nsppol =       1      nsym =      16    n1xccc =       1    ntypat =       4
    occopt =       1   xclevel =       2
-    mband =          42        mffmem =           1         mkmem =           4
       mpw =       10406          nfft =      262144          nkpt =          20
Pmy_natom=         2
 PAW method is used; the additional fine FFT grid is defined by:
   mgfftf=       100    nfftf =   1000000
================================================================================
P This job should need less than                     330.780 Mbytes of memory.
  Rough estimation (10% accuracy) of disk space for files :
_ WF disk file :    133.380 Mbytes ; DEN or POT disk file :      7.631 Mbytes.
================================================================================


 DATASET    8 : space group I4/m m m (#139); Bravais tI (body-center tetrag.)
================================================================================
 Values of the parameters that define the memory need for DATASET  8.
     intxc =       0    ionmov =       2      iscf =      17    lmnmax =      18
     lnmax =       6     mgfft =      64  mpssoang =       3    mqgrid =    3878
     natom =       9  nloc_mem =       2    nspden =       1   nspinor =       1
    nsppol =       1      nsym =      16    n1xccc =       1    ntypat =       4
    occopt =       1   xclevel =       2
-    mband =          42        mffmem =           1         mkmem =           4
       mpw =       10080          nfft =      262144          nkpt =          20
Pmy_natom=         2
 PAW method is used; the additional fine FFT grid is defined by:
   mgfftf=       100    nfftf =   1000000
================================================================================
P This job should need less than                     330.618 Mbytes of memory.
  Rough estimation (10% accuracy) of disk space for files :
_ WF disk file :    129.201 Mbytes ; DEN or POT disk file :      7.631 Mbytes.
================================================================================


 DATASET    9 : space group I4/m m m (#139); Bravais tI (body-center tetrag.)
================================================================================
 Values of the parameters that define the memory need for DATASET  9.
     intxc =       0    ionmov =       2      iscf =      17    lmnmax =      18
     lnmax =       6     mgfft =      64  mpssoang =       3    mqgrid =    3836
     natom =       9  nloc_mem =       2    nspden =       1   nspinor =       1
    nsppol =       1      nsym =      16    n1xccc =       1    ntypat =       4
    occopt =       1   xclevel =       2
-    mband =          42        mffmem =           1         mkmem =           4
       mpw =        9739          nfft =      262144          nkpt =          20
Pmy_natom=         2
 PAW method is used; the additional fine FFT grid is defined by:
   mgfftf=        96    nfftf =    884736
================================================================================
P This job should need less than                     300.665 Mbytes of memory.
  Rough estimation (10% accuracy) of disk space for files :
_ WF disk file :    124.830 Mbytes ; DEN or POT disk file :      6.752 Mbytes.
================================================================================

--------------------------------------------------------------------------------
------------- Echo of variables that govern the present computation ------------
--------------------------------------------------------------------------------
-
- outvars: echo of selected default values                                      
-   iomode0 =  0 , fftalg0 =112 , wfoptalg0 = 10
-
- outvars: echo of global parameters not present in the input file              
-  max_nthreads =    0
-
 -outvars: echo values of preprocessed input variables --------
            acell1     1.5528347870E+01  1.5528347870E+01  1.5806767879E+01 Bohr
            acell2     1.5367865024E+01  1.5367865024E+01  1.5655420951E+01 Bohr
            acell3     1.5207865282E+01  1.5207865282E+01  1.5503009909E+01 Bohr
            acell4     1.5047895628E+01  1.5047895628E+01  1.5350570411E+01 Bohr
            acell5     1.4885539537E+01  1.4885539537E+01  1.5203762433E+01 Bohr
            acell6     1.4723634696E+01  1.4723634696E+01  1.5056021464E+01 Bohr
            acell7     1.4561788834E+01  1.4561788834E+01  1.4908262031E+01 Bohr
            acell8     1.4399103151E+01  1.4399103151E+01  1.4762662166E+01 Bohr
            acell9     1.4236893940E+01  1.4236893940E+01  1.4616076614E+01 Bohr
              amu      1.32905430E+02  1.26904470E+02  9.12240000E+01
                       7.99040000E+01
           diemac      1.20000000E+01
          dilatmx      1.15000000E+00
             ecut      1.60000000E+01 Hartree
           ecutsm      5.00000000E-01 Hartree
-          fftalg         112
          getxred1          0
          getxred2         -1
          getxred3         -1
          getxred4         -1
          getxred5         -1
          getxred6         -1
          getxred7         -1
          getxred8         -1
          getxred9         -1
           ionmov           2
              ixc     -101130
           jdtset        1    2    3    4    5    6    7    8    9
              kpt     -1.25000000E-01 -2.50000000E-01  0.00000000E+00
                      -1.25000000E-01  5.00000000E-01  0.00000000E+00
                      -2.50000000E-01 -3.75000000E-01  0.00000000E+00
                      -1.25000000E-01 -3.75000000E-01  1.25000000E-01
                      -1.25000000E-01  2.50000000E-01  0.00000000E+00
                      -2.50000000E-01  3.75000000E-01  0.00000000E+00
                      -1.25000000E-01  3.75000000E-01  1.25000000E-01
                      -3.75000000E-01  5.00000000E-01  0.00000000E+00
                      -2.50000000E-01  5.00000000E-01  1.25000000E-01
                      -1.25000000E-01  5.00000000E-01  2.50000000E-01
                      -1.25000000E-01  0.00000000E+00  0.00000000E+00
                      -1.25000000E-01  1.25000000E-01  1.25000000E-01
                      -1.25000000E-01  2.50000000E-01  2.50000000E-01
                      -1.25000000E-01  3.75000000E-01  3.75000000E-01
                      -3.75000000E-01  0.00000000E+00  0.00000000E+00
                      -2.50000000E-01  0.00000000E+00  1.25000000E-01
                      -3.75000000E-01  1.25000000E-01  1.25000000E-01
                      -2.50000000E-01  1.25000000E-01  2.50000000E-01
                      -3.75000000E-01  2.50000000E-01  2.50000000E-01
                      -2.50000000E-01  2.50000000E-01  3.75000000E-01
         kptrlatt        4   -4    4     -4    4    4     -4   -4    4
          kptrlen1     8.62378598E+01
          kptrlen2     8.52760873E+01
          kptrlen3     8.43260371E+01
          kptrlen4     8.33764118E+01
          kptrlen5     8.23658536E+01
          kptrlen6     8.13657530E+01
          kptrlen7     8.03661842E+01
          kptrlen8     7.93437380E+01
          kptrlen9     7.83323387E+01
P           mkmem           4
            natom           9
            nband          42
           ndtset           9
            ngfft1         72      72      72
            ngfft2         72      72      72
            ngfft3         72      72      72
            ngfft4         64      64      64
            ngfft5         64      64      64
            ngfft6         64      64      64
            ngfft7         64      64      64
            ngfft8         64      64      64
            ngfft9         64      64      64
          ngfftdg1        108     108     108
          ngfftdg2        108     108     108
          ngfftdg3        108     108     108
          ngfftdg4        108     108     108
          ngfftdg5        100     100     100
          ngfftdg6        100     100     100
          ngfftdg7        100     100     100
          ngfftdg8        100     100     100
          ngfftdg9         96      96      96
             nkpt          20
            nstep        2500
             nsym          16
            ntime        1000
           ntypat           4
              occ      2.000000  2.000000  2.000000  2.000000  2.000000  2.000000
                       2.000000  2.000000  2.000000  2.000000  2.000000  2.000000
                       2.000000  2.000000  2.000000  2.000000  2.000000  2.000000
                       2.000000  2.000000  2.000000  2.000000  2.000000  2.000000
                       2.000000  2.000000  2.000000  2.000000  2.000000  2.000000
                       2.000000  2.000000  2.000000  2.000000  2.000000  2.000000
                       0.000000  0.000000  0.000000  0.000000  0.000000  0.000000
          optcell           3
        optforces           1
        pawecutdg      4.00000000E+01 Hartree
            prtwf           0
            rprim1     0.0000000000E+00  7.1978505694E-01  6.9419699784E-01
                       7.1978505694E-01  0.0000000000E+00  6.9419699784E-01
                       7.0710678119E-01  7.0710678119E-01  0.0000000000E+00
            rprim2     0.0000000000E+00  7.2033781529E-01  6.9362340781E-01
                       7.2033781529E-01  0.0000000000E+00  6.9362340781E-01
                       7.0710678119E-01  7.0710678119E-01  0.0000000000E+00
            rprim3     0.0000000000E+00  7.2082986219E-01  6.9311204706E-01
                       7.2082986219E-01  0.0000000000E+00  6.9311204706E-01
                       7.0710678119E-01  7.0710678119E-01  0.0000000000E+00
            rprim4     0.0000000000E+00  7.2132959327E-01  6.9259195626E-01
                       7.2132959327E-01  0.0000000000E+00  6.9259195626E-01
                       7.0710678119E-01  7.0710678119E-01  0.0000000000E+00
            rprim5     0.0000000000E+00  7.2222330196E-01  6.9165996133E-01
                       7.2222330196E-01  0.0000000000E+00  6.9165996133E-01
                       7.0710678119E-01  7.0710678119E-01  0.0000000000E+00
            rprim6     0.0000000000E+00  7.2306975107E-01  6.9077502495E-01
                       7.2306975107E-01  0.0000000000E+00  6.9077502495E-01
                       7.0710678119E-01  7.0710678119E-01  0.0000000000E+00
            rprim7     0.0000000000E+00  7.2393119401E-01  6.8987218116E-01
                       7.2393119401E-01  0.0000000000E+00  6.8987218116E-01
                       7.0710678119E-01  7.0710678119E-01  0.0000000000E+00
            rprim8     0.0000000000E+00  7.2496032681E-01  6.8879062461E-01
                       7.2496032681E-01  0.0000000000E+00  6.8879062461E-01
                       7.0710678119E-01  7.0710678119E-01  0.0000000000E+00
            rprim9     0.0000000000E+00  7.2593972613E-01  6.8775832530E-01
                       7.2593972613E-01  0.0000000000E+00  6.8775832530E-01
                       7.0710678119E-01  7.0710678119E-01  0.0000000000E+00
           shiftk      5.00000000E-01  5.00000000E-01  5.00000000E-01
          spgroup         139
           symrel      1  0  0   0  1  0   0  0  1      -1  0  0   0 -1  0   0  0 -1
                      -1  0  1   0 -1  1   0  0  1       1  0 -1   0  1 -1   0  0 -1
                       0  1 -1   1  0 -1   0  0 -1       0 -1  1  -1  0  1   0  0  1
                       0 -1  0  -1  0  0   0  0 -1       0  1  0   1  0  0   0  0  1
                       1  0  0   1  0 -1   1 -1  0      -1  0  0  -1  0  1  -1  1  0
                       0 -1  0   0 -1  1   1 -1  0       0  1  0   0  1 -1  -1  1  0
                       0  1 -1   0  1  0  -1  1  0       0 -1  1   0 -1  0   1 -1  0
                      -1  0  1  -1  0  0  -1  1  0       1  0 -1   1  0  0   1 -1  0
           toldff      1.00000000E-08
           tolmxf      1.00000000E-05
            typat      1  1  4  4  2  2  2  2  3
           useylm           1
              wtk        0.03125    0.03125    0.03125    0.06250    0.03125    0.03125
                         0.06250    0.03125    0.06250    0.06250    0.03125    0.06250
                         0.06250    0.06250    0.03125    0.06250    0.06250    0.06250
                         0.06250    0.06250
           xangst1     2.9573260806E+00  2.9573260806E+00  2.8521943697E+00
                       8.8719782419E+00  8.8719782419E+00  8.5565831092E+00
                       5.9146521613E+00  5.9146521613E+00  2.6199584842E+00
                       5.9146521613E+00  5.9146521613E+00  8.7888189947E+00
                       8.9351370630E+00  5.9146521613E+00  5.7043887394E+00
                       5.9146521613E+00  8.9351370630E+00  5.7043887394E+00
                       5.9146521613E+00  2.8941672596E+00  5.7043887394E+00
                       2.8941672596E+00  5.9146521613E+00  5.7043887394E+00
                       0.0000000000E+00  0.0000000000E+00  0.0000000000E+00
           xangst2     2.9290102212E+00  2.9290102212E+00  2.8203851138E+00
                       8.7870306636E+00  8.7870306636E+00  8.4611553413E+00
                       5.8580204424E+00  5.8580204424E+00  2.6184340984E+00
                       5.8580204424E+00  5.8580204424E+00  8.6631063567E+00
                       8.8272335870E+00  5.8580204424E+00  5.6407702275E+00
                       5.8580204424E+00  8.8272335870E+00  5.6407702275E+00
                       5.8580204424E+00  2.8888072978E+00  5.6407702275E+00
                       2.8888072978E+00  5.8580204424E+00  5.6407702275E+00
                       0.0000000000E+00  0.0000000000E+00  0.0000000000E+00
           xangst3     2.9004952741E+00  2.9004952741E+00  2.7889635577E+00
                       8.7014858223E+00  8.7014858223E+00  8.3668906730E+00
                       5.8009905482E+00  5.8009905482E+00  2.6165927766E+00
                       5.8009905482E+00  5.8009905482E+00  8.5392614541E+00
                       8.7190858785E+00  5.8009905482E+00  5.5779271153E+00
                       5.8009905482E+00  8.7190858785E+00  5.5779271153E+00
                       5.8009905482E+00  2.8828952180E+00  5.5779271153E+00
                       2.8828952180E+00  5.8009905482E+00  5.5779271153E+00
                       0.0000000000E+00  0.0000000000E+00  0.0000000000E+00
           xangst4     2.8719750031E+00  2.8719750031E+00  2.7575560524E+00
                       8.6159250093E+00  8.6159250093E+00  8.2726681573E+00
                       5.7439500062E+00  5.7439500062E+00  2.6140308265E+00
                       5.7439500062E+00  5.7439500062E+00  8.4161933832E+00
                       8.6120394033E+00  5.7439500062E+00  5.5151121049E+00
                       5.7439500062E+00  8.6120394033E+00  5.5151121049E+00
                       5.7439500062E+00  2.8758606091E+00  5.5151121049E+00
                       2.8758606091E+00  5.7439500062E+00  5.5151121049E+00
                       0.0000000000E+00  0.0000000000E+00  0.0000000000E+00
           xangst5     2.8445083468E+00  2.8445083468E+00  2.7241332809E+00
                       8.5335250403E+00  8.5335250403E+00  8.1723998427E+00
                       5.6890166935E+00  5.6890166935E+00  2.6106033448E+00
                       5.6890166935E+00  5.6890166935E+00  8.2859297788E+00
                       8.5101267819E+00  5.6890166935E+00  5.4482665618E+00
                       5.6890166935E+00  8.5101267819E+00  5.4482665618E+00
                       5.6890166935E+00  2.8679066051E+00  5.4482665618E+00
                       2.8679066051E+00  5.6890166935E+00  5.4482665618E+00
                       0.0000000000E+00  0.0000000000E+00  0.0000000000E+00
           xangst6     2.8168671347E+00  2.8168671347E+00  2.6910563779E+00
                       8.4506014042E+00  8.4506014042E+00  8.0731691336E+00
                       5.6337342695E+00  5.6337342695E+00  2.6062075885E+00
                       5.6337342695E+00  5.6337342695E+00  8.1580179231E+00
                       8.4088464910E+00  5.6337342695E+00  5.3821127558E+00
                       5.6337342695E+00  8.4088464910E+00  5.3821127558E+00
                       5.6337342695E+00  2.8586220480E+00  5.3821127558E+00
                       2.8586220480E+00  5.6337342695E+00  5.3821127558E+00
                       0.0000000000E+00  0.0000000000E+00  0.0000000000E+00
           xangst7     2.7892224684E+00  2.7892224684E+00  2.6579970637E+00
                       8.3676674052E+00  8.3676674052E+00  7.9739911910E+00
                       5.5784449368E+00  5.5784449368E+00  2.6009674783E+00
                       5.5784449368E+00  5.5784449368E+00  8.0310207764E+00
                       8.3086955835E+00  5.5784449368E+00  5.3159941273E+00
                       5.5784449368E+00  8.3086955835E+00  5.3159941273E+00
                       5.5784449368E+00  2.8481942901E+00  5.3159941273E+00
                       2.8481942901E+00  5.5784449368E+00  5.3159941273E+00
                       0.0000000000E+00  0.0000000000E+00  0.0000000000E+00
           xangst8     2.7619818407E+00  2.7619818407E+00  2.6241811129E+00
                       8.2859455221E+00  8.2859455221E+00  7.8725433386E+00
                       5.5239636814E+00  5.5239636814E+00  2.5944236059E+00
                       5.5239636814E+00  5.5239636814E+00  7.9023008456E+00
                       8.2114884171E+00  5.5239636814E+00  5.2483622258E+00
                       5.5239636814E+00  8.2114884171E+00  5.2483622258E+00
                       5.5239636814E+00  2.8364389457E+00  5.2483622258E+00
                       2.8364389457E+00  5.5239636814E+00  5.2483622258E+00
                       0.0000000000E+00  0.0000000000E+00  0.0000000000E+00
           xangst9     2.7345567985E+00  2.7345567985E+00  2.5907305200E+00
                       8.2036703955E+00  8.2036703955E+00  7.7721915600E+00
                       5.4691135970E+00  5.4691135970E+00  2.5866442749E+00
                       5.4691135970E+00  5.4691135970E+00  7.7762778052E+00
                       8.1149184971E+00  5.4691135970E+00  5.1814610400E+00
                       5.4691135970E+00  8.1149184971E+00  5.1814610400E+00
                       5.4691135970E+00  2.8233086969E+00  5.1814610400E+00
                       2.8233086969E+00  5.4691135970E+00  5.1814610400E+00
                       0.0000000000E+00  0.0000000000E+00  0.0000000000E+00
            xcart1     5.5885363781E+00  5.5885363781E+00  5.3898662365E+00
                       1.6765609134E+01  1.6765609134E+01  1.6169598710E+01
                       1.1177072756E+01  1.1177072756E+01  4.9510040146E+00
                       1.1177072756E+01  1.1177072756E+01  1.6608460932E+01
                       1.6884962009E+01  1.1177072756E+01  1.0779732473E+01
                       1.1177072756E+01  1.6884962009E+01  1.0779732473E+01
                       1.1177072756E+01  5.4691835034E+00  1.0779732473E+01
                       5.4691835034E+00  1.1177072756E+01  1.0779732473E+01
                       0.0000000000E+00  0.0000000000E+00  0.0000000000E+00
            xcart2     5.5350271585E+00  5.5350271585E+00  5.3297554543E+00
                       1.6605081476E+01  1.6605081476E+01  1.5989266363E+01
                       1.1070054317E+01  1.1070054317E+01  4.9481233430E+00
                       1.1070054317E+01  1.1070054317E+01  1.6370898474E+01
                       1.6681053990E+01  1.1070054317E+01  1.0659510909E+01
                       1.1070054317E+01  1.6681053990E+01  1.0659510909E+01
                       1.1070054317E+01  5.4590546435E+00  1.0659510909E+01
                       5.4590546435E+00  1.1070054317E+01  1.0659510909E+01
                       0.0000000000E+00  0.0000000000E+00  0.0000000000E+00
            xcart3     5.4811417178E+00  5.4811417178E+00  5.2703773186E+00
                       1.6443425153E+01  1.6443425153E+01  1.5811131956E+01
                       1.0962283436E+01  1.0962283436E+01  4.9446437491E+00
                       1.0962283436E+01  1.0962283436E+01  1.6136865525E+01
                       1.6476684439E+01  1.0962283436E+01  1.0540754637E+01
                       1.0962283436E+01  1.6476684439E+01  1.0540754637E+01
                       1.0962283436E+01  5.4478824318E+00  1.0540754637E+01
                       5.4478824318E+00  1.0962283436E+01  1.0540754637E+01
                       0.0000000000E+00  0.0000000000E+00  0.0000000000E+00
            xcart4     5.4272462163E+00  5.4272462163E+00  5.2110257352E+00
                       1.6281738649E+01  1.6281738649E+01  1.5633077206E+01
                       1.0854492433E+01  1.0854492433E+01  4.9398023651E+00
                       1.0854492433E+01  1.0854492433E+01  1.5904300576E+01
                       1.6274395918E+01  1.0854492433E+01  1.0422051470E+01
                       1.0854492433E+01  1.6274395918E+01  1.0422051470E+01
                       1.0854492433E+01  5.4345889475E+00  1.0422051470E+01
                       5.4345889475E+00  1.0854492433E+01  1.0422051470E+01
                       0.0000000000E+00  0.0000000000E+00  0.0000000000E+00
            xcart5     5.3753417581E+00  5.3753417581E+00  5.1478658504E+00
                       1.6126025274E+01  1.6126025274E+01  1.5443597551E+01
                       1.0750683516E+01  1.0750683516E+01  4.9333253632E+00
                       1.0750683516E+01  1.0750683516E+01  1.5658138038E+01
                       1.6081808974E+01  1.0750683516E+01  1.0295731701E+01
                       1.0750683516E+01  1.6081808974E+01  1.0295731701E+01
                       1.0750683516E+01  5.4195580584E+00  1.0295731701E+01
                       5.4195580584E+00  1.0750683516E+01  1.0295731701E+01
                       0.0000000000E+00  0.0000000000E+00  0.0000000000E+00
            xcart6     5.3231074374E+00  5.3231074374E+00  5.0853595624E+00
                       1.5969322312E+01  1.5969322312E+01  1.5256078687E+01
                       1.0646214875E+01  1.0646214875E+01  4.9250185877E+00
                       1.0646214875E+01  1.0646214875E+01  1.5416419662E+01
                       1.5890416961E+01  1.0646214875E+01  1.0170719125E+01
                       1.0646214875E+01  1.5890416961E+01  1.0170719125E+01
                       1.0646214875E+01  5.4020127881E+00  1.0170719125E+01
                       5.4020127881E+00  1.0646214875E+01  1.0170719125E+01
                       0.0000000000E+00  0.0000000000E+00  0.0000000000E+00
            xcart7     5.2708665889E+00  5.2708665889E+00  5.0228865124E+00
                       1.5812599767E+01  1.5812599767E+01  1.5068659537E+01
                       1.0541733178E+01  1.0541733178E+01  4.9151162145E+00
                       1.0541733178E+01  1.0541733178E+01  1.5176429835E+01
                       1.5701159174E+01  1.0541733178E+01  1.0045773025E+01
                       1.0541733178E+01  1.5701159174E+01  1.0045773025E+01
                       1.0541733178E+01  5.3823071815E+00  1.0045773025E+01
                       5.3823071815E+00  1.0541733178E+01  1.0045773025E+01
                       0.0000000000E+00  0.0000000000E+00  0.0000000000E+00
            xcart8     5.2193892629E+00  5.2193892629E+00  4.9589836264E+00
                       1.5658167789E+01  1.5658167789E+01  1.4876950879E+01
                       1.0438778526E+01  1.0438778526E+01  4.9027500879E+00
                       1.0438778526E+01  1.0438778526E+01  1.4933184418E+01
                       1.5517464252E+01  1.0438778526E+01  9.9179672529E+00
                       1.0438778526E+01  1.5517464252E+01  9.9179672529E+00
                       1.0438778526E+01  5.3600928001E+00  9.9179672529E+00
                       5.3600928001E+00  1.0438778526E+01  9.9179672529E+00
                       0.0000000000E+00  0.0000000000E+00  0.0000000000E+00
            xcart9     5.1675634440E+00  5.1675634440E+00  4.8957711669E+00
                       1.5502690332E+01  1.5502690332E+01  1.4687313501E+01
                       1.0335126888E+01  1.0335126888E+01  4.8880492827E+00
                       1.0335126888E+01  1.0335126888E+01  1.4695035385E+01
                       1.5334973550E+01  1.0335126888E+01  9.7915423339E+00
                       1.0335126888E+01  1.5334973550E+01  9.7915423339E+00
                       1.0335126888E+01  5.3352802257E+00  9.7915423339E+00
                       5.3352802257E+00  1.0335126888E+01  9.7915423339E+00
                       0.0000000000E+00  0.0000000000E+00  0.0000000000E+00
             xred1     2.5000000000E-01  2.5000000000E-01  2.5000000000E-01
                       7.5000000000E-01  7.5000000000E-01  7.5000000000E-01
                       2.2964410420E-01  2.2964410420E-01  7.7035589580E-01
                       7.7035589580E-01  7.7035589580E-01  2.2964410420E-01
                       2.4466081696E-01  7.5533918305E-01  7.5533918304E-01
                       7.5533918305E-01  2.4466081695E-01  7.5533918304E-01
                       2.4466081695E-01  7.5533918305E-01  2.4466081696E-01
                       7.5533918305E-01  2.4466081695E-01  2.4466081696E-01
                       0.0000000000E+00  0.0000000000E+00  0.0000000000E+00
             xred2     2.5000000000E-01  2.5000000000E-01  2.5000000000E-01
                       7.5000000000E-01  7.5000000000E-01  7.5000000000E-01
                       2.3209898584E-01  2.3209898584E-01  7.6790101416E-01
                       7.6790101416E-01  7.6790101416E-01  2.3209898584E-01
                       2.4656855726E-01  7.5343144274E-01  7.5343144274E-01
                       7.5343144274E-01  2.4656855726E-01  7.5343144274E-01
                       2.4656855726E-01  7.5343144274E-01  2.4656855726E-01
                       7.5343144274E-01  2.4656855726E-01  2.4656855726E-01
                       0.0000000000E+00  0.0000000000E+00  0.0000000000E+00
             xred3     2.5000000000E-01  2.5000000000E-01  2.5000000000E-01
                       7.5000000000E-01  7.5000000000E-01  7.5000000000E-01
                       2.3454884965E-01  2.3454884965E-01  7.6545115035E-01
                       7.6545115035E-01  7.6545115035E-01  2.3454884965E-01
                       2.4848301286E-01  7.5151698714E-01  7.5151698714E-01
                       7.5151698714E-01  2.4848301286E-01  7.5151698714E-01
                       2.4848301286E-01  7.5151698714E-01  2.4848301286E-01
                       7.5151698714E-01  2.4848301286E-01  2.4848301286E-01
                       0.0000000000E+00  0.0000000000E+00  0.0000000000E+00
             xred4     2.5000000000E-01  2.5000000000E-01  2.5000000000E-01
                       7.5000000000E-01  7.5000000000E-01  7.5000000000E-01
                       2.3698800467E-01  2.3698800467E-01  7.6301199533E-01
                       7.6301199533E-01  7.6301199533E-01  2.3698800467E-01
                       2.5033823466E-01  7.4966176534E-01  7.4966176534E-01
                       7.4966176534E-01  2.5033823466E-01  7.4966176534E-01
                       2.5033823466E-01  7.4966176534E-01  2.5033823466E-01
                       7.4966176534E-01  2.5033823466E-01  2.5033823466E-01
                       0.0000000000E+00  0.0000000000E+00  0.0000000000E+00
             xred5     2.5000000000E-01  2.5000000000E-01  2.5000000000E-01
                       7.5000000000E-01  7.5000000000E-01  7.5000000000E-01
                       2.3958109567E-01  2.3958109567E-01  7.6041890433E-01
                       7.6041890433E-01  7.6041890433E-01  2.3958109567E-01
                       2.5205644135E-01  7.4794355865E-01  7.4794355865E-01
                       7.4794355865E-01  2.5205644135E-01  7.4794355865E-01
                       2.5205644135E-01  7.4794355865E-01  2.5205644135E-01
                       7.4794355865E-01  2.5205644135E-01  2.5205644135E-01
                       0.0000000000E+00  0.0000000000E+00  0.0000000000E+00
             xred6     2.5000000000E-01  2.5000000000E-01  2.5000000000E-01
                       7.5000000000E-01  7.5000000000E-01  7.5000000000E-01
                       2.4211752027E-01  2.4211752027E-01  7.5788247973E-01
                       7.5788247973E-01  7.5788247973E-01  2.4211752027E-01
                       2.5370579364E-01  7.4629420636E-01  7.4629420636E-01
                       7.4629420636E-01  2.5370579364E-01  7.4629420636E-01
                       2.5370579364E-01  7.4629420636E-01  2.5370579364E-01
                       7.4629420636E-01  2.5370579364E-01  2.5370579364E-01
                       0.0000000000E+00  0.0000000000E+00  0.0000000000E+00
             xred7     2.5000000000E-01  2.5000000000E-01  2.5000000000E-01
                       7.5000000000E-01  7.5000000000E-01  7.5000000000E-01
                       2.4463603758E-01  2.4463603758E-01  7.5536396242E-01
                       7.5536396242E-01  7.5536396242E-01  2.4463603758E-01
                       2.5528568646E-01  7.4471431354E-01  7.4471431355E-01
                       7.4471431354E-01  2.5528568646E-01  7.4471431354E-01
                       2.5528568645E-01  7.4471431354E-01  2.5528568646E-01
                       7.4471431355E-01  2.5528568646E-01  2.5528568645E-01
                       0.0000000000E+00  0.0000000000E+00  0.0000000000E+00
             xred8     2.5000000000E-01  2.5000000000E-01  2.5000000000E-01
                       7.5000000000E-01  7.5000000000E-01  7.5000000000E-01
                       2.4716506734E-01  2.4716506734E-01  7.5283493266E-01
                       7.5283493266E-01  7.5283493266E-01  2.4716506734E-01
                       2.5673946367E-01  7.4326053633E-01  7.4326053633E-01
                       7.4326053633E-01  2.5673946367E-01  7.4326053633E-01
                       2.5673946367E-01  7.4326053633E-01  2.5673946366E-01
                       7.4326053633E-01  2.5673946366E-01  2.5673946366E-01
                       0.0000000000E+00  0.0000000000E+00  0.0000000000E+00
             xred9     2.5000000000E-01  2.5000000000E-01  2.5000000000E-01
                       7.5000000000E-01  7.5000000000E-01  7.5000000000E-01
                       2.4960568601E-01  2.4960568601E-01  7.5039431399E-01
                       7.5039431399E-01  7.5039431399E-01  2.4960568601E-01
                       2.5811391981E-01  7.4188608019E-01  7.4188608019E-01
                       7.4188608019E-01  2.5811391981E-01  7.4188608019E-01
                       2.5811391981E-01  7.4188608019E-01  2.5811391981E-01
                       7.4188608019E-01  2.5811391981E-01  2.5811391981E-01
                       0.0000000000E+00  0.0000000000E+00  0.0000000000E+00
            znucl       55.00000   53.00000   40.00000   35.00000

================================================================================

 chkinp: Checking input parameters for consistency, jdtset=   1.

 chkinp: Checking input parameters for consistency, jdtset=   2.

 chkinp: Checking input parameters for consistency, jdtset=   3.

 chkinp: Checking input parameters for consistency, jdtset=   4.

 chkinp: Checking input parameters for consistency, jdtset=   5.

 chkinp: Checking input parameters for consistency, jdtset=   6.

 chkinp: Checking input parameters for consistency, jdtset=   7.

 chkinp: Checking input parameters for consistency, jdtset=   8.

 chkinp: Checking input parameters for consistency, jdtset=   9.

================================================================================
== DATASET  1 ==================================================================
-   mpi_nproc: 6, omp_nthreads: -1 (-1 if OMP is not activated)


--- !DatasetInfo
iteration_state: {dtset: 1, }
dimensions: {natom: 9, nkpt: 20, mband: 42, nsppol: 1, nspinor: 1, nspden: 1, mpw: 12560, }
cutoff_energies: {ecut:  16.0, pawecutdg:  40.0, }
electrons: {nelect:   7.20000000E+01, charge:   0.00000000E+00, occopt:   1.00000000E+00, tsmear:   1.00000000E-02, }
meta: {optdriver: 0, ionmov: 2, optcell: 3, iscf: 17, paral_kgb: 0, }
...

 Real(R)+Recip(G) space primitive vectors, cartesian coordinates (Bohr,Bohr^-1):
 R(1)=  0.0000000 11.1770728 10.7797325  G(1)= -0.0447344  0.0447344  0.0463833
 R(2)= 11.1770728  0.0000000 10.7797325  G(2)=  0.0447344 -0.0447344  0.0463833
 R(3)= 11.1770728 11.1770728  0.0000000  G(3)=  0.0447344  0.0447344 -0.0463833
 Unit cell volume ucvol=  2.6933583E+03 bohr^3
 Angles (23,13,12)=  5.94050935E+01  5.94050935E+01  6.11898129E+01 degrees

 Coarse grid specifications (used for wave-functions):

 getcut: wavevector=  0.0000  0.0000  0.0000  ngfft=  72  72  72
         ecut(hartree)=     21.160   => boxcut(ratio)=   2.19972

 Fine grid specifications (used for densities):

 getcut: wavevector=  0.0000  0.0000  0.0000  ngfft= 108 108 108
         ecut(hartree)=     52.900   => boxcut(ratio)=   2.08683

--- Pseudopotential description ------------------------------------------------
- pspini: atom type   1  psp file is ../../../Psps_for_tests/ATOMICDATA/Cs.GGA_PBE-JTH.xml
- pspatm: opening atomic psp file    ../../../Psps_for_tests/ATOMICDATA/Cs.GGA_PBE-JTH.xml
- pspatm : Reading pseudopotential header in XML form from ../../../Psps_for_tests/ATOMICDATA/Cs.GGA_PBE-JTH.xml
 Pseudopotential format is: paw10
 basis_size (lnmax)=  6 (lmn_size= 18), orbitals=   0   0   1   1   2   2
 Spheres core radius: rc_sph= 2.20660278
 1 radial meshes are used:
  - mesh 1: r(i)=AA*[exp(BB*(i-1))-1], size=1500 , AA= 0.15922E-03 BB= 0.87573E-02
 Shapefunction is SIN type: shapef(r)=[sin(pi*r/rshp)/(pi*r/rshp)]**2
 Radius for shape functions =  2.00394208
 mmax= 1500
 Radial grid used for partial waves is grid 1
 Radial grid used for projectors is grid 1
 Radial grid used for (t)core density is grid 1
 Radial grid used for Vloc is grid 1
 Radial grid used for pseudo valence density is grid 1
 Mesh size for Vloc has been set to 1341 to avoid numerical noise.
 Compensation charge density is not taken into account in XC energy/potential
 pspatm: atomic psp has been read  and splines computed

- pspini: atom type   2  psp file is ../../../Psps_for_tests/ATOMICDATA/I.GGA_PBE-JTH.xml
- pspatm: opening atomic psp file    ../../../Psps_for_tests/ATOMICDATA/I.GGA_PBE-JTH.xml
- pspatm : Reading pseudopotential header in XML form from ../../../Psps_for_tests/ATOMICDATA/I.GGA_PBE-JTH.xml
 Pseudopotential format is: paw10
 basis_size (lnmax)=  4 (lmn_size=  8), orbitals=   0   0   1   1
 Spheres core radius: rc_sph= 2.30022271
 1 radial meshes are used:
  - mesh 1: r(i)=AA*[exp(BB*(i-1))-1], size=2000 , AA= 0.12610E-03 BB= 0.66836E-02
 Shapefunction is SIN type: shapef(r)=[sin(pi*r/rshp)/(pi*r/rshp)]**2
 Radius for shape functions =  2.10879093
 mmax= 2000
 Radial grid used for partial waves is grid 1
 Radial grid used for projectors is grid 1
 Radial grid used for (t)core density is grid 1
 Radial grid used for Vloc is grid 1
 Radial grid used for pseudo valence density is grid 1
 Mesh size for Vloc has been set to 1792 to avoid numerical noise.
 Compensation charge density is not taken into account in XC energy/potential
 pspatm: atomic psp has been read  and splines computed

- pspini: atom type   3  psp file is ../../../Psps_for_tests/ATOMICDATA/Zr.GGA_PBE-JTH.xml
- pspatm: opening atomic psp file    ../../../Psps_for_tests/ATOMICDATA/Zr.GGA_PBE-JTH.xml
- pspatm : Reading pseudopotential header in XML form from ../../../Psps_for_tests/ATOMICDATA/Zr.GGA_PBE-JTH.xml
 Pseudopotential format is: paw10
 basis_size (lnmax)=  6 (lmn_size= 18), orbitals=   0   0   1   1   2   2
 Spheres core radius: rc_sph= 2.21000000
 1 radial meshes are used:
  - mesh 1: r(i)=AA*[exp(BB*(i-1))-1], size= 941 , AA= 0.35256E-03 BB= 0.14102E-01
 Shapefunction is BESSEL type: shapef(r,l)=aa(1,l)*jl(q(1,l)*r)+aa(2,l)*jl(q(2,l)*r)
 Radius for shape functions =  2.21000000
 mmax=  941
 Radial grid used for partial waves is grid 1
 Radial grid used for projectors is grid 1
 Radial grid used for (t)core density is grid 1
 Radial grid used for Vloc is grid 1
 Radial grid used for pseudo valence density is grid 1
 Mesh size for Vloc has been set to  777 to avoid numerical noise.
 Compensation charge density is not taken into account in XC energy/potential
 pspatm: atomic psp has been read  and splines computed

- pspini: atom type   4  psp file is ../../../Psps_for_tests/ATOMICDATA/Br.GGA_PBE-JTH.xml
- pspatm: opening atomic psp file    ../../../Psps_for_tests/ATOMICDATA/Br.GGA_PBE-JTH.xml
- pspatm : Reading pseudopotential header in XML form from ../../../Psps_for_tests/ATOMICDATA/Br.GGA_PBE-JTH.xml
 Pseudopotential format is: paw10
 basis_size (lnmax)=  4 (lmn_size=  8), orbitals=   0   0   1   1
 Spheres core radius: rc_sph= 2.20000000
 1 radial meshes are used:
  - mesh 1: r(i)=AA*[exp(BB*(i-1))-1], size= 927 , AA= 0.40483E-03 BB= 0.14169E-01
 Shapefunction is BESSEL type: shapef(r,l)=aa(1,l)*jl(q(1,l)*r)+aa(2,l)*jl(q(2,l)*r)
 Radius for shape functions =  2.02066386
 mmax=  927
 Radial grid used for partial waves is grid 1
 Radial grid used for projectors is grid 1
 Radial grid used for (t)core density is grid 1
 Radial grid used for Vloc is grid 1
 Radial grid used for pseudo valence density is grid 1
 Mesh size for Vloc has been set to  763 to avoid numerical noise.
 Compensation charge density is not taken into account in XC energy/potential
 pspatm: atomic psp has been read  and splines computed

   3.69876676E+04                                ecore*ucvol(ha*bohr**3)
--------------------------------------------------------------------------------

_setup2: Arith. and geom. avg. npw (full set) are   12521.656   12521.649

================================================================================

=== [ionmov= 2] Broyden-Fletcher-Goldfard-Shanno method (forces)            
================================================================================

--- Iteration: (   1/1000) Internal Cycle: (1/1)
--------------------------------------------------------------------------------

---SELF-CONSISTENT-FIELD CONVERGENCE--------------------------------------------

--- !BeginCycle
iteration_state: {dtset: 1, itime: 1, icycle: 1, }
solver: {iscf: 17, nstep: 2500, nline: 4, wfoptalg: 10, }
tolerances: {toldff: 1.00E-08, }
...

     iter   Etot(hartree)      deltaE(h)  residm     nres2    diffor    maxfor
 ETOT  1  -162.54763407306    -1.625E+02 1.917E-01 2.696E+01 4.615E-02 4.615E-02
 ETOT  2  -162.74689993158    -1.993E-01 1.209E-02 7.509E+00 1.179E-01 7.175E-02
 ETOT  3  -162.74249856873     4.401E-03 2.334E-03 1.616E+00 5.908E-02 1.267E-02
 ETOT  4  -162.74328536820    -7.868E-04 1.959E-03 1.654E-01 1.007E-02 2.274E-02
 ETOT  5  -162.74270020414     5.852E-04 3.481E-04 1.436E-02 2.045E-02 2.292E-03
 ETOT  6  -162.74277084693    -7.064E-05 6.655E-04 2.307E-03 2.355E-03 4.482E-04
 ETOT  7  -162.74276894236     1.905E-06 2.506E-04 7.653E-04 2.587E-04 3.594E-04
 ETOT  8  -162.74277091217    -1.970E-06 3.794E-04 1.161E-04 6.257E-04 2.663E-04
 ETOT  9  -162.74277104768    -1.355E-07 1.096E-04 3.961E-05 3.083E-04 6.499E-05
 ETOT 10  -162.74277109925    -5.157E-08 1.259E-04 2.876E-06 1.014E-04 3.645E-05
 ETOT 11  -162.74277112170    -2.245E-08 3.106E-05 2.475E-06 2.093E-05 1.943E-05
 ETOT 12  -162.74277111640     5.300E-09 3.290E-05 2.390E-07 8.065E-06 1.412E-05
 ETOT 13  -162.74277111798    -1.575E-09 8.456E-06 1.159E-07 8.153E-06 5.963E-06
 ETOT 14  -162.74277111775     2.256E-10 1.313E-05 2.418E-09 2.745E-06 8.708E-06
 ETOT 15  -162.74277111783    -8.183E-11 4.285E-06 5.854E-09 3.445E-07 8.364E-06
 ETOT 16  -162.74277111781     1.728E-11 7.281E-06 3.234E-10 6.621E-07 7.702E-06
 ETOT 17  -162.74277111780     1.117E-11 2.411E-06 1.652E-10 2.150E-07 7.804E-06
 ETOT 18  -162.74277111780    -5.116E-13 4.139E-06 8.558E-12 2.681E-07 8.072E-06
 ETOT 19  -162.74277111781    -7.788E-12 1.391E-06 1.068E-11 2.328E-08 8.048E-06
 ETOT 20  -162.74277111781     3.183E-12 3.076E-06 6.978E-13 2.463E-08 8.043E-06
 ETOT 21  -162.74277111781    -4.377E-12 8.192E-07 3.519E-13 4.127E-09 8.039E-06
 ETOT 22  -162.74277111781     6.992E-12 2.320E-06 1.500E-14 3.959E-09 8.037E-06

 At SCF step   22, forces are converged : 
  for the second time, max diff in force=  3.959E-09 < toldff=  1.000E-08

 Cartesian components of stress tensor (hartree/bohr^3)
  sigma(1 1)= -7.66387899E-06  sigma(3 2)=  2.28125383E-14
  sigma(2 2)= -7.66387899E-06  sigma(3 1)=  2.28153742E-14
  sigma(3 3)= -7.60339667E-06  sigma(2 1)= -4.40041638E-14


--- !ResultsGS
iteration_state: {dtset: 1, itime: 1, icycle: 1, }
comment   : Summary of ground state results
lattice_vectors:
- [  0.0000000,  11.1770728,  10.7797325, ]
- [ 11.1770728,   0.0000000,  10.7797325, ]
- [ 11.1770728,  11.1770728,   0.0000000, ]
lattice_lengths: [  15.52835,   15.52835,   15.80677, ]
lattice_angles: [ 59.405,  59.405,  61.190, ] # degrees, (23, 13, 12)
lattice_volume:   2.6933583E+03
convergence: {deltae:  6.992E-12, res2:  1.500E-14, residm:  2.320E-06, diffor:  3.959E-09, }
etotal    :  -1.62742771E+02
entropy   :   0.00000000E+00
fermie    :  -8.98984374E-02
cartesian_stress_tensor: # hartree/bohr^3
- [ -7.66387899E-06,  -4.40041638E-14,   2.28153742E-14, ]
- [ -4.40041638E-14,  -7.66387899E-06,   2.28125383E-14, ]
- [  2.28153742E-14,   2.28125383E-14,  -7.60339667E-06, ]
pressure_GPa:   2.2489E-01
xred      :
- [  2.5000E-01,   2.5000E-01,   2.5000E-01, Cs]
- [  7.5000E-01,   7.5000E-01,   7.5000E-01, Cs]
- [  2.2964E-01,   2.2964E-01,   7.7036E-01, Br]
- [  7.7036E-01,   7.7036E-01,   2.2964E-01, Br]
- [  2.4466E-01,   7.5534E-01,   7.5534E-01,  I]
- [  7.5534E-01,   2.4466E-01,   7.5534E-01,  I]
- [  2.4466E-01,   7.5534E-01,   2.4466E-01,  I]
- [  7.5534E-01,   2.4466E-01,   2.4466E-01,  I]
- [  0.0000E+00,   0.0000E+00,   0.0000E+00, Zr]
cartesian_forces: # hartree/bohr
- [  8.13064192E-29,   1.72658455E-23,  -9.41147438E-23, ]
- [ -4.51702329E-29,   1.72660442E-23,  -9.41147251E-23, ]
- [ -1.19581017E-22,   1.36846980E-22,   8.03731508E-06, ]
- [  3.60349361E-22,  -3.43083398E-22,  -8.03731508E-06, ]
- [  6.41884755E-06,  -2.77397328E-17,   2.87619767E-17, ]
- [ -2.77391438E-17,   6.41884755E-06,   2.87613481E-17, ]
- [  2.77391438E-17,  -6.41884755E-06,  -2.87615364E-17, ]
- [ -6.41884755E-06,   2.77401909E-17,  -2.87630120E-17, ]
- [ -0.00000000E+00,   1.72659629E-23,  -9.41147719E-23, ]
force_length_stats: {min:   9.56853929E-23, max:   8.03731508E-06, mean:   4.63889115E-06, }
...

 Integrated electronic density in atomic spheres:
 ------------------------------------------------
 Atom  Sphere_radius  Integrated_density
    1        2.20660          5.37710838
    2        2.20660          5.37710838
    3        2.20000          4.92068799
    4        2.20000          4.92068799
    5        2.30022          4.00714098
    6        2.30022          4.00714098
    7        2.30022          4.00714098
    8        2.30022          4.00714098
    9        2.21000          8.82069704

 PAW TEST:
 ==== Compensation charge inside spheres ============
 The following values must be close to each other ...
 Compensation charge over spherical meshes =     -5.088482892807979
 Compensation charge over fine fft grid    =     -5.088479747191751

 ==== Results concerning PAW augmentation regions ====

 Total pseudopotential strength Dij (hartree):
 Atom #  1
   0.44067  -0.14592   0.00000   0.00000   0.00000   0.00000   0.00000   0.00000   0.00000   0.00000  -0.00000   0.00000 ...
  -0.14592   0.04398   0.00000   0.00000   0.00000   0.00000   0.00000   0.00000   0.00000   0.00000   0.00000   0.00000 ...
   0.00000   0.00000  -0.09364   0.00000   0.00000  -0.16651   0.00000   0.00000   0.00000   0.00000   0.00000  -0.00000 ...
   0.00000   0.00000   0.00000  -0.09364   0.00000   0.00000  -0.16651   0.00000  -0.00000   0.00000   0.00000   0.00000 ...
   0.00000   0.00000   0.00000   0.00000  -0.09364   0.00000   0.00000  -0.16651   0.00000  -0.00000   0.00000   0.00000 ...
   0.00000   0.00000  -0.16651   0.00000   0.00000   0.40411   0.00000   0.00000   0.00000   0.00000   0.00000   0.00000 ...
   0.00000   0.00000   0.00000  -0.16651   0.00000   0.00000   0.40411   0.00000   0.00000   0.00000   0.00000   0.00000 ...
   0.00000   0.00000   0.00000   0.00000  -0.16651   0.00000   0.00000   0.40411   0.00000   0.00000   0.00000   0.00000 ...
   0.00000   0.00000   0.00000  -0.00000   0.00000   0.00000   0.00000   0.00000   0.00522   0.00000   0.00000   0.00000 ...
   0.00000   0.00000   0.00000   0.00000  -0.00000   0.00000   0.00000   0.00000   0.00000   0.00522   0.00000   0.00000 ...
  -0.00000   0.00000   0.00000   0.00000   0.00000   0.00000   0.00000   0.00000   0.00000   0.00000   0.00522   0.00000 ...
   0.00000   0.00000  -0.00000   0.00000   0.00000   0.00000   0.00000   0.00000   0.00000   0.00000   0.00000   0.00522 ...
   ...  only 12  components have been written...
 Atom #  9
   3.08532  -0.89874   0.00000   0.00000   0.00000   0.00000   0.00000   0.00000   0.00000   0.00000   0.00008   0.00000 ...
  -0.89874   0.26861   0.00000   0.00000   0.00000   0.00000   0.00000   0.00000   0.00000   0.00000  -0.00001   0.00000 ...
   0.00000   0.00000   0.26601   0.00000   0.00000  -0.05399   0.00000   0.00000   0.00000   0.00000   0.00000   0.00000 ...
   0.00000   0.00000   0.00000   0.26612   0.00000   0.00000  -0.05401   0.00000   0.00000   0.00000   0.00000   0.00000 ...
   0.00000   0.00000   0.00000   0.00000   0.26601   0.00000   0.00000  -0.05399   0.00000   0.00000   0.00000   0.00000 ...
   0.00000   0.00000  -0.05399   0.00000   0.00000   0.01484   0.00000   0.00000   0.00000   0.00000   0.00000   0.00000 ...
   0.00000   0.00000   0.00000  -0.05401   0.00000   0.00000   0.01484   0.00000   0.00000   0.00000   0.00000   0.00000 ...
   0.00000   0.00000   0.00000   0.00000  -0.05399   0.00000   0.00000   0.01484   0.00000   0.00000   0.00000   0.00000 ...
   0.00000   0.00000   0.00000   0.00000   0.00000   0.00000   0.00000   0.00000  -0.01759   0.00000   0.00000   0.00000 ...
   0.00000   0.00000   0.00000   0.00000   0.00000   0.00000   0.00000   0.00000   0.00000  -0.01750   0.00000   0.00000 ...
   0.00008  -0.00001   0.00000   0.00000   0.00000   0.00000   0.00000   0.00000   0.00000   0.00000  -0.01738   0.00000 ...
   0.00000   0.00000   0.00000   0.00000   0.00000   0.00000   0.00000   0.00000   0.00000   0.00000   0.00000  -0.01750 ...
   ...  only 12  components have been written...


 Augmentation waves occupancies Rhoij:
 Atom #  1
   1.99680  -0.01685   0.00000   0.00000   0.00000   0.00000   0.00000   0.00000   0.00000   0.00000  -0.00150   0.00000 ...
  -0.01685   0.12941   0.00000   0.00000   0.00000   0.00000   0.00000   0.00000   0.00000   0.00000   0.01468   0.00000 ...
   0.00000   0.00000   2.00764   0.00000   0.00000  -0.00499   0.00000   0.00000   0.00000   0.00000   0.00000   0.00001 ...
   0.00000   0.00000   0.00000   2.00898   0.00000   0.00000  -0.00526   0.00000   0.00030   0.00000   0.00000   0.00000 ...
   0.00000   0.00000   0.00000   0.00000   2.00764   0.00000   0.00000  -0.00499   0.00000   0.00001   0.00000   0.00000 ...
   0.00000   0.00000  -0.00499   0.00000   0.00000   0.00008   0.00000   0.00000   0.00000   0.00000   0.00000  -0.00000 ...
   0.00000   0.00000   0.00000  -0.00526   0.00000   0.00000   0.00010   0.00000  -0.00002   0.00000   0.00000   0.00000 ...
   0.00000   0.00000   0.00000   0.00000  -0.00499   0.00000   0.00000   0.00008   0.00000  -0.00000   0.00000   0.00000 ...
   0.00000   0.00000   0.00000   0.00030   0.00000   0.00000  -0.00002   0.00000   0.02058   0.00000   0.00000   0.00000 ...
   0.00000   0.00000   0.00000   0.00000   0.00001   0.00000   0.00000  -0.00000   0.00000   0.04794   0.00000   0.00000 ...
  -0.00150   0.01468   0.00000   0.00000   0.00000   0.00000   0.00000   0.00000   0.00000   0.00000   0.01847   0.00000 ...
   0.00000   0.00000   0.00001   0.00000   0.00000  -0.00000   0.00000   0.00000   0.00000   0.00000   0.00000   0.04794 ...
   ...  only 12  components have been written...
 Atom #  9
   1.99263  -0.06540   0.00000   0.00000   0.00000   0.00000   0.00000   0.00000   0.00000   0.00000  -0.00255   0.00000 ...
  -0.06540   1.04445   0.00000   0.00000   0.00000   0.00000   0.00000   0.00000   0.00000   0.00000   0.06225   0.00000 ...
   0.00000   0.00000   1.96697   0.00000   0.00000  -0.19698   0.00000   0.00000   0.00000   0.00000   0.00000   0.00000 ...
   0.00000   0.00000   0.00000   1.96475   0.00000   0.00000  -0.20837   0.00000   0.00000   0.00000   0.00000   0.00000 ...
   0.00000   0.00000   0.00000   0.00000   1.96697   0.00000   0.00000  -0.19698   0.00000   0.00000   0.00000   0.00000 ...
   0.00000   0.00000  -0.19698   0.00000   0.00000   1.42780   0.00000   0.00000   0.00000   0.00000   0.00000   0.00000 ...
   0.00000   0.00000   0.00000  -0.20837   0.00000   0.00000   1.72152   0.00000   0.00000   0.00000   0.00000   0.00000 ...
   0.00000   0.00000   0.00000   0.00000  -0.19698   0.00000   0.00000   1.42780   0.00000   0.00000   0.00000   0.00000 ...
   0.00000   0.00000   0.00000   0.00000   0.00000   0.00000   0.00000   0.00000   0.41517   0.00000   0.00000   0.00000 ...
   0.00000   0.00000   0.00000   0.00000   0.00000   0.00000   0.00000   0.00000   0.00000   0.46127   0.00000   0.00000 ...
  -0.00255   0.06225   0.00000   0.00000   0.00000   0.00000   0.00000   0.00000   0.00000   0.00000   1.39987   0.00000 ...
   0.00000   0.00000   0.00000   0.00000   0.00000   0.00000   0.00000   0.00000   0.00000   0.00000   0.00000   0.46127 ...
   ...  only 12  components have been written...



---OUTPUT-----------------------------------------------------------------------

 Cartesian coordinates (xcart) [bohr]
  5.58853637806605E+00  5.58853637806605E+00  5.38986623652865E+00
  1.67656091341982E+01  1.67656091341982E+01  1.61695987095860E+01
  1.11770727561582E+01  1.11770727561582E+01  4.95100401460335E+00
  1.11770727561060E+01  1.11770727561060E+01  1.66084609315113E+01
  1.68849620089027E+01  1.11770727561568E+01  1.07797324730573E+01
  1.11770727561568E+01  1.68849620089027E+01  1.07797324730573E+01
  1.11770727561074E+01  5.46918350336151E+00  1.07797324730573E+01
  5.46918350336151E+00  1.11770727561074E+01  1.07797324730573E+01
  0.00000000000000E+00  0.00000000000000E+00  0.00000000000000E+00
 Reduced coordinates (xred)
  2.50000000000000E-01  2.50000000000000E-01  2.50000000000000E-01
  7.50000000000000E-01  7.50000000000000E-01  7.50000000000000E-01
  2.29644104201000E-01  2.29644104201000E-01  7.70355895799000E-01
  7.70355895799000E-01  7.70355895799000E-01  2.29644104201000E-01
  2.44660816955000E-01  7.55339183045000E-01  7.55339183045000E-01
  7.55339183045000E-01  2.44660816955000E-01  7.55339183045000E-01
  2.44660816955000E-01  7.55339183045000E-01  2.44660816955000E-01
  7.55339183045000E-01  2.44660816955000E-01  2.44660816955000E-01
  0.00000000000000E+00  0.00000000000000E+00  0.00000000000000E+00
 Cartesian forces (fcart) [Ha/bohr]; max,rms= 8.03732E-06 3.29985E-06 (free atoms)
  8.13064191893803E-29  1.72658454699079E-23 -9.41147438160215E-23
 -4.51702328830585E-29  1.72660442189326E-23 -9.41147250819396E-23
 -1.19581017212041E-22  1.36846980124555E-22  8.03731508200871E-06
  3.60349361388938E-22 -3.43083398476425E-22 -8.03731508200871E-06
  6.41884755443818E-06 -2.77397328464756E-17  2.87619767384430E-17
 -2.77391438478354E-17  6.41884755443818E-06  2.87613481269636E-17
  2.77391438478354E-17 -6.41884755443818E-06 -2.87615363565074E-17
 -6.41884755443818E-06  2.77401908948750E-17 -2.87630120009341E-17
 -0.00000000000000E+00  1.72659629125134E-23 -9.41147719171445E-23
 Reduced forces (fred)
  8.21550149094576E-22  1.01453085133927E-21 -1.92982519781891E-22
  8.21547725713875E-22  1.01453206302962E-21 -1.92983327575458E-22
 -8.66401063857225E-05 -8.66401063857225E-05 -1.92982923678675E-22
  8.66401063857225E-05  8.66401063857225E-05 -1.92982923678675E-22
  2.59762267220052E-21 -7.17439261264761E-05 -7.17439261264761E-05
 -7.17439261264761E-05  2.79060559587292E-21 -7.17439261264761E-05
  7.17439261264761E-05 -7.61541469843202E-22  7.17439261264761E-05
  3.44258973460319E-21  7.17439261264761E-05  7.17439261264761E-05
  8.21549139352617E-22  1.01453206302962E-21 -1.92982923678675E-22
 Scale of Primitive Cell (acell) [bohr]
  1.55283478704425E+01  1.55283478704425E+01  1.58067678794211E+01
 Real space primitive translations (rprimd) [bohr]
  0.00000000000000E+00  1.11770727560838E+01  1.07797324730573E+01
  1.11770727560838E+01  0.00000000000000E+00  1.07797324730573E+01
  1.11770727561804E+01  1.11770727561804E+01  0.00000000000000E+00
 Unitary Cell Volume (ucvol) [Bohr^3]=  2.69335831568209E+03
 Angles (23,13,12)= [degrees]
  5.94050935292312E+01  5.94050935292312E+01  6.11898129415376E+01
 Lengths [Bohr]
  1.55283478704425E+01  1.55283478704425E+01  1.58067678794212E+01
 Stress tensor in cartesian coordinates (strten) [Ha/bohr^3]
 -7.66387899437705E-06 -4.40041638027046E-14  2.28153742427693E-14
 -4.40041638027046E-14 -7.66387899437705E-06  2.28125383094782E-14
  2.28153742427693E-14  2.28125383094782E-14 -7.60339667417193E-06
 Total energy (etotal) [Ha]= -1.62742771117806E+02

 At Broyd/MD step   1, gradients are converged : 
  max grad (force/stress) = 8.0373E-06 < tolmxf= 1.0000E-05 ha/bohr (free atoms)

================================================================================

 ----iterations are completed or convergence reached----

 Mean square residual over all n,k,spin=   55.427E-10; max=  23.198E-07
 reduced coordinates (array xred) for    9 atoms
       0.250000000000      0.250000000000      0.250000000000
       0.750000000000      0.750000000000      0.750000000000
       0.229644104201      0.229644104201      0.770355895799
       0.770355895799      0.770355895799      0.229644104201
       0.244660816955      0.755339183045      0.755339183045
       0.755339183045      0.244660816955      0.755339183045
       0.244660816955      0.755339183045      0.244660816955
       0.755339183045      0.244660816955      0.244660816955
       0.000000000000      0.000000000000      0.000000000000
 rms dE/dt=  5.1353E-05; max dE/dt=  8.6640E-05; dE/dt below (all hartree)
    1       0.000000000000     -0.000000000000      0.000000000000
    2      -0.000000000000      0.000000000000     -0.000000000000
    3      -0.000086640106     -0.000086640106      0.000000000000
    4       0.000086640106      0.000086640106      0.000000000000
    5       0.000000000000     -0.000071743926     -0.000071743926
    6      -0.000071743926      0.000000000000     -0.000071743926
    7       0.000071743926      0.000000000000      0.000071743926
    8      -0.000000000000      0.000071743926      0.000071743926
    9       0.000000000000      0.000000000000      0.000000000000

 cartesian coordinates (angstrom) at end:
    1      2.95732608064866     2.95732608064866     2.85219436971972
    2      8.87197824194598     8.87197824194598     8.55658310915916
    3      5.91465216131114     5.91465216131114     2.61995848416568
    4      5.91465216128350     5.91465216128350     8.78881899471320
    5      8.93513706301933     5.91465216131038     5.70438873943944
    6      5.91465216131038     8.93513706301933     5.70438873943944
    7      5.91465216128427     2.89416725957532     5.70438873943944
    8      2.89416725957532     5.91465216128427     5.70438873943944
    9      0.00000000000000     0.00000000000000     0.00000000000000

 cartesian forces (hartree/bohr) at end:
    1      0.00000000000000     0.00000000000000    -0.00000000000000
    2     -0.00000000000000     0.00000000000000    -0.00000000000000
    3     -0.00000000000000     0.00000000000000     0.00000803731508
    4      0.00000000000000    -0.00000000000000    -0.00000803731508
    5      0.00000641884755    -0.00000000000000     0.00000000000000
    6     -0.00000000000000     0.00000641884755     0.00000000000000
    7      0.00000000000000    -0.00000641884755    -0.00000000000000
    8     -0.00000641884755     0.00000000000000    -0.00000000000000
    9     -0.00000000000000     0.00000000000000    -0.00000000000000
 frms,max,avg= 3.2998501E-06 8.0373151E-06   0.000E+00  0.000E+00  0.000E+00 h/b

 cartesian forces (eV/Angstrom) at end:
    1      0.00000000000000     0.00000000000000    -0.00000000000000
    2     -0.00000000000000     0.00000000000000    -0.00000000000000
    3     -0.00000000000000     0.00000000000000     0.00041329532404
    4      0.00000000000000    -0.00000000000000    -0.00041329532404
    5      0.00033007038457    -0.00000000000000     0.00000000000000
    6     -0.00000000000000     0.00033007038457     0.00000000000000
    7      0.00000000000000    -0.00033007038457    -0.00000000000000
    8     -0.00033007038457     0.00000000000000    -0.00000000000000
    9     -0.00000000000000     0.00000000000000    -0.00000000000000
 frms,max,avg= 1.6968510E-04 4.1329532E-04   0.000E+00  0.000E+00  0.000E+00 e/A
 length scales= 15.528347870443 15.528347870443 15.806767879421 bohr
              =  8.217247780095  8.217247780095  8.364581303262 angstroms
 prteigrs : about to open file Cs2TiI6o_DS1_EIG
 Fermi (or HOMO) energy (hartree) =  -0.08990   Average Vxc (hartree)=  -0.28424
 Eigenvalues (hartree) for nkpt=  20  k points:
 kpt#   1, nband= 42, wtk=  0.03125, kpt= -0.1250 -0.2500  0.0000 (reduced coord)
  -1.90552   -1.09633   -1.09540   -1.09540   -0.84135   -0.84127   -0.59445   -0.58769
  -0.50817   -0.49794   -0.49750   -0.49438   -0.35825   -0.35736   -0.35714   -0.35666
  -0.35651   -0.35601   -0.21420   -0.18679   -0.17790   -0.17728   -0.17242   -0.17053
  -0.16939   -0.16446   -0.15558   -0.13475   -0.13321   -0.12036   -0.11780   -0.10670
  -0.10625   -0.10379   -0.10043   -0.09010   -0.02036   -0.00920   -0.00880    0.06423
   0.06730    0.08166
 prteigrs : prtvol=0 or 1, do not print more k-points.


--- !EnergyTerms
iteration_state     : {dtset: 1, itime: 1, icycle: 1, }
comment             : Components of total free energy in Hartree
kinetic             :  4.59602363492645E+01
hartree             :  3.81919316100236E+01
xc                  : -6.04734332294262E+01
Ewald energy        : -1.15472302961937E+02
psp_core            :  1.37329175125445E+01
local_psp           : -1.11459516770431E+02
spherical_terms     :  2.67773963122181E+01
total_energy        : -1.62742771177744E+02
total_energy_eV     : -4.42845601695773E+03
...


--- !EnergyTermsDC
iteration_state     : {dtset: 1, itime: 1, icycle: 1, }
comment             : '"Double-counting" decomposition of free energy'
band_energy         : -2.96625883062378E+01
Ewald energy        : -1.15472302961937E+02
psp_core            :  1.37329175125445E+01
xc_dc               : -5.67819665965288E+01
spherical_terms     :  2.54411692343532E+01
total_energy_dc     : -1.62742771117806E+02
total_energy_dc_eV  : -4.42845601532675E+03
...


 Cartesian components of stress tensor (hartree/bohr^3)
  sigma(1 1)= -7.66387899E-06  sigma(3 2)=  2.28125383E-14
  sigma(2 2)= -7.66387899E-06  sigma(3 1)=  2.28153742E-14
  sigma(3 3)= -7.60339667E-06  sigma(2 1)= -4.40041638E-14

-Cartesian components of stress tensor (GPa)         [Pressure=  2.2489E-01 GPa]
- sigma(1 1)= -2.25479067E-01  sigma(3 2)=  6.71167936E-10
- sigma(2 2)= -2.25479067E-01  sigma(3 1)=  6.71251372E-10
- sigma(3 3)= -2.23699616E-01  sigma(2 1)= -1.29464698E-09

================================================================================
== DATASET  2 ==================================================================
-   mpi_nproc: 6, omp_nthreads: -1 (-1 if OMP is not activated)


--- !DatasetInfo
iteration_state: {dtset: 2, }
dimensions: {natom: 9, nkpt: 20, mband: 42, nsppol: 1, nspinor: 1, nspden: 1, mpw: 12181, }
cutoff_energies: {ecut:  16.0, pawecutdg:  40.0, }
electrons: {nelect:   7.20000000E+01, charge:   0.00000000E+00, occopt:   1.00000000E+00, tsmear:   1.00000000E-02, }
meta: {optdriver: 0, ionmov: 2, optcell: 3, iscf: 17, paral_kgb: 0, }
...

 find_getdtset : getxred/=0, take data from output of dataset with index  1.

 Real(R)+Recip(G) space primitive vectors, cartesian coordinates (Bohr,Bohr^-1):
 R(1)=  0.0000000 11.0700543 10.6595109  G(1)= -0.0451669  0.0451669  0.0469065
 R(2)= 11.0700543  0.0000000 10.6595109  G(2)=  0.0451669 -0.0451669  0.0469065
 R(3)= 11.0700543 11.0700543  0.0000000  G(3)=  0.0451669  0.0451669 -0.0469065
 Unit cell volume ucvol=  2.6125630E+03 bohr^3
 Angles (23,13,12)=  5.93790736E+01  5.93790736E+01  6.12418527E+01 degrees

 Coarse grid specifications (used for wave-functions):

 getcut: wavevector=  0.0000  0.0000  0.0000  ngfft=  72  72  72
         ecut(hartree)=     21.160   => boxcut(ratio)=   2.22098

 getcut : COMMENT -
  Note that boxcut > 2.2 ; recall that boxcut=Gcut(box)/Gcut(sphere) = 2
  is sufficient for exact treatment of convolution.
  Such a large boxcut is a waste : you could raise ecut
  e.g. ecut=   26.094276 Hartrees makes boxcut=2


 Fine grid specifications (used for densities):

 getcut: wavevector=  0.0000  0.0000  0.0000  ngfft= 108 108 108
         ecut(hartree)=     52.900   => boxcut(ratio)=   2.10701

--- Pseudopotential description ------------------------------------------------
- pspini: atom type   1  psp file is ../../../Psps_for_tests/ATOMICDATA/Cs.GGA_PBE-JTH.xml
- pspatm: opening atomic psp file    ../../../Psps_for_tests/ATOMICDATA/Cs.GGA_PBE-JTH.xml
- pspatm : Reading pseudopotential header in XML form from ../../../Psps_for_tests/ATOMICDATA/Cs.GGA_PBE-JTH.xml
 Pseudopotential format is: paw10
 basis_size (lnmax)=  6 (lmn_size= 18), orbitals=   0   0   1   1   2   2
 Spheres core radius: rc_sph= 2.20660278
 1 radial meshes are used:
  - mesh 1: r(i)=AA*[exp(BB*(i-1))-1], size=1500 , AA= 0.15922E-03 BB= 0.87573E-02
 Shapefunction is SIN type: shapef(r)=[sin(pi*r/rshp)/(pi*r/rshp)]**2
 Radius for shape functions =  2.00394208
 mmax= 1500
 Radial grid used for partial waves is grid 1
 Radial grid used for projectors is grid 1
 Radial grid used for (t)core density is grid 1
 Radial grid used for Vloc is grid 1
 Radial grid used for pseudo valence density is grid 1
 Mesh size for Vloc has been set to 1341 to avoid numerical noise.
 Compensation charge density is not taken into account in XC energy/potential
 pspatm: atomic psp has been read  and splines computed

- pspini: atom type   2  psp file is ../../../Psps_for_tests/ATOMICDATA/I.GGA_PBE-JTH.xml
- pspatm: opening atomic psp file    ../../../Psps_for_tests/ATOMICDATA/I.GGA_PBE-JTH.xml
- pspatm : Reading pseudopotential header in XML form from ../../../Psps_for_tests/ATOMICDATA/I.GGA_PBE-JTH.xml
 Pseudopotential format is: paw10
 basis_size (lnmax)=  4 (lmn_size=  8), orbitals=   0   0   1   1
 Spheres core radius: rc_sph= 2.30022271
 1 radial meshes are used:
  - mesh 1: r(i)=AA*[exp(BB*(i-1))-1], size=2000 , AA= 0.12610E-03 BB= 0.66836E-02
 Shapefunction is SIN type: shapef(r)=[sin(pi*r/rshp)/(pi*r/rshp)]**2
 Radius for shape functions =  2.10879093
 mmax= 2000
 Radial grid used for partial waves is grid 1
 Radial grid used for projectors is grid 1
 Radial grid used for (t)core density is grid 1
 Radial grid used for Vloc is grid 1
 Radial grid used for pseudo valence density is grid 1
 Mesh size for Vloc has been set to 1792 to avoid numerical noise.
 Compensation charge density is not taken into account in XC energy/potential
 pspatm: atomic psp has been read  and splines computed

- pspini: atom type   3  psp file is ../../../Psps_for_tests/ATOMICDATA/Zr.GGA_PBE-JTH.xml
- pspatm: opening atomic psp file    ../../../Psps_for_tests/ATOMICDATA/Zr.GGA_PBE-JTH.xml
- pspatm : Reading pseudopotential header in XML form from ../../../Psps_for_tests/ATOMICDATA/Zr.GGA_PBE-JTH.xml
 Pseudopotential format is: paw10
 basis_size (lnmax)=  6 (lmn_size= 18), orbitals=   0   0   1   1   2   2
 Spheres core radius: rc_sph= 2.21000000
 1 radial meshes are used:
  - mesh 1: r(i)=AA*[exp(BB*(i-1))-1], size= 941 , AA= 0.35256E-03 BB= 0.14102E-01
 Shapefunction is BESSEL type: shapef(r,l)=aa(1,l)*jl(q(1,l)*r)+aa(2,l)*jl(q(2,l)*r)
 Radius for shape functions =  2.21000000
 mmax=  941
 Radial grid used for partial waves is grid 1
 Radial grid used for projectors is grid 1
 Radial grid used for (t)core density is grid 1
 Radial grid used for Vloc is grid 1
 Radial grid used for pseudo valence density is grid 1
 Mesh size for Vloc has been set to  777 to avoid numerical noise.
 Compensation charge density is not taken into account in XC energy/potential
 pspatm: atomic psp has been read  and splines computed

- pspini: atom type   4  psp file is ../../../Psps_for_tests/ATOMICDATA/Br.GGA_PBE-JTH.xml
- pspatm: opening atomic psp file    ../../../Psps_for_tests/ATOMICDATA/Br.GGA_PBE-JTH.xml
- pspatm : Reading pseudopotential header in XML form from ../../../Psps_for_tests/ATOMICDATA/Br.GGA_PBE-JTH.xml
 Pseudopotential format is: paw10
 basis_size (lnmax)=  4 (lmn_size=  8), orbitals=   0   0   1   1
 Spheres core radius: rc_sph= 2.20000000
 1 radial meshes are used:
  - mesh 1: r(i)=AA*[exp(BB*(i-1))-1], size= 927 , AA= 0.40483E-03 BB= 0.14169E-01
 Shapefunction is BESSEL type: shapef(r,l)=aa(1,l)*jl(q(1,l)*r)+aa(2,l)*jl(q(2,l)*r)
 Radius for shape functions =  2.02066386
 mmax=  927
 Radial grid used for partial waves is grid 1
 Radial grid used for projectors is grid 1
 Radial grid used for (t)core density is grid 1
 Radial grid used for Vloc is grid 1
 Radial grid used for pseudo valence density is grid 1
 Mesh size for Vloc has been set to  763 to avoid numerical noise.
 Compensation charge density is not taken into account in XC energy/potential
 pspatm: atomic psp has been read  and splines computed

--------------------------------------------------------------------------------

_setup2: Arith. and geom. avg. npw (full set) are   12146.844   12146.838

================================================================================

=== [ionmov= 2] Broyden-Fletcher-Goldfard-Shanno method (forces)            
================================================================================

--- Iteration: (   1/1000) Internal Cycle: (1/1)
--------------------------------------------------------------------------------

---SELF-CONSISTENT-FIELD CONVERGENCE--------------------------------------------

--- !BeginCycle
iteration_state: {dtset: 2, itime: 1, icycle: 1, }
solver: {iscf: 17, nstep: 2500, nline: 4, wfoptalg: 10, }
tolerances: {toldff: 1.00E-08, }
...

     iter   Etot(hartree)      deltaE(h)  residm     nres2    diffor    maxfor
 ETOT  1  -162.52865869924    -1.625E+02 2.096E-01 2.753E+01 3.804E-02 3.804E-02
 ETOT  2  -162.74498973884    -2.163E-01 1.062E-02 7.945E+00 1.024E-01 6.437E-02
 ETOT  3  -162.74086004766     4.130E-03 1.480E-03 1.796E+00 5.698E-02 7.391E-03
 ETOT  4  -162.74147785490    -6.178E-04 1.680E-03 1.328E-01 7.862E-03 1.525E-02
 ETOT  5  -162.74103818436     4.397E-04 5.575E-04 1.409E-02 1.875E-02 3.499E-03
 ETOT  6  -162.74110315793    -6.497E-05 3.817E-04 1.874E-03 2.225E-03 5.724E-03
 ETOT  7  -162.74110242806     7.299E-07 2.150E-04 6.003E-04 2.221E-04 5.502E-03
 ETOT  8  -162.74110444397    -2.016E-06 1.723E-04 9.975E-05 5.875E-04 5.947E-03
 ETOT  9  -162.74110452334    -7.937E-08 2.374E-04 3.465E-05 2.656E-04 5.682E-03
 ETOT 10  -162.74110457119    -4.785E-08 1.308E-04 2.196E-06 8.864E-05 5.770E-03
 ETOT 11  -162.74110459162    -2.043E-08 2.147E-04 2.428E-06 1.951E-05 5.753E-03
 ETOT 12  -162.74110458660     5.018E-09 9.032E-05 2.642E-07 6.986E-06 5.746E-03
 ETOT 13  -162.74110458805    -1.445E-09 1.166E-04 1.204E-07 7.333E-06 5.739E-03
 ETOT 14  -162.74110458782     2.238E-10 4.253E-05 3.225E-09 2.852E-06 5.741E-03
 ETOT 15  -162.74110458789    -6.483E-11 4.911E-05 7.319E-09 2.078E-07 5.741E-03
 ETOT 16  -162.74110458786     2.484E-11 1.692E-05 3.540E-10 7.702E-07 5.740E-03
 ETOT 17  -162.74110458786     5.684E-14 1.872E-05 4.261E-10 1.696E-07 5.741E-03
 ETOT 18  -162.74110458787    -4.519E-12 1.359E-05 9.598E-12 3.210E-07 5.741E-03
 ETOT 19  -162.74110458787    -2.871E-12 1.337E-05 1.194E-11 2.381E-08 5.741E-03
 ETOT 20  -162.74110458787     4.917E-12 1.406E-05 1.741E-12 1.389E-08 5.741E-03
 ETOT 21  -162.74110458786     5.969E-12 1.362E-05 5.911E-13 1.018E-08 5.741E-03
 ETOT 22  -162.74110458786     1.222E-12 1.404E-05 9.703E-14 2.751E-09 5.741E-03
 ETOT 23  -162.74110458788    -2.092E-11 1.340E-05 2.425E-14 2.875E-09 5.741E-03

 At SCF step   23, forces are converged : 
  for the second time, max diff in force=  2.875E-09 < toldff=  1.000E-08

 Cartesian components of stress tensor (hartree/bohr^3)
  sigma(1 1)= -3.17970261E-05  sigma(3 2)=  2.41540521E-14
  sigma(2 2)= -3.17970261E-05  sigma(3 1)=  2.41539756E-14
  sigma(3 3)= -3.64617560E-05  sigma(2 1)= -4.65175818E-14


--- !ResultsGS
iteration_state: {dtset: 2, itime: 1, icycle: 1, }
comment   : Summary of ground state results
lattice_vectors:
- [  0.0000000,  11.0700543,  10.6595109, ]
- [ 11.0700543,   0.0000000,  10.6595109, ]
- [ 11.0700543,  11.0700543,   0.0000000, ]
lattice_lengths: [  15.36787,   15.36787,   15.65542, ]
lattice_angles: [ 59.379,  59.379,  61.242, ] # degrees, (23, 13, 12)
lattice_volume:   2.6125630E+03
convergence: {deltae: -2.092E-11, res2:  2.425E-14, residm:  1.340E-05, diffor:  2.875E-09, }
etotal    :  -1.62741105E+02
entropy   :   0.00000000E+00
fermie    :  -8.55404061E-02
cartesian_stress_tensor: # hartree/bohr^3
- [ -3.17970261E-05,  -4.65175818E-14,   2.41539756E-14, ]
- [ -4.65175818E-14,  -3.17970261E-05,   2.41540521E-14, ]
- [  2.41539756E-14,   2.41540521E-14,  -3.64617560E-05, ]
pressure_GPa:   9.8125E-01
xred      :
- [  2.5000E-01,   2.5000E-01,   2.5000E-01, Cs]
- [  7.5000E-01,   7.5000E-01,   7.5000E-01, Cs]
- [  2.2964E-01,   2.2964E-01,   7.7036E-01, Br]
- [  7.7036E-01,   7.7036E-01,   2.2964E-01, Br]
- [  2.4466E-01,   7.5534E-01,   7.5534E-01,  I]
- [  7.5534E-01,   2.4466E-01,   7.5534E-01,  I]
- [  2.4466E-01,   7.5534E-01,   2.4466E-01,  I]
- [  7.5534E-01,   2.4466E-01,   2.4466E-01,  I]
- [  0.0000E+00,   0.0000E+00,   0.0000E+00, Zr]
cartesian_forces: # hartree/bohr
- [  9.63735264E-20,   1.10376758E-19,  -3.61643334E-20, ]
- [  9.63735265E-20,   1.10376758E-19,  -3.61643333E-20, ]
- [  2.21498898E-19,  -1.47486134E-20,   5.74084750E-03, ]
- [ -2.87518449E-20,   2.35502129E-19,  -5.74084750E-03, ]
- [ -4.08907801E-03,   1.76545172E-14,  -1.83337803E-14, ]
- [  1.76545032E-14,  -4.08907801E-03,  -1.83337803E-14, ]
- [ -1.76546239E-14,   4.08907801E-03,   1.83340335E-14, ]
- [  4.08907801E-03,  -1.76542965E-14,   1.83337080E-14, ]
- [  9.63735264E-20,   1.10376758E-19,  -3.61643333E-20, ]
[...]
                       5.6336531245E+00  2.8586113745E+00  5.3822678005E+00
                       2.8586113745E+00  5.6336531245E+00  5.3822678005E+00
                       4.3502369703E-21 -3.3095015167E-21 -1.0994993169E-22
           xangst7     2.7892142201E+00  2.7892142201E+00  2.6580127841E+00
                       8.3676426604E+00  8.3676426604E+00  7.9740383524E+00
                       5.5784284403E+00  5.5784284403E+00  2.6009456253E+00
                       5.5784284403E+00  5.5784284403E+00  8.0311055113E+00
                       8.3086669595E+00  5.5784284403E+00  5.3160255683E+00
                       5.5784284403E+00  8.3086669595E+00  5.3160255683E+00
                       5.5784284403E+00  2.8481899211E+00  5.3160255683E+00
                       2.8481899211E+00  5.5784284403E+00  5.3160255683E+00
                       1.4794838460E-21 -1.2104395941E-21  2.4471591820E-22
           xangst8     2.7619906774E+00  2.7619906774E+00  2.6241643213E+00
                       8.2859720323E+00  8.2859720323E+00  7.8724929638E+00
                       5.5239813549E+00  5.5239813549E+00  2.5944005232E+00
                       5.5239813548E+00  5.5239813548E+00  7.9022567619E+00
                       8.2115248477E+00  5.5239813549E+00  5.2483286425E+00
                       5.5239813549E+00  8.2115248477E+00  5.2483286425E+00
                       5.5239813548E+00  2.8364378620E+00  5.2483286425E+00
                       2.8364378620E+00  5.5239813548E+00  5.2483286425E+00
                      -1.8827181294E-21  4.1840538999E-21 -1.0248482571E-20
           xangst9     2.7345840830E+00  2.7345840830E+00  2.5906788219E+00
                       8.2037522490E+00  8.2037522490E+00  7.7720364656E+00
                       5.4691681660E+00  5.4691681660E+00  2.5865860730E+00
                       5.4691681660E+00  5.4691681660E+00  7.7761292145E+00
                       8.1150453720E+00  5.4691681660E+00  5.1813576438E+00
                       5.4691681660E+00  8.1150453720E+00  5.1813576438E+00
                       5.4691681660E+00  2.8232909600E+00  5.1813576438E+00
                       2.8232909600E+00  5.4691681660E+00  5.1813576438E+00
                       1.3471744477E-21 -1.5067858449E-21 -9.6180574340E-22
            xcart1     5.5885363781E+00  5.5885363781E+00  5.3898662365E+00
                       1.6765609134E+01  1.6765609134E+01  1.6169598710E+01
                       1.1177072756E+01  1.1177072756E+01  4.9510040146E+00
                       1.1177072756E+01  1.1177072756E+01  1.6608460932E+01
                       1.6884962009E+01  1.1177072756E+01  1.0779732473E+01
                       1.1177072756E+01  1.6884962009E+01  1.0779732473E+01
                       1.1177072756E+01  5.4691835034E+00  1.0779732473E+01
                       5.4691835034E+00  1.1177072756E+01  1.0779732473E+01
                       0.0000000000E+00  0.0000000000E+00  0.0000000000E+00
            xcart2     5.5342234428E+00  5.5342234428E+00  5.3313036098E+00
                       1.6602670328E+01  1.6602670328E+01  1.5993910830E+01
                       1.1068446886E+01  1.1068446886E+01  4.9481845010E+00
                       1.1068446886E+01  1.1068446886E+01  1.6377029938E+01
                       1.6677803068E+01  1.1068446886E+01  1.0662607220E+01
                       1.1068446886E+01  1.6677803068E+01  1.0662607220E+01
                       1.1068446886E+01  5.4590907034E+00  1.0662607220E+01
                       5.4590907034E+00  1.1068446886E+01  1.0662607220E+01
                       4.5203862234E-21 -1.7668444595E-21 -1.0772522715E-21
            xcart3     5.4810932514E+00  5.4810932514E+00  5.2704705254E+00
                       1.6443279754E+01  1.6443279754E+01  1.5811411576E+01
                       1.0962186503E+01  1.0962186503E+01  4.9446131568E+00
                       1.0962186503E+01  1.0962186503E+01  1.6137268945E+01
                       1.6476462259E+01  1.0962186503E+01  1.0540941051E+01
                       1.0962186503E+01  1.6476462259E+01  1.0540941051E+01
                       1.0962186503E+01  5.4479107462E+00  1.0540941051E+01
                       5.4479107462E+00  1.0962186503E+01  1.0540941051E+01
                       0.0000000000E+00  0.0000000000E+00  0.0000000000E+00
            xcart4     5.4271725194E+00  5.4271725194E+00  5.2111672598E+00
                       1.6281517558E+01  1.6281517558E+01  1.5633501780E+01
                       1.0854345039E+01  1.0854345039E+01  4.9398098942E+00
                       1.0854345039E+01  1.0854345039E+01  1.5904859145E+01
                       1.6274103596E+01  1.0854345039E+01  1.0422334520E+01
                       1.0854345039E+01  1.6274103596E+01  1.0422334520E+01
                       1.0854345039E+01  5.4345864814E+00  1.0422334520E+01
                       5.4345864814E+00  1.0854345039E+01  1.0422334520E+01
                       2.0920914810E-21  4.2214936569E-21 -7.4829741283E-21
            xcart5     5.3753665253E+00  5.3753665253E+00  5.1478184124E+00
                       1.6126099576E+01  1.6126099576E+01  1.5443455237E+01
                       1.0750733051E+01  1.0750733051E+01  4.9333090538E+00
                       1.0750733051E+01  1.0750733051E+01  1.5657964596E+01
                       1.6081920786E+01  1.0750733051E+01  1.0295636825E+01
                       1.0750733051E+01  1.6081920786E+01  1.0295636825E+01
                       1.0750733051E+01  5.4195453149E+00  1.0295636825E+01
                       5.4195453149E+00  1.0750733051E+01  1.0295636825E+01
                       6.0082215055E-22 -5.8062233244E-22 -1.0560693498E-22
            xcart6     5.3230307665E+00  5.3230307665E+00  5.0855060584E+00
                       1.5969092300E+01  1.5969092300E+01  1.5256518175E+01
                       1.0646061533E+01  1.0646061533E+01  4.9249510581E+00
                       1.0646061533E+01  1.0646061533E+01  1.5417073176E+01
                       1.5890130448E+01  1.0646061533E+01  1.0171012117E+01
                       1.0646061533E+01  1.5890130448E+01  1.0171012117E+01
                       1.0646061533E+01  5.4019926182E+00  1.0171012117E+01
                       5.4019926182E+00  1.0646061533E+01  1.0171012117E+01
                       8.2207564871E-21 -6.2540515029E-21 -2.0777525923E-22
            xcart7     5.2708510020E+00  5.2708510020E+00  5.0229162197E+00
                       1.5812553006E+01  1.5812553006E+01  1.5068748659E+01
                       1.0541702004E+01  1.0541702004E+01  4.9150749183E+00
                       1.0541702004E+01  1.0541702004E+01  1.5176589961E+01
                       1.5701105083E+01  1.0541702004E+01  1.0045832439E+01
                       1.0541702004E+01  1.5701105083E+01  1.0045832439E+01
                       1.0541702004E+01  5.3822989253E+00  1.0045832439E+01
                       5.3822989253E+00  1.0541702004E+01  1.0045832439E+01
                       2.7958192870E-21 -2.2873993333E-21  4.6244606576E-22
            xcart8     5.2194059619E+00  5.2194059619E+00  4.9589518949E+00
                       1.5658217886E+01  1.5658217886E+01  1.4876855685E+01
                       1.0438811924E+01  1.0438811924E+01  4.9027064679E+00
                       1.0438811924E+01  1.0438811924E+01  1.4933101112E+01
                       1.5517533096E+01  1.0438811924E+01  9.9179037898E+00
                       1.0438811924E+01  1.5517533096E+01  9.9179037898E+00
                       1.0438811924E+01  5.3600907522E+00  9.9179037898E+00
                       5.3600907522E+00  1.0438811924E+01  9.9179037898E+00
                      -3.5578216499E-21  7.9067159961E-21 -1.9366825336E-20
            xcart9     5.1676150042E+00  5.1676150042E+00  4.8956734716E+00
                       1.5502845013E+01  1.5502845013E+01  1.4687020415E+01
                       1.0335230008E+01  1.0335230008E+01  4.8879392971E+00
                       1.0335230008E+01  1.0335230008E+01  1.4694754589E+01
                       1.5335213309E+01  1.0335230008E+01  9.7913469432E+00
                       1.0335230008E+01  1.5335213309E+01  9.7913469432E+00
                       1.0335230008E+01  5.3352467078E+00  9.7913469432E+00
                       5.3352467078E+00  1.0335230008E+01  9.7913469432E+00
                       2.5457907594E-21 -2.8474125877E-21 -1.8175494481E-21
             xred1     2.5000000000E-01  2.5000000000E-01  2.5000000000E-01
                       7.5000000000E-01  7.5000000000E-01  7.5000000000E-01
                       2.2964410420E-01  2.2964410420E-01  7.7035589580E-01
                       7.7035589580E-01  7.7035589580E-01  2.2964410420E-01
                       2.4466081696E-01  7.5533918305E-01  7.5533918304E-01
                       7.5533918305E-01  2.4466081695E-01  7.5533918304E-01
                       2.4466081695E-01  7.5533918305E-01  2.4466081696E-01
                       7.5533918305E-01  2.4466081695E-01  2.4466081696E-01
                       0.0000000000E+00  0.0000000000E+00  0.0000000000E+00
             xred2     2.5000000000E-01  2.5000000000E-01  2.5000000000E-01
                       7.5000000000E-01  7.5000000000E-01  7.5000000000E-01
                       2.3203445457E-01  2.3203445457E-01  7.6796554543E-01
                       7.6796554543E-01  7.6796554543E-01  2.3203445457E-01
                       2.4660599449E-01  7.5339400551E-01  7.5339400551E-01
                       7.5339400551E-01  2.4660599449E-01  7.5339400551E-01
                       2.4660599449E-01  7.5339400551E-01  2.4660599449E-01
                       7.5339400551E-01  2.4660599449E-01  2.4660599449E-01
                      -3.3453136458E-22  2.3350051450E-22  1.7490242316E-22
             xred3     2.5000000000E-01  2.5000000000E-01  2.5000000000E-01
                       7.5000000000E-01  7.5000000000E-01  7.5000000000E-01
                       2.3454325060E-01  2.3454325060E-01  7.6545674940E-01
                       7.6545674940E-01  7.6545674940E-01  2.3454325060E-01
                       2.4848650152E-01  7.5151349848E-01  7.5151349848E-01
                       7.5151349848E-01  2.4848650152E-01  7.5151349848E-01
                       2.4848650152E-01  7.5151349848E-01  2.4848650152E-01
                       7.5151349848E-01  2.4848650152E-01  2.4848650152E-01
                       0.0000000000E+00  0.0000000000E+00  0.0000000000E+00
             xred4     2.5000000000E-01  2.5000000000E-01  2.5000000000E-01
                       7.5000000000E-01  7.5000000000E-01  7.5000000000E-01
                       2.3698192976E-01  2.3698192976E-01  7.6301807024E-01
                       7.6301807024E-01  7.6301807024E-01  2.3698192976E-01
                       2.5034152047E-01  7.4965847953E-01  7.4965847953E-01
                       7.4965847953E-01  2.5034152047E-01  7.4965847953E-01
                       2.5034152047E-01  7.4965847953E-01  2.5034152047E-01
                       7.4965847953E-01  2.5034152047E-01  2.5034152047E-01
                      -2.6089757708E-22 -4.5707727915E-22  6.4981958405E-22
             xred5     2.5000000000E-01  2.5000000000E-01  2.5000000000E-01
                       7.5000000000E-01  7.5000000000E-01  7.5000000000E-01
                       2.3958251140E-01  2.3958251140E-01  7.6041748860E-01
                       7.6041748860E-01  7.6041748860E-01  2.3958251140E-01
                       2.5205468731E-01  7.4794531269E-01  7.4794531269E-01
                       7.4794531269E-01  2.5205468731E-01  7.4794531269E-01
                       2.5205468731E-01  7.4794531269E-01  2.5205468731E-01
                       7.4794531269E-01  2.5205468731E-01  2.5205468731E-01
                      -6.0075882114E-23  4.9818436482E-23  6.0681851769E-24
             xred6     2.5000000000E-01  2.5000000000E-01  2.5000000000E-01
                       7.5000000000E-01  7.5000000000E-01  7.5000000000E-01
                       2.4210722598E-01  2.4210722598E-01  7.5789277402E-01
                       7.5789277402E-01  7.5789277402E-01  2.4210722598E-01
                       2.5370850062E-01  7.4629149938E-01  7.4629149938E-01
                       7.4629149938E-01  2.5370850062E-01  7.4629149938E-01
                       2.5370850062E-01  7.4629149938E-01  2.5370850062E-01
                       7.4629149938E-01  2.5370850062E-01  2.5370850062E-01
                      -6.9003394346E-22  6.6960576415E-22  1.0258181541E-22
             xred7     2.5000000000E-01  2.5000000000E-01  2.5000000000E-01
                       7.5000000000E-01  7.5000000000E-01  7.5000000000E-01
                       2.4463253533E-01  2.4463253533E-01  7.5536746467E-01
                       7.5536746467E-01  7.5536746467E-01  2.4463253533E-01
                       2.5528604979E-01  7.4471395021E-01  7.4471395021E-01
                       7.4471395021E-01  2.5528604979E-01  7.4471395021E-01
                       2.5528604979E-01  7.4471395021E-01  2.5528604979E-01
                       7.4471395021E-01  2.5528604979E-01  2.5528604979E-01
                      -2.1808365860E-22  2.6411728185E-22  1.0978879521E-24
             xred8     2.5000000000E-01  2.5000000000E-01  2.5000000000E-01
                       7.5000000000E-01  7.5000000000E-01  7.5000000000E-01
                       2.4716444986E-01  2.4716444986E-01  7.5283555014E-01
                       7.5283555014E-01  7.5283555014E-01  2.4716444986E-01
                       2.5673854416E-01  7.4326145584E-01  7.4326145584E-01
                       7.4326145584E-01  2.5673854416E-01  7.4326145584E-01
                       2.5673854416E-01  7.4326145584E-01  2.5673854416E-01
                       7.4326145584E-01  2.5673854416E-01  2.5673854416E-01
                      -4.2722639981E-22 -1.5254871722E-21  1.1846608716E-21
             xred9     2.5000000000E-01  2.5000000000E-01  2.5000000000E-01
                       7.5000000000E-01  7.5000000000E-01  7.5000000000E-01
                       2.4960505053E-01  2.4960505053E-01  7.5039494947E-01
                       7.5039494947E-01  7.5039494947E-01  2.4960505053E-01
                       2.5810972293E-01  7.4189027707E-01  7.4189027707E-01
                       7.4189027707E-01  2.5810972293E-01  7.4189027707E-01
                       2.5810972293E-01  7.4189027707E-01  2.5810972293E-01
                       7.4189027707E-01  2.5810972293E-01  2.5810972293E-01
                      -3.5372762807E-22  1.6809949554E-22  7.8222140009E-23
            znucl       55.00000   53.00000   40.00000   35.00000

================================================================================


- Timing analysis has been suppressed with timopt=0



================================================================================

 Suggested references for the acknowledgment of ABINIT usage.

 The users of ABINIT have little formal obligations with respect to the ABINIT group
 (those specified in the GNU General Public License, http://www.gnu.org/copyleft/gpl.txt).
 However, it is common practice in the scientific literature,
 to acknowledge the efforts of people that have made the research possible.
 In this spirit, please find below suggested citations of work written by ABINIT developers,
 corresponding to implementations inside of ABINIT that you have used in the present run.
 Note also that it will be of great value to readers of publications presenting these results,
 to read papers enabling them to understand the theoretical formalism and details
 of the ABINIT implementation.
 For information on why they are suggested, see also https://docs.abinit.org/theory/acknowledgments.
-
- [1] Implementation of the Projector Augmented-Wave Method in the ABINIT code.
- M. Torrent, F. Jollet, F. Bottin, G. Zerah, and X. Gonze Comput. Mat. Science 42, 337, (2008).
- Comment: PAW calculations. Strong suggestion to cite this paper.
- DOI and bibtex: see https://docs.abinit.org/theory/bibliography/#torrent2008
-
- [2] Libxc: A library of exchange and correlation functionals for density functional theory.
- M.A.L. Marques, M.J.T. Oliveira, T. Burnus, Computer Physics Communications 183, 2227 (2012).
- Comment: to be cited when LibXC is used (negative value of ixc)
- Strong suggestion to cite this paper.
- DOI and bibtex: see https://docs.abinit.org/theory/bibliography/#marques2012
-
- [3] The Abinit project: Impact, environment and recent developments.
- Computer Phys. Comm. 248, 107042 (2020).
- X.Gonze, B. Amadon, G. Antonius, F.Arnardi, L.Baguet, J.-M.Beuken,
- J.Bieder, F.Bottin, J.Bouchet, E.Bousquet, N.Brouwer, F.Bruneval,
- G.Brunin, T.Cavignac, J.-B. Charraud, Wei Chen, M.Cote, S.Cottenier,
- J.Denier, G.Geneste, Ph.Ghosez, M.Giantomassi, Y.Gillet, O.Gingras,
- D.R.Hamann, G.Hautier, Xu He, N.Helbig, N.Holzwarth, Y.Jia, F.Jollet,
- W.Lafargue-Dit-Hauret, K.Lejaeghere, M.A.L.Marques, A.Martin, C.Martins,
- H.P.C. Miranda, F.Naccarato, K. Persson, G.Petretto, V.Planes, Y.Pouillon,
- S.Prokhorenko, F.Ricci, G.-M.Rignanese, A.H.Romero, M.M.Schmitt, M.Torrent,
- M.J.van Setten, B.Van Troeye, M.J.Verstraete, G.Zerah and J.W.Zwanzig
- Comment: the fifth generic paper describing the ABINIT project.
- Note that a version of this paper, that is not formatted for Computer Phys. Comm. 
- is available at https://www.abinit.org/sites/default/files/ABINIT20.pdf .
- The licence allows the authors to put it on the Web.
- DOI and bibtex: see https://docs.abinit.org/theory/bibliography/#gonze2020
-
- [4] ABINIT: Overview, and focus on selected capabilities
- J. Chem. Phys. 152, 124102 (2020).
- A. Romero, D.C. Allan, B. Amadon, G. Antonius, T. Applencourt, L.Baguet,
- J.Bieder, F.Bottin, J.Bouchet, E.Bousquet, F.Bruneval,
- G.Brunin, D.Caliste, M.Cote,
- J.Denier, C. Dreyer, Ph.Ghosez, M.Giantomassi, Y.Gillet, O.Gingras,
- D.R.Hamann, G.Hautier, F.Jollet, G. Jomard,
- A.Martin, 
- H.P.C. Miranda, F.Naccarato, G.Petretto, N.A. Pike, V.Planes,
- S.Prokhorenko, T. Rangel, F.Ricci, G.-M.Rignanese, M.Royo, M.Stengel, M.Torrent,
- M.J.van Setten, B.Van Troeye, M.J.Verstraete, J.Wiktor, J.W.Zwanziger, and X.Gonze.
- Comment: a global overview of ABINIT, with focus on selected capabilities .
- Note that a version of this paper, that is not formatted for J. Chem. Phys 
- is available at https://www.abinit.org/sites/default/files/ABINIT20_JPC.pdf .
- The licence allows the authors to put it on the Web.
- DOI and bibtex: see https://docs.abinit.org/theory/bibliography/#romero2020
-
- [5] Recent developments in the ABINIT software package.
- Computer Phys. Comm. 205, 106 (2016).
- X.Gonze, F.Jollet, F.Abreu Araujo, D.Adams, B.Amadon, T.Applencourt,
- C.Audouze, J.-M.Beuken, J.Bieder, A.Bokhanchuk, E.Bousquet, F.Bruneval
- D.Caliste, M.Cote, F.Dahm, F.Da Pieve, M.Delaveau, M.Di Gennaro,
- B.Dorado, C.Espejo, G.Geneste, L.Genovese, A.Gerossier, M.Giantomassi,
- Y.Gillet, D.R.Hamann, L.He, G.Jomard, J.Laflamme Janssen, S.Le Roux,
- A.Levitt, A.Lherbier, F.Liu, I.Lukacevic, A.Martin, C.Martins,
- M.J.T.Oliveira, S.Ponce, Y.Pouillon, T.Rangel, G.-M.Rignanese,
- A.H.Romero, B.Rousseau, O.Rubel, A.A.Shukri, M.Stankovski, M.Torrent,
- M.J.Van Setten, B.Van Troeye, M.J.Verstraete, D.Waroquier, J.Wiktor,
- B.Xu, A.Zhou, J.W.Zwanziger.
- Comment: the fourth generic paper describing the ABINIT project.
- Note that a version of this paper, that is not formatted for Computer Phys. Comm. 
- is available at https://www.abinit.org/sites/default/files/ABINIT16.pdf .
- The licence allows the authors to put it on the Web.
- DOI and bibtex: see https://docs.abinit.org/theory/bibliography/#gonze2016
-
- Proc.   0 individual time (sec): cpu=      35911.5  wall=      35984.2

================================================================================

 Calculation completed.
.Delivered   0 WARNINGs and 118 COMMENTs to log file.
+Overall time at end (sec) : cpu=     215365.3  wall=     215904.6
