
.Version 9.2.2 of ABINIT 
.(MPI version, prepared for a x86_64_linux_gnu9.3 computer) 

.Copyright (C) 1998-2020 ABINIT group . 
 ABINIT comes with ABSOLUTELY NO WARRANTY.
 It is free software, and you are welcome to redistribute it
 under certain conditions (GNU General Public License,
 see ~abinit/COPYING or http://www.gnu.org/copyleft/gpl.txt).

 ABINIT is a project of the Universite Catholique de Louvain,
 Corning Inc. and other collaborators, see ~abinit/doc/developers/contributors.txt .
 Please read https://docs.abinit.org/theory/acknowledgments for suggested
 acknowledgments of the ABINIT effort.
 For more information, see https://www.abinit.org .

.Starting date : Tue 25 Oct 2022.
- ( at 21h22 )
  
- input  file    -> Cs2TiI6.in
- output file    -> Cs2TiI6.out
- root for input  files -> Cs2TiI6i
- root for output files -> Cs2TiI6o

- inpspheads : Reading pseudopotential header in XML form from 
-   ../../../Psps_for_tests/ATOMICDATA/Cs.GGA_PBE-JTH.xml
- inpspheads : Reading pseudopotential header in XML form from 
-   ../../../Psps_for_tests/ATOMICDATA/I.GGA_PBE-JTH.xml
- inpspheads : Reading pseudopotential header in XML form from 
-   ../../../Psps_for_tests/ATOMICDATA/Zr.GGA_PBE-JTH.xml
- inpspheads : Reading pseudopotential header in XML form from 
-   ../../../Psps_for_tests/ATOMICDATA/Br.GGA_PBE-JTH.xml

 DATASET    1 : space group I4/m m m (#139); Bravais tI (body-center tetrag.)
================================================================================
 Values of the parameters that define the memory need for DATASET  1.
     intxc =       0    ionmov =       2      iscf =      17    lmnmax =      18
     lnmax =       6     mgfft =      64  mpssoang =       3    mqgrid =    4081
     natom =       9  nloc_mem =       2    nspden =       1   nspinor =       1
    nsppol =       1      nsym =      16    n1xccc =       1    ntypat =       4
    occopt =       1   xclevel =       2
-    mband =          42        mffmem =           1         mkmem =           5
       mpw =       11723          nfft =      262144          nkpt =          20
Pmy_natom=         3
 PAW method is used; the additional fine FFT grid is defined by:
   mgfftf=       100    nfftf =   1000000
================================================================================
P This job should need less than                     345.094 Mbytes of memory.
  Rough estimation (10% accuracy) of disk space for files :
_ WF disk file :    150.260 Mbytes ; DEN or POT disk file :      7.631 Mbytes.
================================================================================


 DATASET    2 : space group I4/m m m (#139); Bravais tI (body-center tetrag.)
================================================================================
 Values of the parameters that define the memory need for DATASET  2.
     intxc =       0    ionmov =       2      iscf =      17    lmnmax =      18
     lnmax =       6     mgfft =      64  mpssoang =       3    mqgrid =    4040
     natom =       9  nloc_mem =       2    nspden =       1   nspinor =       1
    nsppol =       1      nsym =      16    n1xccc =       1    ntypat =       4
    occopt =       1   xclevel =       2
-    mband =          42        mffmem =           1         mkmem =           5
       mpw =       11362          nfft =      262144          nkpt =          20
Pmy_natom=         3
 PAW method is used; the additional fine FFT grid is defined by:
   mgfftf=       100    nfftf =   1000000
================================================================================
P This job should need less than                     344.584 Mbytes of memory.
  Rough estimation (10% accuracy) of disk space for files :
_ WF disk file :    145.633 Mbytes ; DEN or POT disk file :      7.631 Mbytes.
================================================================================


 DATASET    3 : space group I4/m m m (#139); Bravais tI (body-center tetrag.)
================================================================================
 Values of the parameters that define the memory need for DATASET  3.
     intxc =       0    ionmov =       2      iscf =      17    lmnmax =      18
     lnmax =       6     mgfft =      64  mpssoang =       3    mqgrid =    3999
     natom =       9  nloc_mem =       2    nspden =       1   nspinor =       1
    nsppol =       1      nsym =      16    n1xccc =       1    ntypat =       4
    occopt =       1   xclevel =       2
-    mband =          42        mffmem =           1         mkmem =           5
       mpw =       11019          nfft =      262144          nkpt =          20
Pmy_natom=         3
 PAW method is used; the additional fine FFT grid is defined by:
   mgfftf=       100    nfftf =   1000000
================================================================================
P This job should need less than                     344.174 Mbytes of memory.
  Rough estimation (10% accuracy) of disk space for files :
_ WF disk file :    141.237 Mbytes ; DEN or POT disk file :      7.631 Mbytes.
================================================================================


 DATASET    4 : space group I4/m m m (#139); Bravais tI (body-center tetrag.)
================================================================================
 Values of the parameters that define the memory need for DATASET  4.
     intxc =       0    ionmov =       2      iscf =      17    lmnmax =      18
     lnmax =       6     mgfft =      64  mpssoang =       3    mqgrid =    3958
     natom =       9  nloc_mem =       2    nspden =       1   nspinor =       1
    nsppol =       1      nsym =      16    n1xccc =       1    ntypat =       4
    occopt =       1   xclevel =       2
-    mband =          42        mffmem =           1         mkmem =           5
       mpw =       10705          nfft =      262144          nkpt =          20
Pmy_natom=         3
 PAW method is used; the additional fine FFT grid is defined by:
   mgfftf=       100    nfftf =   1000000
================================================================================
P This job should need less than                     343.903 Mbytes of memory.
  Rough estimation (10% accuracy) of disk space for files :
_ WF disk file :    137.212 Mbytes ; DEN or POT disk file :      7.631 Mbytes.
================================================================================


 DATASET    5 : space group I4/m m m (#139); Bravais tI (body-center tetrag.)
================================================================================
 Values of the parameters that define the memory need for DATASET  5.
     intxc =       0    ionmov =       2      iscf =      17    lmnmax =      18
     lnmax =       6     mgfft =      64  mpssoang =       3    mqgrid =    3916
     natom =       9  nloc_mem =       2    nspden =       1   nspinor =       1
    nsppol =       1      nsym =      16    n1xccc =       1    ntypat =       4
    occopt =       1   xclevel =       2
-    mband =          42        mffmem =           1         mkmem =           5
       mpw =       10345          nfft =      262144          nkpt =          20
Pmy_natom=         3
 PAW method is used; the additional fine FFT grid is defined by:
   mgfftf=        96    nfftf =    884736
================================================================================
P This job should need less than                     313.279 Mbytes of memory.
  Rough estimation (10% accuracy) of disk space for files :
_ WF disk file :    132.598 Mbytes ; DEN or POT disk file :      6.752 Mbytes.
================================================================================


 DATASET    6 : space group I4/m m m (#139); Bravais tI (body-center tetrag.)
================================================================================
 Values of the parameters that define the memory need for DATASET  6.
     intxc =       0    ionmov =       2      iscf =      17    lmnmax =      18
     lnmax =       6     mgfft =      64  mpssoang =       3    mqgrid =    3875
     natom =       9  nloc_mem =       2    nspden =       1   nspinor =       1
    nsppol =       1      nsym =      16    n1xccc =       1    ntypat =       4
    occopt =       1   xclevel =       2
-    mband =          42        mffmem =           1         mkmem =           5
       mpw =       10028          nfft =      262144          nkpt =          20
Pmy_natom=         3
 PAW method is used; the additional fine FFT grid is defined by:
   mgfftf=        96    nfftf =    884736
================================================================================
P This job should need less than                     312.963 Mbytes of memory.
  Rough estimation (10% accuracy) of disk space for files :
_ WF disk file :    128.535 Mbytes ; DEN or POT disk file :      6.752 Mbytes.
================================================================================


 DATASET    7 : space group I4/m m m (#139); Bravais tI (body-center tetrag.)
================================================================================
 Values of the parameters that define the memory need for DATASET  7.
     intxc =       0    ionmov =       2      iscf =      17    lmnmax =      18
     lnmax =       6     mgfft =      60  mpssoang =       3    mqgrid =    3834
     natom =       9  nloc_mem =       2    nspden =       1   nspinor =       1
    nsppol =       1      nsym =      16    n1xccc =       1    ntypat =       4
    occopt =       1   xclevel =       2
-    mband =          42        mffmem =           1         mkmem =           5
       mpw =        9712          nfft =      216000          nkpt =          20
Pmy_natom=         3
 PAW method is used; the additional fine FFT grid is defined by:
   mgfftf=        96    nfftf =    884736
================================================================================
P This job should need less than                     305.820 Mbytes of memory.
  Rough estimation (10% accuracy) of disk space for files :
_ WF disk file :    124.484 Mbytes ; DEN or POT disk file :      6.752 Mbytes.
================================================================================


 DATASET    8 : space group I4/m m m (#139); Bravais tI (body-center tetrag.)
================================================================================
 Values of the parameters that define the memory need for DATASET  8.
     intxc =       0    ionmov =       2      iscf =      17    lmnmax =      18
     lnmax =       6     mgfft =      60  mpssoang =       3    mqgrid =    3793
     natom =       9  nloc_mem =       2    nspden =       1   nspinor =       1
    nsppol =       1      nsym =      16    n1xccc =       1    ntypat =       4
    occopt =       1   xclevel =       2
-    mband =          42        mffmem =           1         mkmem =           5
       mpw =        9417          nfft =      216000          nkpt =          20
Pmy_natom=         3
 PAW method is used; the additional fine FFT grid is defined by:
   mgfftf=        96    nfftf =    884736
================================================================================
P This job should need less than                     305.658 Mbytes of memory.
  Rough estimation (10% accuracy) of disk space for files :
_ WF disk file :    120.703 Mbytes ; DEN or POT disk file :      6.752 Mbytes.
================================================================================


 DATASET    9 : space group I4/m m m (#139); Bravais tI (body-center tetrag.)
================================================================================
 Values of the parameters that define the memory need for DATASET  9.
     intxc =       0    ionmov =       2      iscf =      17    lmnmax =      18
     lnmax =       6     mgfft =      60  mpssoang =       3    mqgrid =    3752
     natom =       9  nloc_mem =       2    nspden =       1   nspinor =       1
    nsppol =       1      nsym =      16    n1xccc =       1    ntypat =       4
    occopt =       1   xclevel =       2
-    mband =          42        mffmem =           1         mkmem =           5
       mpw =        9122          nfft =      216000          nkpt =          20
Pmy_natom=         3
 PAW method is used; the additional fine FFT grid is defined by:
   mgfftf=        96    nfftf =    884736
================================================================================
P This job should need less than                     305.539 Mbytes of memory.
  Rough estimation (10% accuracy) of disk space for files :
_ WF disk file :    116.922 Mbytes ; DEN or POT disk file :      6.752 Mbytes.
================================================================================


 DATASET   10 : space group I4/m m m (#139); Bravais tI (body-center tetrag.)
================================================================================
 Values of the parameters that define the memory need for DATASET 10.
     intxc =       0    ionmov =       2      iscf =      17    lmnmax =      18
     lnmax =       6     mgfft =      60  mpssoang =       3    mqgrid =    3710
     natom =       9  nloc_mem =       2    nspden =       1   nspinor =       1
    nsppol =       1      nsym =      16    n1xccc =       1    ntypat =       4
    occopt =       1   xclevel =       2
-    mband =          42        mffmem =           1         mkmem =           5
       mpw =        8819          nfft =      216000          nkpt =          20
Pmy_natom=         3
 PAW method is used; the additional fine FFT grid is defined by:
   mgfftf=        96    nfftf =    884736
================================================================================
P This job should need less than                     305.431 Mbytes of memory.
  Rough estimation (10% accuracy) of disk space for files :
_ WF disk file :    113.038 Mbytes ; DEN or POT disk file :      6.752 Mbytes.
================================================================================

--------------------------------------------------------------------------------
------------- Echo of variables that govern the present computation ------------
--------------------------------------------------------------------------------
-
- outvars: echo of selected default values                                      
-   iomode0 =  0 , fftalg0 =112 , wfoptalg0 = 10
-
- outvars: echo of global parameters not present in the input file              
-  max_nthreads =    0
-
 -outvars: echo values of preprocessed input variables --------
            acell1     1.5265847224E+01  1.5265847224E+01  1.5264311972E+01 Bohr
            acell2     1.5111646747E+01  1.5111646747E+01  1.5110127002E+01 Bohr
            acell3     1.4957446270E+01  1.4957446270E+01  1.4955942033E+01 Bohr
            acell4     1.4803245793E+01  1.4803245793E+01  1.4801757063E+01 Bohr
            acell5     1.4649045316E+01  1.4649045316E+01  1.4647572094E+01 Bohr
            acell6     1.4494844839E+01  1.4494844839E+01  1.4493387125E+01 Bohr
            acell7     1.4340644362E+01  1.4340644362E+01  1.4339202155E+01 Bohr
            acell8     1.4186443885E+01  1.4186443885E+01  1.4185017186E+01 Bohr
            acell9     1.4032243408E+01  1.4032243408E+01  1.4030832216E+01 Bohr
            acell10    1.3878042931E+01  1.3878042931E+01  1.3876647247E+01 Bohr
              amu      1.32905430E+02  1.26904470E+02  9.12240000E+01
                       7.99040000E+01
           diemac      1.20000000E+01
          dilatmx      1.15000000E+00
             ecut      1.60000000E+01 Hartree
           ecutsm      5.00000000E-01 Hartree
-          fftalg         112
          getxred1          0
          getxred2         -1
          getxred3         -1
          getxred4         -1
          getxred5         -1
          getxred6         -1
          getxred7         -1
          getxred8         -1
          getxred9         -1
          getxred10        -1
           ionmov           2
              ixc     -101130
           jdtset        1    2    3    4    5    6    7    8    9   10
              kpt      0.00000000E+00 -1.25000000E-01  0.00000000E+00
                       0.00000000E+00 -3.75000000E-01  0.00000000E+00
                       1.25000000E-01 -2.50000000E-01  0.00000000E+00
                       0.00000000E+00 -2.50000000E-01  1.25000000E-01
                       1.25000000E-01 -1.25000000E-01  1.25000000E-01
                       1.25000000E-01  5.00000000E-01  0.00000000E+00
                       2.50000000E-01 -3.75000000E-01  0.00000000E+00
                       0.00000000E+00  5.00000000E-01  1.25000000E-01
                       2.50000000E-01 -2.50000000E-01  1.25000000E-01
                       0.00000000E+00 -3.75000000E-01  2.50000000E-01
                       1.25000000E-01 -2.50000000E-01  2.50000000E-01
                       2.50000000E-01 -1.25000000E-01  2.50000000E-01
                       1.25000000E-01  2.50000000E-01  0.00000000E+00
                       2.50000000E-01  3.75000000E-01  0.00000000E+00
                       3.75000000E-01  5.00000000E-01  0.00000000E+00
                       2.50000000E-01  5.00000000E-01  1.25000000E-01
                       3.75000000E-01 -3.75000000E-01  1.25000000E-01
                       3.75000000E-01 -2.50000000E-01  2.50000000E-01
                       0.00000000E+00  5.00000000E-01  3.75000000E-01
                       1.25000000E-01 -3.75000000E-01  3.75000000E-01
         kptrlatt        4    4   -4     -4    4    4      4   -4    4
          kptrlen1     8.63479880E+01
          kptrlen2     8.54757861E+01
          kptrlen3     8.46035842E+01
          kptrlen4     8.37313823E+01
          kptrlen5     8.28591804E+01
          kptrlen6     8.19869785E+01
          kptrlen7     8.11147766E+01
          kptrlen8     8.02425747E+01
          kptrlen9     7.93703728E+01
          kptrlen10    7.84981709E+01
P           mkmem           5
            natom           9
            nband          42
           ndtset          10
            ngfft1         64      64      64
            ngfft2         64      64      64
            ngfft3         64      64      64
            ngfft4         64      64      64
            ngfft5         64      64      64
            ngfft6         64      64      64
            ngfft7         60      60      60
            ngfft8         60      60      60
            ngfft9         60      60      60
            ngfft10        60      60      60
          ngfftdg1        100     100     100
          ngfftdg2        100     100     100
          ngfftdg3        100     100     100
          ngfftdg4        100     100     100
          ngfftdg5         96      96      96
          ngfftdg6         96      96      96
          ngfftdg7         96      96      96
          ngfftdg8         96      96      96
          ngfftdg9         96      96      96
          ngfftdg10        96      96      96
             nkpt          20
            nstep        2500
             nsym          16
            ntime        1000
           ntypat           4
              occ      2.000000  2.000000  2.000000  2.000000  2.000000  2.000000
                       2.000000  2.000000  2.000000  2.000000  2.000000  2.000000
                       2.000000  2.000000  2.000000  2.000000  2.000000  2.000000
                       2.000000  2.000000  2.000000  2.000000  2.000000  2.000000
                       2.000000  2.000000  2.000000  2.000000  2.000000  2.000000
                       2.000000  2.000000  2.000000  2.000000  2.000000  2.000000
                       0.000000  0.000000  0.000000  0.000000  0.000000  0.000000
          optcell           3
        optforces           1
        pawecutdg      4.00000000E+01 Hartree
            prtwf           0
            rprim      0.0000000000E+00  7.0703566902E-01  7.0717788620E-01
                       7.0703566902E-01  0.0000000000E+00  7.0717788620E-01
                       7.0710678119E-01  7.0710678119E-01  0.0000000000E+00
           shiftk     -5.00000000E-01  5.00000000E-01  5.00000000E-01
          spgroup         139
           symrel      1  0  0   0  1  0   0  0  1      -1  0  0   0 -1  0   0  0 -1
                      -1  0  1   0 -1  1   0  0  1       1  0 -1   0  1 -1   0  0 -1
                       0  1 -1   1  0 -1   0  0 -1       0 -1  1  -1  0  1   0  0  1
                       0 -1  0  -1  0  0   0  0 -1       0  1  0   1  0  0   0  0  1
                       0  1 -1   0  1  0  -1  1  0       0 -1  1   0 -1  0   1 -1  0
                      -1  0  1  -1  0  0  -1  1  0       1  0 -1   1  0  0   1 -1  0
                       1  0  0   1  0 -1   1 -1  0      -1  0  0  -1  0  1  -1  1  0
                       0 -1  0   0 -1  1   1 -1  0       0  1  0   0  1 -1  -1  1  0
           toldff      1.00000000E-08
           tolmxf      1.00000000E-05
            typat      1  1  2  2  4  4  4  4  3
           useylm           1
              wtk        0.03125    0.03125    0.03125    0.06250    0.06250    0.03125
                         0.03125    0.06250    0.06250    0.06250    0.06250    0.06250
                         0.03125    0.03125    0.03125    0.06250    0.06250    0.06250
                         0.06250    0.06250
           xangst1     2.8558367050E+00  2.8558367050E+00  2.8564111442E+00
                       8.5675101149E+00  8.5675101149E+00  8.5692334326E+00
                       5.7116734099E+00  5.7116734099E+00  2.8754012750E+00
                       5.7116734099E+00  5.7116734099E+00  8.5502433018E+00
                       8.8114172407E+00  5.7116734099E+00  5.7128222884E+00
                       5.7116734099E+00  8.8114172407E+00  5.7128222884E+00
                       5.7116734099E+00  2.6119295791E+00  5.7128222884E+00
                       2.6119295791E+00  5.7116734099E+00  5.7128222884E+00
                      -2.1900050846E-20 -3.7861664224E-20  6.3255994600E-21
           xangst2     2.8269898696E+00  2.8269898696E+00  2.8275585064E+00
                       8.4809696087E+00  8.4809696087E+00  8.4826755191E+00
                       5.6539797391E+00  5.6539797391E+00  2.8463568177E+00
                       5.6539797391E+00  5.6539797391E+00  8.4638772078E+00
                       8.7224130262E+00  5.6539797391E+00  5.6551170128E+00
                       5.6539797391E+00  8.7224130262E+00  5.6551170128E+00
                       5.6539797391E+00  2.5855464521E+00  5.6551170128E+00
                       2.5855464521E+00  5.6539797391E+00  5.6551170128E+00
                      -2.1678838211E-20 -3.7479223171E-20  6.2617045160E-21
           xangst3     2.7981430342E+00  2.7981430342E+00  2.7987058686E+00
                       8.3944291025E+00  8.3944291025E+00  8.3961176057E+00
                       5.5962860683E+00  5.5962860683E+00  2.8173123604E+00
                       5.5962860683E+00  5.5962860683E+00  8.3775111139E+00
                       8.6334088116E+00  5.5962860683E+00  5.5974117371E+00
                       5.5962860683E+00  8.6334088116E+00  5.5974117371E+00
                       5.5962860683E+00  2.5591633250E+00  5.5974117371E+00
                       2.5591633250E+00  5.5962860683E+00  5.5974117371E+00
                      -2.1457625577E-20 -3.7096782118E-20  6.1978095719E-21
           xangst4     2.7692961988E+00  2.7692961988E+00  2.7698532307E+00
                       8.3078885963E+00  8.3078885963E+00  8.3095596922E+00
                       5.5385923975E+00  5.5385923975E+00  2.7882679030E+00
                       5.5385923975E+00  5.5385923975E+00  8.2911450199E+00
                       8.5444045971E+00  5.5385923975E+00  5.5397064615E+00
                       5.5385923975E+00  8.5444045971E+00  5.5397064615E+00
                       5.5385923975E+00  2.5327801979E+00  5.5397064615E+00
                       2.5327801979E+00  5.5385923975E+00  5.5397064615E+00
                      -2.1236412942E-20 -3.6714341065E-20  6.1339146279E-21
           xangst5     2.7404493633E+00  2.7404493633E+00  2.7410005929E+00
                       8.2213480900E+00  8.2213480900E+00  8.2230017788E+00
                       5.4808987267E+00  5.4808987267E+00  2.7592234457E+00
                       5.4808987267E+00  5.4808987267E+00  8.2047789259E+00
                       8.4554003825E+00  5.4808987267E+00  5.4820011858E+00
                       5.4808987267E+00  8.4554003825E+00  5.4820011858E+00
                       5.4808987267E+00  2.5063970709E+00  5.4820011858E+00
                       2.5063970709E+00  5.4808987267E+00  5.4820011858E+00
                      -2.1015200307E-20 -3.6331900013E-20  6.0700196839E-21
           xangst6     2.7116025279E+00  2.7116025279E+00  2.7121479551E+00
                       8.1348075838E+00  8.1348075838E+00  8.1364438653E+00
                       5.4232050559E+00  5.4232050559E+00  2.7301789884E+00
                       5.4232050559E+00  5.4232050559E+00  8.1184128320E+00
                       8.3663961680E+00  5.4232050559E+00  5.4242959102E+00
                       5.4232050559E+00  8.3663961680E+00  5.4242959102E+00
                       5.4232050559E+00  2.4800139438E+00  5.4242959102E+00
                       2.4800139438E+00  5.4232050559E+00  5.4242959102E+00
                      -2.0793987672E-20 -3.5949458960E-20  6.0061247398E-21
           xangst7     2.6827556925E+00  2.6827556925E+00  2.6832953173E+00
                       8.0482670776E+00  8.0482670776E+00  8.0498859518E+00
                       5.3655113851E+00  5.3655113851E+00  2.7011345311E+00
                       5.3655113851E+00  5.3655113851E+00  8.0320467380E+00
                       8.2773919534E+00  5.3655113851E+00  5.3665906346E+00
                       5.3655113851E+00  8.2773919534E+00  5.3665906346E+00
                       5.3655113851E+00  2.4536308168E+00  5.3665906346E+00
                       2.4536308168E+00  5.3655113851E+00  5.3665906346E+00
                      -2.0572775037E-20 -3.5567017907E-20  5.9422297958E-21
           xangst8     2.6539088571E+00  2.6539088571E+00  2.6544426795E+00
                       7.9617265714E+00  7.9617265714E+00  7.9633280384E+00
                       5.3078177143E+00  5.3078177143E+00  2.6720900738E+00
                       5.3078177143E+00  5.3078177143E+00  7.9456806441E+00
                       8.1883877389E+00  5.3078177143E+00  5.3088853589E+00
                       5.3078177143E+00  8.1883877389E+00  5.3088853589E+00
                       5.3078177143E+00  2.4272476897E+00  5.3088853589E+00
                       2.4272476897E+00  5.3078177143E+00  5.3088853589E+00
                      -2.0351562403E-20 -3.5184576854E-20  5.8783348517E-21
           xangst9     2.6250620217E+00  2.6250620217E+00  2.6255900416E+00
                       7.8751860652E+00  7.8751860652E+00  7.8767701249E+00
                       5.2501240435E+00  5.2501240435E+00  2.6430456164E+00
                       5.2501240434E+00  5.2501240434E+00  7.8593145501E+00
                       8.0993835243E+00  5.2501240435E+00  5.2511800833E+00
                       5.2501240435E+00  8.0993835243E+00  5.2511800833E+00
                       5.2501240434E+00  2.4008645626E+00  5.2511800833E+00
                       2.4008645626E+00  5.2501240434E+00  5.2511800833E+00
                      -2.0130349768E-20 -3.4802135802E-20  5.8144399077E-21
           xangst10    2.5962151863E+00  2.5962151863E+00  2.5967374038E+00
                       7.7886455590E+00  7.7886455590E+00  7.7902122114E+00
                       5.1924303727E+00  5.1924303727E+00  2.6140011591E+00
                       5.1924303726E+00  5.1924303726E+00  7.7729484562E+00
                       8.0103793097E+00  5.1924303727E+00  5.1934748076E+00
                       5.1924303727E+00  8.0103793097E+00  5.1934748076E+00
                       5.1924303726E+00  2.3744814356E+00  5.1934748076E+00
                       2.3744814356E+00  5.1924303726E+00  5.1934748076E+00
                      -1.9909137133E-20 -3.4419694749E-20  5.7505449637E-21
            xcart1     5.3967492526E+00  5.3967492526E+00  5.3978347855E+00
                       1.6190247758E+01  1.6190247758E+01  1.6193504356E+01
                       1.0793498505E+01  1.0793498505E+01  5.4337209319E+00
                       1.0793498505E+01  1.0793498505E+01  1.6157618210E+01
                       1.6651165428E+01  1.0793498505E+01  1.0795669571E+01
                       1.0793498505E+01  1.6651165428E+01  1.0795669571E+01
                       1.0793498505E+01  4.9358315829E+00  1.0795669571E+01
                       4.9358315829E+00  1.0793498505E+01  1.0795669571E+01
                      -4.1385098396E-20 -7.1548176318E-20  1.1953650606E-20
            xcart2     5.3422366339E+00  5.3422366339E+00  5.3433112018E+00
                       1.6026709902E+01  1.6026709902E+01  1.6029933605E+01
                       1.0684473268E+01  1.0684473268E+01  5.3788348619E+00
                       1.0684473268E+01  1.0684473268E+01  1.5994409945E+01
                       1.6482971837E+01  1.0684473268E+01  1.0686622404E+01
                       1.0684473268E+01  1.6482971837E+01  1.0686622404E+01
                       1.0684473268E+01  4.8859746983E+00  1.0686622404E+01
                       4.8859746983E+00  1.0684473268E+01  1.0686622404E+01
                      -4.0967067099E-20 -7.0825467466E-20  1.1832906660E-20
            xcart3     5.2877240152E+00  5.2877240152E+00  5.2887876181E+00
                       1.5863172046E+01  1.5863172046E+01  1.5866362854E+01
                       1.0575448030E+01  1.0575448030E+01  5.3239487919E+00
                       1.0575448030E+01  1.0575448030E+01  1.5831201680E+01
                       1.6314778247E+01  1.0575448030E+01  1.0577575236E+01
                       1.0575448030E+01  1.6314778247E+01  1.0577575236E+01
                       1.0575448030E+01  4.8361178136E+00  1.0577575236E+01
                       4.8361178136E+00  1.0575448030E+01  1.0577575236E+01
                      -4.0549035802E-20 -7.0102758615E-20  1.1712162715E-20
            xcart4     5.2332113965E+00  5.2332113965E+00  5.2342640344E+00
                       1.5699634189E+01  1.5699634189E+01  1.5702792103E+01
                       1.0466422793E+01  1.0466422793E+01  5.2690627219E+00
                       1.0466422793E+01  1.0466422793E+01  1.5667993416E+01
                       1.6146584657E+01  1.0466422793E+01  1.0468528069E+01
                       1.0466422793E+01  1.6146584657E+01  1.0468528069E+01
                       1.0466422793E+01  4.7862609289E+00  1.0468528069E+01
                       4.7862609289E+00  1.0466422793E+01  1.0468528069E+01
                      -4.0131004505E-20 -6.9380049763E-20  1.1591418769E-20
            xcart5     5.1786987778E+00  5.1786987778E+00  5.1797404507E+00
                       1.5536096333E+01  1.5536096333E+01  1.5539221352E+01
                       1.0357397556E+01  1.0357397556E+01  5.2141766519E+00
                       1.0357397556E+01  1.0357397556E+01  1.5504785151E+01
                       1.5978391067E+01  1.0357397556E+01  1.0359480901E+01
                       1.0357397556E+01  1.5978391067E+01  1.0359480901E+01
                       1.0357397555E+01  4.7364040442E+00  1.0359480901E+01
                       4.7364040442E+00  1.0357397555E+01  1.0359480901E+01
                      -3.9712973208E-20 -6.8657340911E-20  1.1470674824E-20
            xcart6     5.1241861591E+00  5.1241861591E+00  5.1252168670E+00
                       1.5372558477E+01  1.5372558477E+01  1.5375650601E+01
                       1.0248372318E+01  1.0248372318E+01  5.1592905818E+00
                       1.0248372318E+01  1.0248372318E+01  1.5341576886E+01
                       1.5810197477E+01  1.0248372318E+01  1.0250433734E+01
                       1.0248372318E+01  1.5810197477E+01  1.0250433734E+01
                       1.0248372318E+01  4.6865471596E+00  1.0250433734E+01
                       4.6865471596E+00  1.0248372318E+01  1.0250433734E+01
                      -3.9294941911E-20 -6.7934632059E-20  1.1349930878E-20
            xcart7     5.0696735403E+00  5.0696735403E+00  5.0706932833E+00
                       1.5209020621E+01  1.5209020621E+01  1.5212079850E+01
                       1.0139347081E+01  1.0139347081E+01  5.1044045118E+00
                       1.0139347081E+01  1.0139347081E+01  1.5178368621E+01
                       1.5642003886E+01  1.0139347081E+01  1.0141386567E+01
                       1.0139347081E+01  1.5642003886E+01  1.0141386567E+01
                       1.0139347081E+01  4.6366902749E+00  1.0141386567E+01
                       4.6366902749E+00  1.0139347081E+01  1.0141386567E+01
                      -3.8876910614E-20 -6.7211923208E-20  1.1229186933E-20
            xcart8     5.0151609216E+00  5.0151609216E+00  5.0161696996E+00
                       1.5045482765E+01  1.5045482765E+01  1.5048509099E+01
                       1.0030321843E+01  1.0030321843E+01  5.0495184418E+00
                       1.0030321843E+01  1.0030321843E+01  1.5015160357E+01
                       1.5473810296E+01  1.0030321843E+01  1.0032339399E+01
                       1.0030321843E+01  1.5473810296E+01  1.0032339399E+01
                       1.0030321843E+01  4.5868333902E+00  1.0032339399E+01
                       4.5868333902E+00  1.0030321843E+01  1.0032339399E+01
                      -3.8458879317E-20 -6.6489214356E-20  1.1108442987E-20
            xcart9     4.9606483029E+00  4.9606483029E+00  4.9616461159E+00
                       1.4881944909E+01  1.4881944909E+01  1.4884938348E+01
                       9.9212966059E+00  9.9212966059E+00  4.9946323718E+00
                       9.9212966058E+00  9.9212966058E+00  1.4851952092E+01
                       1.5305616706E+01  9.9212966059E+00  9.9232922318E+00
                       9.9212966059E+00  1.5305616706E+01  9.9232922318E+00
                       9.9212966058E+00  4.5369765055E+00  9.9232922318E+00
                       4.5369765055E+00  9.9212966058E+00  9.9232922318E+00
                      -3.8040848020E-20 -6.5766505504E-20  1.0987699042E-20
            xcart10    4.9061356842E+00  4.9061356842E+00  4.9071225322E+00
                       1.4718407053E+01  1.4718407053E+01  1.4721367597E+01
                       9.8122713684E+00  9.8122713684E+00  4.9397463018E+00
                       9.8122713684E+00  9.8122713684E+00  1.4688743827E+01
                       1.5137423116E+01  9.8122713684E+00  9.8142450645E+00
                       9.8122713684E+00  1.5137423116E+01  9.8142450645E+00
                       9.8122713684E+00  4.4871196208E+00  9.8142450645E+00
                       4.4871196208E+00  9.8122713684E+00  9.8142450645E+00
                      -3.7622816723E-20 -6.5043796653E-20  1.0866955096E-20
             xred      2.5000000000E-01  2.5000000000E-01  2.5000000000E-01
                       7.5000000000E-01  7.5000000000E-01  7.5000000000E-01
                       2.5166206210E-01  2.5166206210E-01  7.4833793790E-01
                       7.4833793790E-01  7.4833793790E-01  2.5166206210E-01
                       2.2864836552E-01  7.7135163448E-01  7.7135163448E-01
                       7.7135163448E-01  2.2864836552E-01  7.7135163448E-01
                       2.2864836552E-01  7.7135163448E-01  2.2864836552E-01
                       7.7135163448E-01  2.2864836552E-01  2.2864836552E-01
                      -8.4364820404E-22  1.9509116792E-21 -5.7851734225E-21
            znucl       55.00000   53.00000   40.00000   35.00000

================================================================================

 chkinp: Checking input parameters for consistency, jdtset=   1.

 chkinp: Checking input parameters for consistency, jdtset=   2.

 chkinp: Checking input parameters for consistency, jdtset=   3.

 chkinp: Checking input parameters for consistency, jdtset=   4.

 chkinp: Checking input parameters for consistency, jdtset=   5.

 chkinp: Checking input parameters for consistency, jdtset=   6.

 chkinp: Checking input parameters for consistency, jdtset=   7.

 chkinp: Checking input parameters for consistency, jdtset=   8.

 chkinp: Checking input parameters for consistency, jdtset=   9.

 chkinp: Checking input parameters for consistency, jdtset=  10.

================================================================================
== DATASET  1 ==================================================================
-   mpi_nproc: 4, omp_nthreads: -1 (-1 if OMP is not activated)


--- !DatasetInfo
iteration_state: {dtset: 1, }
dimensions: {natom: 9, nkpt: 20, mband: 42, nsppol: 1, nspinor: 1, nspden: 1, mpw: 11723, }
cutoff_energies: {ecut:  16.0, pawecutdg:  40.0, }
electrons: {nelect:   7.20000000E+01, charge:   0.00000000E+00, occopt:   1.00000000E+00, tsmear:   1.00000000E-02, }
meta: {optdriver: 0, ionmov: 2, optcell: 3, iscf: 17, paral_kgb: 0, }
...

 Real(R)+Recip(G) space primitive vectors, cartesian coordinates (Bohr,Bohr^-1):
 R(1)=  0.0000000 10.7934985 10.7956696  G(1)= -0.0463242  0.0463242  0.0463149
 R(2)= 10.7934985  0.0000000 10.7956696  G(2)=  0.0463242 -0.0463242  0.0463149
 R(3)= 10.7934985 10.7934985  0.0000000  G(3)=  0.0463242  0.0463242 -0.0463149
 Unit cell volume ucvol=  2.5153826E+03 bohr^3
 Angles (23,13,12)=  6.00033267E+01  6.00033267E+01  5.99933466E+01 degrees

 Coarse grid specifications (used for wave-functions):

 getcut: wavevector=  0.0000  0.0000  0.0000  ngfft=  64  64  64
         ecut(hartree)=     21.160   => boxcut(ratio)=   2.02459

 Fine grid specifications (used for densities):

 getcut: wavevector=  0.0000  0.0000  0.0000  ngfft= 100 100 100
         ecut(hartree)=     52.900   => boxcut(ratio)=   2.00072

--- Pseudopotential description ------------------------------------------------
- pspini: atom type   1  psp file is ../../../Psps_for_tests/ATOMICDATA/Cs.GGA_PBE-JTH.xml
- pspatm: opening atomic psp file    ../../../Psps_for_tests/ATOMICDATA/Cs.GGA_PBE-JTH.xml
- pspatm : Reading pseudopotential header in XML form from ../../../Psps_for_tests/ATOMICDATA/Cs.GGA_PBE-JTH.xml
 Pseudopotential format is: paw10
 basis_size (lnmax)=  6 (lmn_size= 18), orbitals=   0   0   1   1   2   2
 Spheres core radius: rc_sph= 2.20660278
 1 radial meshes are used:
  - mesh 1: r(i)=AA*[exp(BB*(i-1))-1], size=1500 , AA= 0.15922E-03 BB= 0.87573E-02
 Shapefunction is SIN type: shapef(r)=[sin(pi*r/rshp)/(pi*r/rshp)]**2
 Radius for shape functions =  2.00394208
 mmax= 1500
 Radial grid used for partial waves is grid 1
 Radial grid used for projectors is grid 1
 Radial grid used for (t)core density is grid 1
 Radial grid used for Vloc is grid 1
 Radial grid used for pseudo valence density is grid 1
 Mesh size for Vloc has been set to 1341 to avoid numerical noise.
 Compensation charge density is not taken into account in XC energy/potential
 pspatm: atomic psp has been read  and splines computed

- pspini: atom type   2  psp file is ../../../Psps_for_tests/ATOMICDATA/I.GGA_PBE-JTH.xml
- pspatm: opening atomic psp file    ../../../Psps_for_tests/ATOMICDATA/I.GGA_PBE-JTH.xml
- pspatm : Reading pseudopotential header in XML form from ../../../Psps_for_tests/ATOMICDATA/I.GGA_PBE-JTH.xml
 Pseudopotential format is: paw10
 basis_size (lnmax)=  4 (lmn_size=  8), orbitals=   0   0   1   1
 Spheres core radius: rc_sph= 2.30022271
 1 radial meshes are used:
  - mesh 1: r(i)=AA*[exp(BB*(i-1))-1], size=2000 , AA= 0.12610E-03 BB= 0.66836E-02
 Shapefunction is SIN type: shapef(r)=[sin(pi*r/rshp)/(pi*r/rshp)]**2
 Radius for shape functions =  2.10879093
 mmax= 2000
 Radial grid used for partial waves is grid 1
 Radial grid used for projectors is grid 1
 Radial grid used for (t)core density is grid 1
 Radial grid used for Vloc is grid 1
 Radial grid used for pseudo valence density is grid 1
 Mesh size for Vloc has been set to 1792 to avoid numerical noise.
 Compensation charge density is not taken into account in XC energy/potential
 pspatm: atomic psp has been read  and splines computed

- pspini: atom type   3  psp file is ../../../Psps_for_tests/ATOMICDATA/Zr.GGA_PBE-JTH.xml
- pspatm: opening atomic psp file    ../../../Psps_for_tests/ATOMICDATA/Zr.GGA_PBE-JTH.xml
- pspatm : Reading pseudopotential header in XML form from ../../../Psps_for_tests/ATOMICDATA/Zr.GGA_PBE-JTH.xml
 Pseudopotential format is: paw10
 basis_size (lnmax)=  6 (lmn_size= 18), orbitals=   0   0   1   1   2   2
 Spheres core radius: rc_sph= 2.21000000
 1 radial meshes are used:
  - mesh 1: r(i)=AA*[exp(BB*(i-1))-1], size= 941 , AA= 0.35256E-03 BB= 0.14102E-01
 Shapefunction is BESSEL type: shapef(r,l)=aa(1,l)*jl(q(1,l)*r)+aa(2,l)*jl(q(2,l)*r)
 Radius for shape functions =  2.21000000
 mmax=  941
 Radial grid used for partial waves is grid 1
 Radial grid used for projectors is grid 1
 Radial grid used for (t)core density is grid 1
 Radial grid used for Vloc is grid 1
 Radial grid used for pseudo valence density is grid 1
 Mesh size for Vloc has been set to  777 to avoid numerical noise.
 Compensation charge density is not taken into account in XC energy/potential
 pspatm: atomic psp has been read  and splines computed

- pspini: atom type   4  psp file is ../../../Psps_for_tests/ATOMICDATA/Br.GGA_PBE-JTH.xml
- pspatm: opening atomic psp file    ../../../Psps_for_tests/ATOMICDATA/Br.GGA_PBE-JTH.xml
- pspatm : Reading pseudopotential header in XML form from ../../../Psps_for_tests/ATOMICDATA/Br.GGA_PBE-JTH.xml
 Pseudopotential format is: paw10
 basis_size (lnmax)=  4 (lmn_size=  8), orbitals=   0   0   1   1
 Spheres core radius: rc_sph= 2.20000000
 1 radial meshes are used:
  - mesh 1: r(i)=AA*[exp(BB*(i-1))-1], size= 927 , AA= 0.40483E-03 BB= 0.14169E-01
 Shapefunction is BESSEL type: shapef(r,l)=aa(1,l)*jl(q(1,l)*r)+aa(2,l)*jl(q(2,l)*r)
 Radius for shape functions =  2.02066386
 mmax=  927
 Radial grid used for partial waves is grid 1
 Radial grid used for projectors is grid 1
 Radial grid used for (t)core density is grid 1
 Radial grid used for Vloc is grid 1
 Radial grid used for pseudo valence density is grid 1
 Mesh size for Vloc has been set to  763 to avoid numerical noise.
 Compensation charge density is not taken into account in XC energy/potential
 pspatm: atomic psp has been read  and splines computed

   2.93056170E+04                                ecore*ucvol(ha*bohr**3)
--------------------------------------------------------------------------------

_setup2: Arith. and geom. avg. npw (full set) are   11692.219   11692.213

================================================================================

=== [ionmov= 2] Broyden-Fletcher-Goldfard-Shanno method (forces)            
================================================================================

--- Iteration: (   1/1000) Internal Cycle: (1/1)
--------------------------------------------------------------------------------

---SELF-CONSISTENT-FIELD CONVERGENCE--------------------------------------------

--- !BeginCycle
iteration_state: {dtset: 1, itime: 1, icycle: 1, }
solver: {iscf: 17, nstep: 2500, nline: 4, wfoptalg: 10, }
tolerances: {toldff: 1.00E-08, }
...

     iter   Etot(hartree)      deltaE(h)  residm     nres2    diffor    maxfor
 ETOT  1  -166.49363201691    -1.665E+02 1.856E-01 2.258E+01 4.759E-02 4.759E-02
 ETOT  2  -166.66349498500    -1.699E-01 1.374E-02 5.503E+00 1.132E-01 6.557E-02
 ETOT  3  -166.66030893832     3.186E-03 1.421E-03 1.212E+00 5.514E-02 1.043E-02
 ETOT  4  -166.66078870595    -4.798E-04 1.748E-03 6.318E-02 1.126E-03 9.610E-03
 ETOT  5  -166.66059671750     1.920E-04 3.040E-04 9.863E-03 1.284E-02 3.226E-03
 ETOT  6  -166.66065113475    -5.442E-05 3.511E-04 8.459E-04 1.571E-03 4.797E-03
 ETOT  7  -166.66065189331    -7.586E-07 1.266E-04 2.389E-04 2.179E-04 4.982E-03
 ETOT  8  -166.66065419158    -2.298E-06 1.692E-04 2.945E-05 3.718E-04 5.256E-03
 ETOT  9  -166.66065420738    -1.580E-08 7.071E-05 5.533E-06 1.662E-04 5.098E-03
 ETOT 10  -166.66065424676    -3.938E-08 7.384E-05 4.007E-07 2.520E-05 5.124E-03
 ETOT 11  -166.66065425105    -4.292E-09 3.648E-05 9.790E-08 7.099E-06 5.117E-03
 ETOT 12  -166.66065425222    -1.166E-09 3.543E-05 1.969E-08 3.387E-06 5.119E-03
 ETOT 13  -166.66065425247    -2.505E-10 1.772E-05 4.434E-09 1.185E-06 5.119E-03
 ETOT 14  -166.66065425252    -5.141E-11 1.590E-05 8.285E-10 3.421E-07 5.119E-03
 ETOT 15  -166.66065425252     3.695E-13 1.420E-05 9.872E-11 5.097E-07 5.118E-03
 ETOT 16  -166.66065425251     4.064E-12 8.776E-06 1.893E-11 3.583E-07 5.119E-03
 ETOT 17  -166.66065425253    -1.114E-11 1.093E-05 2.566E-12 9.007E-08 5.119E-03
 ETOT 18  -166.66065425252     2.387E-12 6.545E-06 2.490E-13 7.203E-08 5.119E-03
 ETOT 19  -166.66065425251     1.290E-11 8.169E-06 1.436E-14 2.027E-09 5.119E-03
 ETOT 20  -166.66065425251    -2.302E-12 4.764E-06 2.027E-15 1.654E-09 5.119E-03

 At SCF step   20, forces are converged : 
  for the second time, max diff in force=  1.654E-09 < toldff=  1.000E-08

 Cartesian components of stress tensor (hartree/bohr^3)
  sigma(1 1)= -2.66482541E-05  sigma(3 2)=  2.98823199E-14
  sigma(2 2)= -2.66482541E-05  sigma(3 1)=  2.98812882E-14
  sigma(3 3)= -2.37147913E-05  sigma(2 1)= -5.97778800E-14


--- !ResultsGS
iteration_state: {dtset: 1, itime: 1, icycle: 1, }
comment   : Summary of ground state results
lattice_vectors:
- [  0.0000000,  10.7934985,  10.7956696, ]
- [ 10.7934985,   0.0000000,  10.7956696, ]
- [ 10.7934985,  10.7934985,   0.0000000, ]
lattice_lengths: [  15.26585,   15.26585,   15.26431, ]
lattice_angles: [ 60.003,  60.003,  59.993, ] # degrees, (23, 13, 12)
lattice_volume:   2.5153826E+03
convergence: {deltae: -2.302E-12, res2:  2.027E-15, residm:  4.764E-06, diffor:  1.654E-09, }
etotal    :  -1.66660654E+02
entropy   :   0.00000000E+00
fermie    :  -6.87718453E-02
cartesian_stress_tensor: # hartree/bohr^3
- [ -2.66482541E-05,  -5.97778800E-14,   2.98812882E-14, ]
- [ -5.97778800E-14,  -2.66482541E-05,   2.98823199E-14, ]
- [  2.98812882E-14,   2.98823199E-14,  -2.37147913E-05, ]
pressure_GPa:   7.5525E-01
xred      :
- [  2.5000E-01,   2.5000E-01,   2.5000E-01, Cs]
- [  7.5000E-01,   7.5000E-01,   7.5000E-01, Cs]
- [  2.5166E-01,   2.5166E-01,   7.4834E-01,  I]
- [  7.4834E-01,   7.4834E-01,   2.5166E-01,  I]
- [  2.2865E-01,   7.7135E-01,   7.7135E-01, Br]
- [  7.7135E-01,   2.2865E-01,   7.7135E-01, Br]
- [  2.2865E-01,   7.7135E-01,   2.2865E-01, Br]
- [  7.7135E-01,   2.2865E-01,   2.2865E-01, Br]
- [ -8.4365E-22,   1.9509E-21,  -5.7852E-21, Zr]
cartesian_forces: # hartree/bohr
- [ -9.35509426E-30,   1.87312342E-19,  -4.81867632E-20, ]
- [  3.27428299E-28,   1.87312342E-19,  -4.81867631E-20, ]
- [ -5.24065514E-21,   1.92552997E-19,   4.17536026E-03, ]
- [  5.24065514E-21,   1.82071687E-19,  -4.17536026E-03, ]
- [ -5.11873244E-03,   3.32222614E-14,  -3.32154660E-14, ]
- [  3.32229414E-14,  -5.11873244E-03,  -3.32158997E-14, ]
- [ -3.32225077E-14,   5.11873244E-03,   3.32158034E-14, ]
- [  5.11873244E-03,  -3.32223204E-14,   3.32158034E-14, ]
- [ -0.00000000E+00,   1.87312342E-19,  -4.81867632E-20, ]
force_length_stats: {min:   1.93411162E-19, max:   5.11873244E-03, mean:   3.20285003E-03, }
...

 Integrated electronic density in atomic spheres:
 ------------------------------------------------
 Atom  Sphere_radius  Integrated_density
    1        2.20660          5.35776131
    2        2.20660          5.35776131
    3        2.30022          4.02298635
    4        2.30022          4.02298635
    5        2.20000          4.93568851
    6        2.20000          4.93568851
    7        2.20000          4.93568851
    8        2.20000          4.93568851
    9        2.21000          8.83288600

 PAW TEST:
 ==== Compensation charge inside spheres ============
 The following values must be close to each other ...
 Compensation charge over spherical meshes =     -4.986762424793257
 Compensation charge over fine fft grid    =     -4.986764495553764

 ==== Results concerning PAW augmentation regions ====

 Total pseudopotential strength Dij (hartree):
 Atom #  1
   0.43266  -0.14332   0.00000   0.00000   0.00000   0.00000   0.00000   0.00000   0.00000   0.00000   0.00000   0.00000 ...
  -0.14332   0.04313   0.00000   0.00000   0.00000   0.00000   0.00000   0.00000   0.00000   0.00000  -0.00000   0.00000 ...
   0.00000   0.00000  -0.09266   0.00000   0.00000  -0.16709   0.00000   0.00000   0.00000   0.00000   0.00000  -0.00000 ...
   0.00000   0.00000   0.00000  -0.09266   0.00000   0.00000  -0.16710   0.00000  -0.00000   0.00000   0.00000   0.00000 ...
   0.00000   0.00000   0.00000   0.00000  -0.09266   0.00000   0.00000  -0.16709   0.00000  -0.00000   0.00000   0.00000 ...
   0.00000   0.00000  -0.16709   0.00000   0.00000   0.40167   0.00000   0.00000   0.00000   0.00000   0.00000   0.00000 ...
   0.00000   0.00000   0.00000  -0.16710   0.00000   0.00000   0.40169   0.00000   0.00000   0.00000   0.00000   0.00000 ...
   0.00000   0.00000   0.00000   0.00000  -0.16709   0.00000   0.00000   0.40167   0.00000   0.00000   0.00000   0.00000 ...
   0.00000   0.00000   0.00000  -0.00000   0.00000   0.00000   0.00000   0.00000   0.00535   0.00000   0.00000   0.00000 ...
   0.00000   0.00000   0.00000   0.00000  -0.00000   0.00000   0.00000   0.00000   0.00000   0.00535   0.00000   0.00000 ...
   0.00000  -0.00000   0.00000   0.00000   0.00000   0.00000   0.00000   0.00000   0.00000   0.00000   0.00535   0.00000 ...
   0.00000   0.00000  -0.00000   0.00000   0.00000   0.00000   0.00000   0.00000   0.00000   0.00000   0.00000   0.00535 ...
   ...  only 12  components have been written...
 Atom #  9
   3.07207  -0.89463   0.00000   0.00000   0.00000   0.00000   0.00000   0.00000   0.00000   0.00000  -0.00007   0.00000 ...
  -0.89463   0.26731   0.00000   0.00000   0.00000   0.00000   0.00000   0.00000   0.00000   0.00000   0.00001   0.00000 ...
   0.00000   0.00000   0.27066   0.00000   0.00000  -0.05509   0.00000   0.00000   0.00000   0.00000   0.00000   0.00000 ...
   0.00000   0.00000   0.00000   0.27056   0.00000   0.00000  -0.05508   0.00000   0.00000   0.00000   0.00000   0.00000 ...
   0.00000   0.00000   0.00000   0.00000   0.27066   0.00000   0.00000  -0.05509   0.00000   0.00000   0.00000   0.00000 ...
   0.00000   0.00000  -0.05509   0.00000   0.00000   0.01509   0.00000   0.00000   0.00000   0.00000   0.00000   0.00000 ...
   0.00000   0.00000   0.00000  -0.05508   0.00000   0.00000   0.01508   0.00000   0.00000   0.00000   0.00000   0.00000 ...
   0.00000   0.00000   0.00000   0.00000  -0.05509   0.00000   0.00000   0.01509   0.00000   0.00000   0.00000   0.00000 ...
   0.00000   0.00000   0.00000   0.00000   0.00000   0.00000   0.00000   0.00000  -0.01242   0.00000   0.00000   0.00000 ...
   0.00000   0.00000   0.00000   0.00000   0.00000   0.00000   0.00000   0.00000   0.00000  -0.01248   0.00000   0.00000 ...
  -0.00007   0.00001   0.00000   0.00000   0.00000   0.00000   0.00000   0.00000   0.00000   0.00000  -0.01241   0.00000 ...
   0.00000   0.00000   0.00000   0.00000   0.00000   0.00000   0.00000   0.00000   0.00000   0.00000   0.00000  -0.01248 ...
   ...  only 12  components have been written...


 Augmentation waves occupancies Rhoij:
 Atom #  1
   1.99698  -0.01650   0.00000   0.00000   0.00000   0.00000   0.00000   0.00000   0.00000   0.00000   0.00250   0.00000 ...
  -0.01650   0.12584   0.00000   0.00000   0.00000   0.00000   0.00000   0.00000   0.00000   0.00000  -0.01885   0.00000 ...
   0.00000   0.00000   2.00958   0.00000   0.00000  -0.00522   0.00000   0.00000   0.00000   0.00000   0.00000   0.00053 ...
   0.00000   0.00000   0.00000   2.00673   0.00000   0.00000  -0.00477   0.00000   0.00041   0.00000   0.00000   0.00000 ...
   0.00000   0.00000   0.00000   0.00000   2.00958   0.00000   0.00000  -0.00522   0.00000   0.00053   0.00000   0.00000 ...
   0.00000   0.00000  -0.00522   0.00000   0.00000   0.00010   0.00000   0.00000   0.00000   0.00000   0.00000  -0.00003 ...
   0.00000   0.00000   0.00000  -0.00477   0.00000   0.00000   0.00007   0.00000  -0.00002   0.00000   0.00000   0.00000 ...
   0.00000   0.00000   0.00000   0.00000  -0.00522   0.00000   0.00000   0.00010   0.00000  -0.00003   0.00000   0.00000 ...
   0.00000   0.00000   0.00000   0.00041   0.00000   0.00000  -0.00002   0.00000   0.05711   0.00000   0.00000   0.00000 ...
   0.00000   0.00000   0.00000   0.00000   0.00053   0.00000   0.00000  -0.00003   0.00000   0.02920   0.00000   0.00000 ...
   0.00250  -0.01885   0.00000   0.00000   0.00000   0.00000   0.00000   0.00000   0.00000   0.00000   0.02897   0.00000 ...
   0.00000   0.00000   0.00053   0.00000   0.00000  -0.00003   0.00000   0.00000   0.00000   0.00000   0.00000   0.02920 ...
   ...  only 12  components have been written...
 Atom #  9
   1.99310  -0.06528   0.00000   0.00000   0.00000   0.00000   0.00000   0.00000   0.00000   0.00000   0.00259   0.00000 ...
  -0.06528   1.07161   0.00000   0.00000   0.00000   0.00000   0.00000   0.00000   0.00000   0.00000  -0.05490   0.00000 ...
   0.00000   0.00000   1.96625   0.00000   0.00000  -0.20140   0.00000   0.00000   0.00000   0.00000   0.00000   0.00000 ...
   0.00000   0.00000   0.00000   1.96811   0.00000   0.00000  -0.19090   0.00000   0.00000   0.00000   0.00000   0.00000 ...
   0.00000   0.00000   0.00000   0.00000   1.96625   0.00000   0.00000  -0.20140   0.00000   0.00000   0.00000   0.00000 ...
   0.00000   0.00000  -0.20140   0.00000   0.00000   1.74087   0.00000   0.00000   0.00000   0.00000   0.00000   0.00000 ...
   0.00000   0.00000   0.00000  -0.19090   0.00000   0.00000   1.47409   0.00000   0.00000   0.00000   0.00000   0.00000 ...
   0.00000   0.00000   0.00000   0.00000  -0.20140   0.00000   0.00000   1.74087   0.00000   0.00000   0.00000   0.00000 ...
   0.00000   0.00000   0.00000   0.00000   0.00000   0.00000   0.00000   0.00000   0.50606   0.00000   0.00000   0.00000 ...
   0.00000   0.00000   0.00000   0.00000   0.00000   0.00000   0.00000   0.00000   0.00000   0.47103   0.00000   0.00000 ...
   0.00259  -0.05490   0.00000   0.00000   0.00000   0.00000   0.00000   0.00000   0.00000   0.00000   1.35692   0.00000 ...
   0.00000   0.00000   0.00000   0.00000   0.00000   0.00000   0.00000   0.00000   0.00000   0.00000   0.00000   0.47103 ...
   ...  only 12  components have been written...



---OUTPUT-----------------------------------------------------------------------

 Cartesian coordinates (xcart) [bohr]
  5.39674925262047E+00  5.39674925262047E+00  5.39783478545669E+00
  1.61902477578614E+01  1.61902477578614E+01  1.61935043563701E+01
  1.07934985052757E+01  1.07934985052757E+01  5.43372093193257E+00
  1.07934985052061E+01  1.07934985052061E+01  1.61576182098942E+01
  1.66511654275501E+01  1.07934985052790E+01  1.07956695709134E+01
  1.07934985052790E+01  1.66511654275501E+01  1.07956695709134E+01
  1.07934985052029E+01  4.93583158293181E+00  1.07956695709134E+01
  4.93583158293181E+00  1.07934985052029E+01  1.07956695709134E+01
 -4.13850983955530E-20 -7.15481763179144E-20  1.19536506057686E-20
 Reduced coordinates (xred)
  2.50000000000000E-01  2.50000000000000E-01  2.50000000000000E-01
  7.50000000000000E-01  7.50000000000000E-01  7.50000000000000E-01
  2.51662062100000E-01  2.51662062100000E-01  7.48337937900000E-01
  7.48337937900000E-01  7.48337937900000E-01  2.51662062100000E-01
  2.28648365520000E-01  7.71351634480000E-01  7.71351634480000E-01
  7.71351634480000E-01  2.28648365520000E-01  7.71351634480000E-01
  2.28648365520000E-01  7.71351634480000E-01  2.28648365520000E-01
  7.71351634480000E-01  2.28648365520000E-01  2.28648365520000E-01
 -8.43648204040000E-22  1.95091167920000E-21 -5.78517342250000E-21
 Cartesian forces (fcart) [Ha/bohr]; max,rms= 5.11873E-03 2.27444E-03 (free atoms)
 -9.35509425579612E-30  1.87312342039067E-19 -4.81867631935183E-20
  3.27428298961122E-28  1.87312341777124E-19 -4.81867630812798E-20
 -5.24065514174405E-21  1.92552997208876E-19  4.17536026202710E-03
  5.24065514174405E-21  1.82071686925388E-19 -4.17536026202710E-03
 -5.11873243758451E-03  3.32222613692455E-14 -3.32154660463476E-14
  3.32229414186414E-14 -5.11873243758451E-03 -3.32158997272166E-14
 -3.32225077377724E-14  5.11873243758451E-03  3.32158033536901E-14
  5.11873243758451E-03 -3.32223204254304E-14  3.32158033536901E-14
 -0.00000000000000E+00  1.87312342067132E-19 -4.81867632215780E-20
 Reduced forces (fred)
 -1.50154711066965E-18  5.20208373230049E-19 -2.02175548372400E-18
 -1.50154710905406E-18  5.20208368383288E-19 -2.02175548453179E-18
 -4.50758097283670E-02 -4.50758097283670E-02 -2.02175548412789E-18
  4.50758097283670E-02  4.50758097283670E-02 -2.02175548412789E-18
 -1.23234708663931E-18  5.52490309137967E-02  5.52490309137967E-02
  5.52490309137967E-02 -3.89058386412508E-18  5.52490309137967E-02
 -5.52490309137967E-02  2.50066799726834E-19 -5.52490309137967E-02
 -1.77168868434313E-18 -5.52490309137967E-02 -5.52490309137967E-02
 -1.50154711066965E-18  5.20208373431998E-19 -2.02175548412789E-18
 Scale of Primitive Cell (acell) [bohr]
  1.52658472239900E+01  1.52658472239900E+01  1.52643119715900E+01
 Real space primitive translations (rprimd) [bohr]
  0.00000000000000E+00  1.07934985051709E+01  1.07956695709134E+01
  1.07934985051709E+01  0.00000000000000E+00  1.07956695709134E+01
  1.07934985053110E+01  1.07934985053110E+01  0.00000000000000E+00
 Unitary Cell Volume (ucvol) [Bohr^3]=  2.51538258902569E+03
 Angles (23,13,12)= [degrees]
  6.00033266999182E+01  6.00033266999182E+01  5.99933466001636E+01
 Lengths [Bohr]
  1.52658472239660E+01  1.52658472239660E+01  1.52643119716645E+01
 Stress tensor in cartesian coordinates (strten) [Ha/bohr^3]
 -2.66482540644203E-05 -5.97778799883177E-14  2.98812881986139E-14
 -5.97778799883177E-14 -2.66482540644212E-05  2.98823199065967E-14
  2.98812881986139E-14  2.98823199065967E-14 -2.37147912879321E-05
 Total energy (etotal) [Ha]= -1.66660654252513E+02

--- Iteration: (   2/1000) Internal Cycle: (1/1)
--------------------------------------------------------------------------------

---SELF-CONSISTENT-FIELD CONVERGENCE--------------------------------------------

--- !BeginCycle
iteration_state: {dtset: 1, itime: 2, icycle: 1, }
solver: {iscf: 17, nstep: 2500, nline: 4, wfoptalg: 10, }
tolerances: {toldff: 1.00E-08, }
...

     iter   Etot(hartree)      deltaE(h)  residm     nres2    diffor    maxfor
 ETOT  1  -166.66099961637    -1.667E+02 1.525E-05 3.269E-02 1.586E-02 2.097E-02
 ETOT  2  -166.66080840500     1.912E-04 2.770E-06 6.066E-03 1.696E-02 4.012E-03
 ETOT  3  -166.66078797470     2.043E-05 2.718E-06 3.149E-04 2.324E-03 6.336E-03
 ETOT  4  -166.66078636577     1.609E-06 2.046E-06 7.049E-05 1.443E-03 4.892E-03
 ETOT  5  -166.66078648923    -1.235E-07 1.992E-06 2.610E-05 1.507E-04 4.742E-03
 ETOT  6  -166.66078654176    -5.254E-08 1.488E-06 4.120E-06 1.620E-04 4.580E-03
 ETOT  7  -166.66078656538    -2.362E-08 1.460E-06 1.337E-06 2.287E-05 4.568E-03
 ETOT  8  -166.66078659621    -3.083E-08 1.081E-06 1.024E-07 3.456E-05 4.533E-03
 ETOT  9  -166.66078659631    -1.042E-10 1.067E-06 2.967E-08 1.715E-06 4.535E-03
 ETOT 10  -166.66078659614     1.762E-10 7.829E-07 5.713E-09 1.715E-06 4.533E-03
 ETOT 11  -166.66078659600     1.420E-10 7.774E-07 9.666E-10 5.950E-07 4.533E-03
 ETOT 12  -166.66078659561     3.868E-10 5.661E-07 7.047E-11 3.811E-07 4.532E-03
 ETOT 13  -166.66078659567    -6.415E-11 5.652E-07 2.076E-11 1.133E-07 4.532E-03
 ETOT 14  -166.66078659568    -2.160E-12 4.089E-07 3.315E-12 6.015E-08 4.532E-03
 ETOT 15  -166.66078659571    -3.294E-11 4.103E-07 6.822E-13 5.238E-09 4.532E-03
 ETOT 16  -166.66078659572    -1.253E-11 2.950E-07 3.809E-13 9.262E-09 4.532E-03

 At SCF step   16, forces are converged : 
  for the second time, max diff in force=  9.262E-09 < toldff=  1.000E-08

 Cartesian components of stress tensor (hartree/bohr^3)
  sigma(1 1)= -2.45618783E-05  sigma(3 2)=  2.98982484E-14
  sigma(2 2)= -2.45618783E-05  sigma(3 1)=  2.98971199E-14
  sigma(3 3)= -2.21542158E-05  sigma(2 1)= -5.98016269E-14


--- !ResultsGS
iteration_state: {dtset: 1, itime: 2, icycle: 1, }
comment   : Summary of ground state results
lattice_vectors:
- [  0.0000000,  10.7938151,  10.7950362, ]
- [ 10.7938151,   0.0000000,  10.7950362, ]
- [ 10.7938151,  10.7938151,   0.0000000, ]
lattice_lengths: [  15.26562,   15.26562,   15.26476, ]
lattice_angles: [ 60.002,  60.002,  59.996, ] # degrees, (23, 13, 12)
lattice_volume:   2.5153826E+03
convergence: {deltae: -1.253E-11, res2:  3.809E-13, residm:  2.950E-07, diffor:  9.262E-09, }
etotal    :  -1.66660787E+02
entropy   :   0.00000000E+00
fermie    :  -6.87915968E-02
cartesian_stress_tensor: # hartree/bohr^3
- [ -2.45618783E-05,  -5.98016269E-14,   2.98971199E-14, ]
- [ -5.98016269E-14,  -2.45618783E-05,   2.98982484E-14, ]
- [  2.98971199E-14,   2.98982484E-14,  -2.21542158E-05, ]
pressure_GPa:   6.9902E-01
xred      :
- [  2.5000E-01,   2.5000E-01,   2.5000E-01, Cs]
- [  7.5000E-01,   7.5000E-01,   7.5000E-01, Cs]
- [  2.5186E-01,   2.5186E-01,   7.4814E-01,  I]
- [  7.4814E-01,   7.4814E-01,   2.5186E-01,  I]
- [  2.2889E-01,   7.7111E-01,   7.7111E-01, Br]
- [  7.7111E-01,   2.2889E-01,   7.7111E-01, Br]
- [  2.2889E-01,   7.7111E-01,   2.2889E-01, Br]
- [  7.7111E-01,   2.2889E-01,   2.2889E-01, Br]
- [ -8.4365E-22,   1.9509E-21,  -5.7852E-21, Zr]
cartesian_forces: # hartree/bohr
- [  3.06538736E-24,  -1.21671208E-19,  -1.08846913E-19, ]
- [  6.13077472E-25,  -1.21666303E-19,  -1.08844461E-19, ]
- [ -7.71812230E-20,  -4.44856932E-20,   3.76755547E-03, ]
- [ -2.74075043E-20,  -9.42594119E-20,  -3.76755547E-03, ]
- [ -4.53244382E-03,   2.94162240E-14,  -2.94130782E-14, ]
- [  2.94160243E-14,  -4.53244382E-03,  -2.94127568E-14, ]
- [ -2.94161365E-14,   4.53244382E-03,   2.94126514E-14, ]
- [  4.53244382E-03,  -2.94164674E-14,   2.94128605E-14, ]
- [ -0.00000000E+00,  -1.21666916E-19,  -1.08849978E-19, ]
force_length_stats: {min:   1.63247683E-19, max:   4.53244382E-03, mean:   2.85165402E-03, }
...

 Integrated electronic density in atomic spheres:
 ------------------------------------------------
 Atom  Sphere_radius  Integrated_density
    1        2.20660          5.35776799
    2        2.20660          5.35776799
    3        2.30022          4.01823978
    4        2.30022          4.01823978
    5        2.20000          4.93502599
    6        2.20000          4.93502599
    7        2.20000          4.93502599
    8        2.20000          4.93502599
    9        2.21000          8.83053251

 PAW TEST:
 ==== Compensation charge inside spheres ============
 The following values must be close to each other ...
 Compensation charge over spherical meshes =     -4.986869723101515
 Compensation charge over fine fft grid    =     -4.986871661101290

 ==== Results concerning PAW augmentation regions ====

 Total pseudopotential strength Dij (hartree):
 Atom #  1
   0.43264  -0.14331   0.00000   0.00000   0.00000   0.00000   0.00000   0.00000   0.00000   0.00000   0.00000   0.00000 ...
  -0.14331   0.04313   0.00000   0.00000   0.00000   0.00000   0.00000   0.00000   0.00000   0.00000  -0.00000   0.00000 ...
   0.00000   0.00000  -0.09266   0.00000   0.00000  -0.16709   0.00000   0.00000   0.00000   0.00000   0.00000  -0.00000 ...
   0.00000   0.00000   0.00000  -0.09266   0.00000   0.00000  -0.16710   0.00000  -0.00000   0.00000   0.00000   0.00000 ...
   0.00000   0.00000   0.00000   0.00000  -0.09266   0.00000   0.00000  -0.16709   0.00000  -0.00000   0.00000   0.00000 ...
   0.00000   0.00000  -0.16709   0.00000   0.00000   0.40167   0.00000   0.00000   0.00000   0.00000   0.00000   0.00000 ...
   0.00000   0.00000   0.00000  -0.16710   0.00000   0.00000   0.40168   0.00000   0.00000   0.00000   0.00000   0.00000 ...
   0.00000   0.00000   0.00000   0.00000  -0.16709   0.00000   0.00000   0.40167   0.00000   0.00000   0.00000   0.00000 ...
   0.00000   0.00000   0.00000  -0.00000   0.00000   0.00000   0.00000   0.00000   0.00535   0.00000   0.00000   0.00000 ...
   0.00000   0.00000   0.00000   0.00000  -0.00000   0.00000   0.00000   0.00000   0.00000   0.00535   0.00000   0.00000 ...
   0.00000  -0.00000   0.00000   0.00000   0.00000   0.00000   0.00000   0.00000   0.00000   0.00000   0.00535   0.00000 ...
   0.00000   0.00000  -0.00000   0.00000   0.00000   0.00000   0.00000   0.00000   0.00000   0.00000   0.00000   0.00535 ...
   ...  only 12  components have been written...
 Atom #  9
   3.07231  -0.89470   0.00000   0.00000   0.00000   0.00000   0.00000   0.00000   0.00000   0.00000  -0.00006   0.00000 ...
  -0.89470   0.26734   0.00000   0.00000   0.00000   0.00000   0.00000   0.00000   0.00000   0.00000   0.00001   0.00000 ...
   0.00000   0.00000   0.27060   0.00000   0.00000  -0.05508   0.00000   0.00000   0.00000   0.00000   0.00000   0.00000 ...
   0.00000   0.00000   0.00000   0.27050   0.00000   0.00000  -0.05506   0.00000   0.00000   0.00000   0.00000   0.00000 ...
   0.00000   0.00000   0.00000   0.00000   0.27060   0.00000   0.00000  -0.05508   0.00000   0.00000   0.00000   0.00000 ...
   0.00000   0.00000  -0.05508   0.00000   0.00000   0.01508   0.00000   0.00000   0.00000   0.00000   0.00000   0.00000 ...
   0.00000   0.00000   0.00000  -0.05506   0.00000   0.00000   0.01508   0.00000   0.00000   0.00000   0.00000   0.00000 ...
   0.00000   0.00000   0.00000   0.00000  -0.05508   0.00000   0.00000   0.01508   0.00000   0.00000   0.00000   0.00000 ...
   0.00000   0.00000   0.00000   0.00000   0.00000   0.00000   0.00000   0.00000  -0.01249   0.00000   0.00000   0.00000 ...
   0.00000   0.00000   0.00000   0.00000   0.00000   0.00000   0.00000   0.00000   0.00000  -0.01255   0.00000   0.00000 ...
  -0.00006   0.00001   0.00000   0.00000   0.00000   0.00000   0.00000   0.00000   0.00000   0.00000  -0.01248   0.00000 ...
   0.00000   0.00000   0.00000   0.00000   0.00000   0.00000   0.00000   0.00000   0.00000   0.00000   0.00000  -0.01255 ...
   ...  only 12  components have been written...


 Augmentation waves occupancies Rhoij:
 Atom #  1
   1.99699  -0.01650   0.00000   0.00000   0.00000   0.00000   0.00000   0.00000   0.00000   0.00000   0.00248   0.00000 ...
  -0.01650   0.12588   0.00000   0.00000   0.00000   0.00000   0.00000   0.00000   0.00000   0.00000  -0.01879   0.00000 ...
   0.00000   0.00000   2.00957   0.00000   0.00000  -0.00522   0.00000   0.00000   0.00000   0.00000   0.00000   0.00050 ...
   0.00000   0.00000   0.00000   2.00674   0.00000   0.00000  -0.00477   0.00000   0.00039   0.00000   0.00000   0.00000 ...
   0.00000   0.00000   0.00000   0.00000   2.00957   0.00000   0.00000  -0.00522   0.00000   0.00050   0.00000   0.00000 ...
   0.00000   0.00000  -0.00522   0.00000   0.00000   0.00010   0.00000   0.00000   0.00000   0.00000   0.00000  -0.00003 ...
   0.00000   0.00000   0.00000  -0.00477   0.00000   0.00000   0.00007   0.00000  -0.00002   0.00000   0.00000   0.00000 ...
   0.00000   0.00000   0.00000   0.00000  -0.00522   0.00000   0.00000   0.00010   0.00000  -0.00003   0.00000   0.00000 ...
   0.00000   0.00000   0.00000   0.00039   0.00000   0.00000  -0.00002   0.00000   0.05708   0.00000   0.00000   0.00000 ...
   0.00000   0.00000   0.00000   0.00000   0.00050   0.00000   0.00000  -0.00003   0.00000   0.02924   0.00000   0.00000 ...
   0.00248  -0.01879   0.00000   0.00000   0.00000   0.00000   0.00000   0.00000   0.00000   0.00000   0.02896   0.00000 ...
   0.00000   0.00000   0.00050   0.00000   0.00000  -0.00003   0.00000   0.00000   0.00000   0.00000   0.00000   0.02924 ...
   ...  only 12  components have been written...
 Atom #  9
   1.99304  -0.06549   0.00000   0.00000   0.00000   0.00000   0.00000   0.00000   0.00000   0.00000   0.00263   0.00000 ...
  -0.06549   1.06960   0.00000   0.00000   0.00000   0.00000   0.00000   0.00000   0.00000   0.00000  -0.05372   0.00000 ...
   0.00000   0.00000   1.96611   0.00000   0.00000  -0.20227   0.00000   0.00000   0.00000   0.00000   0.00000   0.00000 ...
   0.00000   0.00000   0.00000   1.96796   0.00000   0.00000  -0.19176   0.00000   0.00000   0.00000   0.00000   0.00000 ...
   0.00000   0.00000   0.00000   0.00000   1.96611   0.00000   0.00000  -0.20227   0.00000   0.00000   0.00000   0.00000 ...
   0.00000   0.00000  -0.20227   0.00000   0.00000   1.73226   0.00000   0.00000   0.00000   0.00000   0.00000   0.00000 ...
   0.00000   0.00000   0.00000  -0.19176   0.00000   0.00000   1.46971   0.00000   0.00000   0.00000   0.00000   0.00000 ...
   0.00000   0.00000   0.00000   0.00000  -0.20227   0.00000   0.00000   1.73226   0.00000   0.00000   0.00000   0.00000 ...
   0.00000   0.00000   0.00000   0.00000   0.00000   0.00000   0.00000   0.00000   0.50304   0.00000   0.00000   0.00000 ...
   0.00000   0.00000   0.00000   0.00000   0.00000   0.00000   0.00000   0.00000   0.00000   0.46874   0.00000   0.00000 ...
   0.00263  -0.05372   0.00000   0.00000   0.00000   0.00000   0.00000   0.00000   0.00000   0.00000   1.35114   0.00000 ...
   0.00000   0.00000   0.00000   0.00000   0.00000   0.00000   0.00000   0.00000   0.00000   0.00000   0.00000   0.46874 ...
   ...  only 12  components have been written...



---OUTPUT-----------------------------------------------------------------------

 Cartesian coordinates (xcart) [bohr]
  5.39690756889517E+00  5.39690756889517E+00  5.39751810315312E+00
  1.61907227066855E+01  1.61907227066855E+01  1.61925543094594E+01
  1.07938151378251E+01  1.07938151378251E+01  5.43757725954672E+00
  1.07938151377556E+01  1.07938151377556E+01  1.61524951530658E+01
  1.66465350150210E+01  1.07938151378283E+01  1.07950362063062E+01
  1.07938151378283E+01  1.66465350150210E+01  1.07950362063062E+01
  1.07938151377524E+01  4.94109526055969E+00  1.07950362063062E+01
  4.94109526055969E+00  1.07938151377524E+01  1.07950362063062E+01
 -4.13863124476239E-20 -7.15502752186056E-20  1.19529493042727E-20
 Reduced coordinates (xred)
  2.50000000000000E-01  2.50000000000000E-01  2.50000000000000E-01
  7.50000000000000E-01  7.50000000000000E-01  7.50000000000000E-01
  2.51855443355076E-01  2.51855443355076E-01  7.48144556644924E-01
  7.48144556644923E-01  7.48144556644924E-01  2.51855443355076E-01
  2.28885486618182E-01  7.71114513381818E-01  7.71114513381817E-01
  7.71114513381818E-01  2.28885486618182E-01  7.71114513381818E-01
  2.28885486618182E-01  7.71114513381818E-01  2.28885486618182E-01
  7.71114513381818E-01  2.28885486618182E-01  2.28885486618182E-01
 -8.43648204040000E-22  1.95091167920000E-21 -5.78517342250000E-21
 Cartesian forces (fcart) [Ha/bohr]; max,rms= 4.53244E-03 2.02358E-03 (free atoms)
  3.06538736119166E-24 -1.21671207750402E-19 -1.08846913106739E-19
  6.13077472228783E-25 -1.21666303130624E-19 -1.08844461074240E-19
 -7.71812230027096E-20 -4.44856932053868E-20  3.76755546590825E-03
 -2.74075042642457E-20 -9.42594119438507E-20 -3.76755546590825E-03
 -4.53244382119183E-03  2.94162240364526E-14 -2.94130781984371E-14
  2.94160242742071E-14 -4.53244382119183E-03 -2.94127568056334E-14
 -2.94161365259143E-14  4.53244382119183E-03  2.94126513937425E-14
  4.53244382119183E-03 -2.94164673702850E-14  2.94128604984808E-14
 -0.00000000000000E+00 -1.21666916208096E-19 -1.08849978147362E-19
 Reduced forces (fred)
  2.48830289197292E-18  1.17497328070741E-18  1.31326343683354E-18
  2.48822348263411E-18  1.17497328070741E-18  1.31323696705394E-18
 -4.06708976637465E-02 -4.06708976637465E-02  1.31325020194374E-18
  4.06708976637465E-02  4.06708976637465E-02  1.31325020194374E-18
  1.95979181132453E-18  4.89223607283647E-02  4.89223607283646E-02
  4.89223607283647E-02  6.46541609386189E-19  4.89223607283647E-02
 -4.89223607283647E-02  1.70300774689209E-18 -4.89223607283647E-02
  3.01678750288361E-18 -4.89223607283646E-02 -4.89223607283646E-02
  2.48828965708312E-18  1.17503945515642E-18  1.31325020194374E-18
 Scale of Primitive Cell (acell) [bohr]
  1.52656232078072E+01  1.52656232078072E+01  1.52647597577102E+01
 Real space primitive translations (rprimd) [bohr]
  0.00000000000000E+00  1.07938151377203E+01  1.07950362063062E+01
  1.07938151377203E+01  0.00000000000000E+00  1.07950362063062E+01
  1.07938151378604E+01  1.07938151378604E+01  0.00000000000000E+00
 Unitary Cell Volume (ucvol) [Bohr^3]=  2.51538258902569E+03
 Angles (23,13,12)= [degrees]
  6.00018710298434E+01  6.00018710298434E+01  5.99962579403132E+01
 Lengths [Bohr]
  1.52656232078072E+01  1.52656232078072E+01  1.52647597577102E+01
 Stress tensor in cartesian coordinates (strten) [Ha/bohr^3]
 -2.45618782564730E-05 -5.98016269293374E-14  2.98971198587096E-14
 -5.98016269293374E-14 -2.45618782564730E-05  2.98982483577100E-14
  2.98971198587096E-14  2.98982483577100E-14 -2.21542157954942E-05
 Total energy (etotal) [Ha]= -1.66660786595721E+02

 Difference of energy with previous step (new-old):
           Absolute (Ha)=-1.32343E-04
           Relative     =-7.94088E-07

--- Iteration: (   3/1000) Internal Cycle: (1/1)
--------------------------------------------------------------------------------

---SELF-CONSISTENT-FIELD CONVERGENCE--------------------------------------------

--- !BeginCycle
iteration_state: {dtset: 1, itime: 3, icycle: 1, }
solver: {iscf: 17, nstep: 2500, nline: 4, wfoptalg: 10, }
tolerances: {toldff: 1.00E-08, }
...

     iter   Etot(hartree)      deltaE(h)  residm     nres2    diffor    maxfor
 ETOT  1  -166.67497031942    -1.667E+02 3.910E-05 2.054E+00 1.270E-01 1.316E-01
 ETOT  2  -166.66254433665     1.243E-02 1.231E-04 3.560E-01 1.345E-01 2.979E-03
 ETOT  3  -166.66140950659     1.135E-03 5.716E-05 2.092E-02 1.817E-02 1.519E-02
 ETOT  4  -166.66129507741     1.144E-04 5.342E-05 4.445E-03 1.242E-02 2.839E-03
 ETOT  5  -166.66130021396    -5.137E-06 1.702E-05 1.624E-03 1.111E-03 2.043E-03
 ETOT  6  -166.66130147355    -1.260E-06 1.451E-05 2.192E-04 1.239E-03 9.916E-04
 ETOT  7  -166.66130225400    -7.805E-07 9.227E-06 7.297E-05 2.158E-04 7.758E-04
 ETOT  8  -166.66130311398    -8.600E-07 8.771E-06 5.432E-06 2.339E-04 5.420E-04
 ETOT  9  -166.66130314428    -3.029E-08 6.548E-06 1.506E-06 8.231E-06 5.502E-04
 ETOT 10  -166.66130315376    -9.486E-09 6.566E-06 2.785E-07 1.556E-05 5.347E-04
 ETOT 11  -166.66130315358     1.787E-10 4.749E-06 4.531E-08 1.986E-06 5.327E-04
 ETOT 12  -166.66130315176     1.822E-09 4.775E-06 3.592E-09 3.393E-06 5.309E-04
 ETOT 13  -166.66130315231    -5.478E-10 3.399E-06 1.052E-09 4.689E-07 5.304E-04
 ETOT 14  -166.66130315237    -5.917E-11 3.425E-06 1.399E-10 4.982E-07 5.305E-04
 ETOT 15  -166.66130315264    -2.736E-10 2.419E-06 2.807E-11 9.348E-08 5.305E-04
 ETOT 16  -166.66130315277    -1.258E-10 2.461E-06 1.554E-11 5.173E-08 5.306E-04
 ETOT 17  -166.66130315296    -1.880E-10 1.735E-06 4.793E-12 2.262E-08 5.306E-04
 ETOT 18  -166.66130315302    -6.506E-11 1.788E-06 2.356E-12 1.475E-08 5.306E-04
 ETOT 19  -166.66130315309    -6.614E-11 1.261E-06 9.030E-13 4.966E-09 5.306E-04
 ETOT 20  -166.66130315317    -8.592E-11 1.312E-06 1.564E-13 1.528E-09 5.306E-04

 At SCF step   20, forces are converged : 
  for the second time, max diff in force=  1.528E-09 < toldff=  1.000E-08

 Cartesian components of stress tensor (hartree/bohr^3)
  sigma(1 1)= -8.50916398E-06  sigma(3 2)=  3.00141060E-14
  sigma(2 2)= -8.50916398E-06  sigma(3 1)=  3.00128383E-14
  sigma(3 3)= -9.81050205E-06  sigma(2 1)= -5.99931582E-14


--- !ResultsGS
iteration_state: {dtset: 1, itime: 3, icycle: 1, }
comment   : Summary of ground state results
lattice_vectors:
- [  0.0000000,  10.7961686,  10.7903303, ]
- [ 10.7961686,   0.0000000,  10.7903303, ]
- [ 10.7961686,  10.7961686,   0.0000000, ]
lattice_lengths: [  15.26396,   15.26396,   15.26809, ]
lattice_angles: [ 59.991,  59.991,  60.018, ] # degrees, (23, 13, 12)
lattice_volume:   2.5153826E+03
convergence: {deltae: -8.592E-11, res2:  1.564E-13, residm:  1.312E-06, diffor:  1.528E-09, }
etotal    :  -1.66661303E+02
entropy   :   0.00000000E+00
fermie    :  -6.89150947E-02
cartesian_stress_tensor: # hartree/bohr^3
- [ -8.50916398E-06,  -5.99931582E-14,   3.00128383E-14, ]
- [ -5.99931582E-14,  -8.50916398E-06,   3.00141060E-14, ]
- [  3.00128383E-14,   3.00141060E-14,  -9.81050205E-06, ]
pressure_GPa:   2.6311E-01
xred      :
- [  2.5000E-01,   2.5000E-01,   2.5000E-01, Cs]
- [  7.5000E-01,   7.5000E-01,   7.5000E-01, Cs]
- [  2.5344E-01,   2.5344E-01,   7.4656E-01,  I]
- [  7.4656E-01,   7.4656E-01,   2.5344E-01,  I]
- [  2.3079E-01,   7.6921E-01,   7.6921E-01, Br]
- [  7.6921E-01,   2.3079E-01,   7.6921E-01, Br]
- [  2.3079E-01,   7.6921E-01,   2.3079E-01, Br]
- [  7.6921E-01,   2.3079E-01,   2.3079E-01, Br]
- [ -8.4365E-22,   1.9509E-21,  -5.7852E-21, Zr]
cartesian_forces: # hartree/bohr
- [ -4.51812200E-21,   4.05898141E-21,   3.77072363E-22, ]
- [ -4.51873494E-21,   4.06082024E-21,   3.74005986E-22, ]
- [ -2.79909107E-20,   2.75323831E-20,   5.30599438E-04, ]
- [  5.91257793E-20,  -5.95843070E-20,  -5.30599438E-04, ]
- [ -3.49646784E-05,   2.26865849E-16,  -2.26988089E-16, ]
- [  2.26851265E-16,  -3.49646784E-05,  -2.26981313E-16, ]
- [ -2.26860300E-16,   3.49646784E-05,   2.26982066E-16, ]
- [  3.49646784E-05,  -2.26854343E-16,   2.26985454E-16, ]
- [ -4.51750905E-21,   4.05898141E-21,   3.76459088E-22, ]
force_length_stats: {min:   6.08481220E-21, max:   5.30599438E-04, mean:   1.33450843E-04, }
...

 Integrated electronic density in atomic spheres:
 ------------------------------------------------
 Atom  Sphere_radius  Integrated_density
    1        2.20660          5.36036702
    2        2.20660          5.36036702
    3        2.30022          4.01813309
    4        2.30022          4.01813309
    5        2.20000          4.93076523
    6        2.20000          4.93076523
    7        2.20000          4.93076523
    8        2.20000          4.93076523
    9        2.21000          8.81236904

 PAW TEST:
 ==== Compensation charge inside spheres ============
 The following values must be close to each other ...
 Compensation charge over spherical meshes =     -4.987733877863487
 Compensation charge over fine fft grid    =     -4.987732219579639

 ==== Results concerning PAW augmentation regions ====

 Total pseudopotential strength Dij (hartree):
 Atom #  1
   0.43253  -0.14327   0.00000   0.00000   0.00000   0.00000   0.00000   0.00000   0.00000   0.00000   0.00000   0.00000 ...
  -0.14327   0.04312   0.00000   0.00000   0.00000   0.00000   0.00000   0.00000   0.00000   0.00000  -0.00000   0.00000 ...
   0.00000   0.00000  -0.09264   0.00000   0.00000  -0.16710   0.00000   0.00000   0.00000   0.00000   0.00000  -0.00000 ...
   0.00000   0.00000   0.00000  -0.09264   0.00000   0.00000  -0.16711   0.00000  -0.00000   0.00000   0.00000   0.00000 ...
   0.00000   0.00000   0.00000   0.00000  -0.09264   0.00000   0.00000  -0.16710   0.00000  -0.00000   0.00000   0.00000 ...
   0.00000   0.00000  -0.16710   0.00000   0.00000   0.40164   0.00000   0.00000   0.00000   0.00000   0.00000   0.00000 ...
   0.00000   0.00000   0.00000  -0.16711   0.00000   0.00000   0.40165   0.00000   0.00000   0.00000   0.00000   0.00000 ...
   0.00000   0.00000   0.00000   0.00000  -0.16710   0.00000   0.00000   0.40164   0.00000   0.00000   0.00000   0.00000 ...
   0.00000   0.00000   0.00000  -0.00000   0.00000   0.00000   0.00000   0.00000   0.00536   0.00000   0.00000   0.00000 ...
   0.00000   0.00000   0.00000   0.00000  -0.00000   0.00000   0.00000   0.00000   0.00000   0.00536   0.00000   0.00000 ...
   0.00000  -0.00000   0.00000   0.00000   0.00000   0.00000   0.00000   0.00000   0.00000   0.00000   0.00536   0.00000 ...
   0.00000   0.00000  -0.00000   0.00000   0.00000   0.00000   0.00000   0.00000   0.00000   0.00000   0.00000   0.00536 ...
   ...  only 12  components have been written...
 Atom #  9
   3.07421  -0.89529   0.00000   0.00000   0.00000   0.00000   0.00000   0.00000   0.00000   0.00000  -0.00006   0.00000 ...
[...]
                       5.2462625982E+00  2.5989914851E+00  5.2589130574E+00
                       2.5989914851E+00  5.2462625982E+00  5.2589130574E+00
                      -1.8961767042E-20 -3.4552444513E-20  1.5165328739E-21
           xangst10    2.5914122569E+00  2.5914122569E+00  2.6063719220E+00
                       7.7742367707E+00  7.7742367707E+00  7.8191157659E+00
                       5.1828245138E+00  5.1828245138E+00  2.7988180083E+00
                       5.1828245138E+00  5.1828245138E+00  7.6266696796E+00
                       7.7758631484E+00  5.1828245138E+00  5.2127438440E+00
                       5.1828245138E+00  7.7758631484E+00  5.2127438440E+00
                       5.1828245138E+00  2.5897858793E+00  5.2127438440E+00
                       2.5897858793E+00  5.1828245138E+00  5.2127438440E+00
                      -1.7987126465E-20 -3.3985159348E-20  4.6384608242E-21
            xcart1     5.4024804965E+00  5.4024804965E+00  5.3863882292E+00
                       1.6207441490E+01  1.6207441490E+01  1.6159164688E+01
                       1.0804960993E+01  1.0804960993E+01  5.4768501826E+00
                       1.0804960993E+01  1.0804960993E+01  1.6068702734E+01
                       1.6627206201E+01  1.0804960993E+01  1.0772776458E+01
                       1.0804960993E+01  1.6627206201E+01  1.0772776458E+01
                       1.0804960993E+01  4.9827157847E+00  1.0772776458E+01
                       4.9827157847E+00  1.0804960993E+01  1.0772776458E+01
                      -4.1429048574E-20 -7.1624159105E-20  1.1928301899E-20
            xcart2     5.3516078597E+00  5.3516078597E+00  5.3246141914E+00
                       1.6054823579E+01  1.6054823579E+01  1.5973842574E+01
                       1.0703215719E+01  1.0703215719E+01  5.4635828075E+00
                       1.0703215719E+01  1.0703215719E+01  1.5834873958E+01
                       1.6427421686E+01  1.0703215719E+01  1.0649228383E+01
                       1.0703215719E+01  1.6427421686E+01  1.0649228383E+01
                       1.0703215719E+01  4.9790097530E+00  1.0649228383E+01
                       4.9790097530E+00  1.0703215719E+01  1.0649228383E+01
                      -4.9370992559E-20 -7.3731060333E-20 -1.1139538293E-20
            xcart3     5.2991596381E+00  5.2991596381E+00  5.2659857679E+00
                       1.5897478914E+01  1.5897478914E+01  1.5797957304E+01
                       1.0598319276E+01  1.0598319276E+01  5.4490930504E+00
                       1.0598319276E+01  1.0598319276E+01  1.5614850021E+01
                       1.6222329686E+01  1.0598319276E+01  1.0531971536E+01
                       1.0598319276E+01  1.6222329686E+01  1.0531971536E+01
                       1.0598319276E+01  4.9743088667E+00  1.0531971536E+01
                       4.9743088667E+00  1.0598319276E+01  1.0531971536E+01
                      -4.0583944077E-20 -7.7465677723E-20  1.9470821376E-20
            xcart4     5.2460447369E+00  5.2460447369E+00  5.2086863150E+00
                       1.5738134211E+01  1.5738134211E+01  1.5626058945E+01
                       1.0492089474E+01  1.0492089474E+01  5.4325998069E+00
                       1.0492089474E+01  1.0492089474E+01  1.5402145453E+01
                       1.6016317264E+01  1.0492089474E+01  1.0417372630E+01
                       1.0492089474E+01  1.6016317264E+01  1.0417372630E+01
                       1.0492089474E+01  4.9678616834E+00  1.0417372630E+01
                       4.9678616834E+00  1.0492089474E+01  1.0417372630E+01
                      -4.0229417278E-20 -6.9550189612E-20  1.1534776220E-20
            xcart5     5.1902040657E+00  5.1902040657E+00  5.1568017176E+00
                       1.5570612197E+01  1.5570612197E+01  1.5470405153E+01
                       1.0380408131E+01  1.0380408131E+01  5.4146331414E+00
                       1.0380408131E+01  1.0380408131E+01  1.5212573729E+01
                       1.5800574569E+01  1.0380408131E+01  1.0313603435E+01
                       1.0380408131E+01  1.5800574569E+01  1.0313603435E+01
                       1.0380408131E+01  4.9602416934E+00  1.0313603435E+01
                       4.9602416934E+00  1.0380408131E+01  1.0313603435E+01
                      -4.1020090809E-20 -6.7366212538E-20  2.0758638484E-20
            xcart6     5.1335191408E+00  5.1335191408E+00  5.1065980318E+00
                       1.5400557422E+01  1.5400557422E+01  1.5319794095E+01
                       1.0267038282E+01  1.0267038282E+01  5.3942426289E+00
                       1.0267038282E+01  1.0267038282E+01  1.5032149498E+01
                       1.5583149208E+01  1.0267038282E+01  1.0213196064E+01
                       1.0267038282E+01  1.5583149208E+01  1.0213196064E+01
                       1.0267038281E+01  4.9509273547E+00  1.0213196064E+01
                       4.9509273547E+00  1.0267038281E+01  1.0213196064E+01
                      -3.8962364791E-20 -7.0189323579E-20  1.1060155389E-20
            xcart7     5.0751651577E+00  5.0751651577E+00  5.0597256633E+00
                       1.5225495473E+01  1.5225495473E+01  1.5179176990E+01
                       1.0150330315E+01  1.0150330315E+01  5.3715614803E+00
                       1.0150330315E+01  1.0150330315E+01  1.4867341173E+01
                       1.5361037250E+01  1.0150330315E+01  1.0119451327E+01
                       1.0150330315E+01  1.5361037250E+01  1.0119451327E+01
                       1.0150330315E+01  4.9396233807E+00  1.0119451327E+01
                       4.9396233807E+00  1.0150330315E+01  1.0119451327E+01
                      -3.6066595574E-20 -6.9307629916E-20  1.1225510549E-20
            xcart8     5.0162937790E+00  5.0162937790E+00  5.0139042968E+00
                       1.5048881337E+01  1.5048881337E+01  1.5041712890E+01
                       1.0032587558E+01  1.0032587558E+01  5.3465717384E+00
                       1.0032587558E+01  1.0032587558E+01  1.4709045449E+01
                       1.5138495386E+01  1.0032587558E+01  1.0027808594E+01
                       1.0032587558E+01  1.5138495386E+01  1.0027808594E+01
                       1.0032587558E+01  4.9266797297E+00  1.0027808594E+01
                       4.9266797297E+00  1.0032587558E+01  1.0027808594E+01
                      -3.5610091022E-20 -6.7193315215E-20 -1.3286927133E-21
            xcart9     4.9569997659E+00  4.9569997659E+00  4.9689527176E+00
                       1.4870999298E+01  1.4870999298E+01  1.4906858153E+01
                       9.9139995319E+00  9.9139995319E+00  5.3189349903E+00
                       9.9139995319E+00  9.9139995319E+00  1.4556875880E+01
                       1.4916616935E+01  9.9139995319E+00  9.9379054352E+00
                       9.9139995319E+00  1.4916616935E+01  9.9379054352E+00
                       9.9139995319E+00  4.9113821285E+00  9.9379054352E+00
                       4.9113821285E+00  9.9139995319E+00  9.9379054352E+00
                      -3.5832546704E-20 -6.5294657351E-20  2.8658318031E-21
            xcart10    4.8970594630E+00  4.8970594630E+00  4.9253291330E+00
                       1.4691178389E+01  1.4691178389E+01  1.4775987399E+01
                       9.7941189260E+00  9.7941189260E+00  5.2889995316E+00
                       9.7941189259E+00  9.7941189259E+00  1.4412317000E+01
                       1.4694251797E+01  9.7941189260E+00  9.8506582660E+00
                       9.7941189260E+00  1.4694251797E+01  9.8506582660E+00
                       9.7941189259E+00  4.8939860547E+00  9.8506582660E+00
                       4.8939860547E+00  9.7941189259E+00  9.8506582660E+00
                      -3.3990742936E-20 -6.4222643751E-20  8.7654206358E-21
             xred1     2.5000000000E-01  2.5000000000E-01  2.5000000000E-01
                       7.5000000000E-01  7.5000000000E-01  7.5000000000E-01
                       2.5419863689E-01  2.5419863689E-01  7.4580136311E-01
                       7.4580136311E-01  7.4580136311E-01  2.5419863689E-01
                       2.3057537125E-01  7.6942462875E-01  7.6942462875E-01
                       7.6942462875E-01  2.3057537125E-01  7.6942462875E-01
                       2.3057537125E-01  7.6942462875E-01  2.3057537125E-01
                       7.6942462875E-01  2.3057537125E-01  2.3057537125E-01
                      -8.4364820404E-22  1.9509116792E-21 -5.7851734225E-21
             xred2     2.5000000000E-01  2.5000000000E-01  2.5000000000E-01
                       7.5000000000E-01  7.5000000000E-01  7.5000000000E-01
                       2.5652482091E-01  2.5652482091E-01  7.4347517909E-01
                       7.4347517909E-01  7.4347517909E-01  2.5652482091E-01
                       2.3259410459E-01  7.6740589541E-01  7.6740589541E-01
                       7.6740589541E-01  2.3259410459E-01  7.6740589541E-01
                       2.3259410459E-01  7.6740589541E-01  2.3259410459E-01
                       7.6740589541E-01  2.3259410459E-01  2.3259410459E-01
                      -1.6609998346E-21  6.1495800952E-22 -5.2276831805E-21
             xred3     2.5000000000E-01  2.5000000000E-01  2.5000000000E-01
                       7.5000000000E-01  7.5000000000E-01  7.5000000000E-01
                       2.5869292525E-01  2.5869292525E-01  7.4130707475E-01
                       7.4130707475E-01  7.4130707475E-01  2.5869292525E-01
                       2.3467442040E-01  7.6532557960E-01  7.6532557960E-01
                       7.6532557960E-01  2.3467442040E-01  7.6532557960E-01
                       2.3467442040E-01  7.6532557960E-01  2.3467442040E-01
                       7.6532557960E-01  2.3467442040E-01  2.3467442040E-01
                      -8.1561294997E-22  2.6643476631E-21 -6.4936287990E-21
             xred4     2.5000000000E-01  2.5000000000E-01  2.5000000000E-01
                       7.5000000000E-01  7.5000000000E-01  7.5000000000E-01
                       2.6074711925E-01  2.6074711925E-01  7.3925288075E-01
                       7.3925288075E-01  7.3925288075E-01  2.6074711925E-01
                       2.3674320047E-01  7.6325679953E-01  7.6325679953E-01
                       7.6325679953E-01  2.3674320047E-01  7.6325679953E-01
                       2.3674320047E-01  7.6325679953E-01  2.3674320047E-01
                       7.6325679953E-01  2.3674320047E-01  2.3674320047E-01
                      -8.4364820404E-22  1.9509116792E-21 -5.7851734225E-21
             xred5     2.5000000000E-01  2.5000000000E-01  2.5000000000E-01
                       7.5000000000E-01  7.5000000000E-01  7.5000000000E-01
                       2.6249958006E-01  2.6249958006E-01  7.3750041994E-01
                       7.3750041994E-01  7.3750041994E-01  2.6249958006E-01
                       2.3892324996E-01  7.6107675004E-01  7.6107675004E-01
                       7.6107675004E-01  2.3892324996E-01  7.6107675004E-01
                       2.3892324996E-01  7.6107675004E-01  2.3892324996E-01
                       7.6107675004E-01  2.3892324996E-01  2.3892324996E-01
                      -2.6265935098E-22  2.2754028712E-21 -6.2270866865E-21
             xred6     2.5000000000E-01  2.5000000000E-01  2.5000000000E-01
                       7.5000000000E-01  7.5000000000E-01  7.5000000000E-01
                       2.6408200701E-01  2.6408200701E-01  7.3591799299E-01
                       7.3591799299E-01  7.3591799299E-01  2.6408200701E-01
                       2.4110786475E-01  7.5889213525E-01  7.5889213525E-01
                       7.5889213525E-01  2.4110786475E-01  7.5889213525E-01
                       2.4110786475E-01  7.5889213525E-01  2.4110786475E-01
                       7.5889213525E-01  2.4110786475E-01  2.4110786475E-01
                      -9.7927443173E-22  2.0622023732E-21 -5.8571005436E-21
             xred7     2.5000000000E-01  2.5000000000E-01  2.5000000000E-01
                       7.5000000000E-01  7.5000000000E-01  7.5000000000E-01
                       2.6540774332E-01  2.6540774332E-01  7.3459225668E-01
                       7.3459225668E-01  7.3459225668E-01  2.6540774332E-01
                       2.4332328245E-01  7.5667671755E-01  7.5667671755E-01
                       7.5667671755E-01  2.4332328245E-01  7.5667671755E-01
                       2.4332328245E-01  7.5667671755E-01  2.4332328245E-01
                       7.5667671755E-01  2.4332328245E-01  2.4332328245E-01
                      -1.0827859310E-21  2.1920862465E-21 -5.7453297817E-21
             xred8     2.5000000000E-01  2.5000000000E-01  2.5000000000E-01
                       7.5000000000E-01  7.5000000000E-01  7.5000000000E-01
                       2.6658724528E-01  2.6658724528E-01  7.3341275472E-01
                       7.3341275472E-01  7.3341275472E-01  2.6658724528E-01
                       2.4553385162E-01  7.5446614838E-01  7.5446614838E-01
                       7.5446614838E-01  2.4553385162E-01  7.5446614838E-01
                       2.4553385162E-01  7.5446614838E-01  2.4553385162E-01
                       7.5446614838E-01  2.4553385162E-01  2.4553385162E-01
                      -1.6402822269E-21  1.5077814217E-21 -5.0572237581E-21
             xred9     2.5000000000E-01  2.5000000000E-01  2.5000000000E-01
                       7.5000000000E-01  7.5000000000E-01  7.5000000000E-01
                       2.6760845255E-01  2.6760845255E-01  7.3239154745E-01
                       7.3239154745E-01  7.3239154745E-01  2.6760845255E-01
                       2.4769933228E-01  7.5230066772E-01  7.5230066772E-01
                       7.5230066772E-01  2.4769933228E-01  7.5230066772E-01
                       2.4769933228E-01  7.5230066772E-01  2.4769933228E-01
                       7.5230066772E-01  2.4769933228E-01  2.4769933228E-01
                      -1.3416972936E-21  1.6300711186E-21 -5.2444092662E-21
             xred10    2.5000000000E-01  2.5000000000E-01  2.5000000000E-01
                       7.5000000000E-01  7.5000000000E-01  7.5000000000E-01
                       2.6845919271E-01  2.6845919271E-01  7.3154080729E-01
                       7.3154080729E-01  7.3154080729E-01  2.6845919271E-01
                       2.4984309930E-01  7.5015690070E-01  7.5015690070E-01
                       7.5015690070E-01  2.4984309930E-01  7.5015690070E-01
                       2.4984309930E-01  7.5015690070E-01  2.4984309930E-01
                       7.5015690070E-01  2.4984309930E-01  2.4984309930E-01
                      -1.0984546337E-21  1.9882855870E-21 -5.4588114396E-21
            znucl       55.00000   53.00000   40.00000   35.00000

================================================================================


- Timing analysis has been suppressed with timopt=0



================================================================================

 Suggested references for the acknowledgment of ABINIT usage.

 The users of ABINIT have little formal obligations with respect to the ABINIT group
 (those specified in the GNU General Public License, http://www.gnu.org/copyleft/gpl.txt).
 However, it is common practice in the scientific literature,
 to acknowledge the efforts of people that have made the research possible.
 In this spirit, please find below suggested citations of work written by ABINIT developers,
 corresponding to implementations inside of ABINIT that you have used in the present run.
 Note also that it will be of great value to readers of publications presenting these results,
 to read papers enabling them to understand the theoretical formalism and details
 of the ABINIT implementation.
 For information on why they are suggested, see also https://docs.abinit.org/theory/acknowledgments.
-
- [1] Implementation of the Projector Augmented-Wave Method in the ABINIT code.
- M. Torrent, F. Jollet, F. Bottin, G. Zerah, and X. Gonze Comput. Mat. Science 42, 337, (2008).
- Comment: PAW calculations. Strong suggestion to cite this paper.
- DOI and bibtex: see https://docs.abinit.org/theory/bibliography/#torrent2008
-
- [2] Libxc: A library of exchange and correlation functionals for density functional theory.
- M.A.L. Marques, M.J.T. Oliveira, T. Burnus, Computer Physics Communications 183, 2227 (2012).
- Comment: to be cited when LibXC is used (negative value of ixc)
- Strong suggestion to cite this paper.
- DOI and bibtex: see https://docs.abinit.org/theory/bibliography/#marques2012
-
- [3] The Abinit project: Impact, environment and recent developments.
- Computer Phys. Comm. 248, 107042 (2020).
- X.Gonze, B. Amadon, G. Antonius, F.Arnardi, L.Baguet, J.-M.Beuken,
- J.Bieder, F.Bottin, J.Bouchet, E.Bousquet, N.Brouwer, F.Bruneval,
- G.Brunin, T.Cavignac, J.-B. Charraud, Wei Chen, M.Cote, S.Cottenier,
- J.Denier, G.Geneste, Ph.Ghosez, M.Giantomassi, Y.Gillet, O.Gingras,
- D.R.Hamann, G.Hautier, Xu He, N.Helbig, N.Holzwarth, Y.Jia, F.Jollet,
- W.Lafargue-Dit-Hauret, K.Lejaeghere, M.A.L.Marques, A.Martin, C.Martins,
- H.P.C. Miranda, F.Naccarato, K. Persson, G.Petretto, V.Planes, Y.Pouillon,
- S.Prokhorenko, F.Ricci, G.-M.Rignanese, A.H.Romero, M.M.Schmitt, M.Torrent,
- M.J.van Setten, B.Van Troeye, M.J.Verstraete, G.Zerah and J.W.Zwanzig
- Comment: the fifth generic paper describing the ABINIT project.
- Note that a version of this paper, that is not formatted for Computer Phys. Comm. 
- is available at https://www.abinit.org/sites/default/files/ABINIT20.pdf .
- The licence allows the authors to put it on the Web.
- DOI and bibtex: see https://docs.abinit.org/theory/bibliography/#gonze2020
-
- [4] ABINIT: Overview, and focus on selected capabilities
- J. Chem. Phys. 152, 124102 (2020).
- A. Romero, D.C. Allan, B. Amadon, G. Antonius, T. Applencourt, L.Baguet,
- J.Bieder, F.Bottin, J.Bouchet, E.Bousquet, F.Bruneval,
- G.Brunin, D.Caliste, M.Cote,
- J.Denier, C. Dreyer, Ph.Ghosez, M.Giantomassi, Y.Gillet, O.Gingras,
- D.R.Hamann, G.Hautier, F.Jollet, G. Jomard,
- A.Martin, 
- H.P.C. Miranda, F.Naccarato, G.Petretto, N.A. Pike, V.Planes,
- S.Prokhorenko, T. Rangel, F.Ricci, G.-M.Rignanese, M.Royo, M.Stengel, M.Torrent,
- M.J.van Setten, B.Van Troeye, M.J.Verstraete, J.Wiktor, J.W.Zwanziger, and X.Gonze.
- Comment: a global overview of ABINIT, with focus on selected capabilities .
- Note that a version of this paper, that is not formatted for J. Chem. Phys 
- is available at https://www.abinit.org/sites/default/files/ABINIT20_JPC.pdf .
- The licence allows the authors to put it on the Web.
- DOI and bibtex: see https://docs.abinit.org/theory/bibliography/#romero2020
-
- [5] Recent developments in the ABINIT software package.
- Computer Phys. Comm. 205, 106 (2016).
- X.Gonze, F.Jollet, F.Abreu Araujo, D.Adams, B.Amadon, T.Applencourt,
- C.Audouze, J.-M.Beuken, J.Bieder, A.Bokhanchuk, E.Bousquet, F.Bruneval
- D.Caliste, M.Cote, F.Dahm, F.Da Pieve, M.Delaveau, M.Di Gennaro,
- B.Dorado, C.Espejo, G.Geneste, L.Genovese, A.Gerossier, M.Giantomassi,
- Y.Gillet, D.R.Hamann, L.He, G.Jomard, J.Laflamme Janssen, S.Le Roux,
- A.Levitt, A.Lherbier, F.Liu, I.Lukacevic, A.Martin, C.Martins,
- M.J.T.Oliveira, S.Ponce, Y.Pouillon, T.Rangel, G.-M.Rignanese,
- A.H.Romero, B.Rousseau, O.Rubel, A.A.Shukri, M.Stankovski, M.Torrent,
- M.J.Van Setten, B.Van Troeye, M.J.Verstraete, D.Waroquier, J.Wiktor,
- B.Xu, A.Zhou, J.W.Zwanziger.
- Comment: the fourth generic paper describing the ABINIT project.
- Note that a version of this paper, that is not formatted for Computer Phys. Comm. 
- is available at https://www.abinit.org/sites/default/files/ABINIT16.pdf .
- The licence allows the authors to put it on the Web.
- DOI and bibtex: see https://docs.abinit.org/theory/bibliography/#gonze2016
-
- Proc.   0 individual time (sec): cpu=      38721.4  wall=      38791.1

================================================================================

 Calculation completed.
.Delivered   0 WARNINGs and 150 COMMENTs to log file.
+Overall time at end (sec) : cpu=     154885.3  wall=     155164.2
