
.Version 9.2.2 of ABINIT 
.(MPI version, prepared for a x86_64_linux_gnu9.3 computer) 

.Copyright (C) 1998-2020 ABINIT group . 
 ABINIT comes with ABSOLUTELY NO WARRANTY.
 It is free software, and you are welcome to redistribute it
 under certain conditions (GNU General Public License,
 see ~abinit/COPYING or http://www.gnu.org/copyleft/gpl.txt).

 ABINIT is a project of the Universite Catholique de Louvain,
 Corning Inc. and other collaborators, see ~abinit/doc/developers/contributors.txt .
 Please read https://docs.abinit.org/theory/acknowledgments for suggested
 acknowledgments of the ABINIT effort.
 For more information, see https://www.abinit.org .

.Starting date : Sat 15 Jul 2023.
- ( at 04h20 )
  
- The starting date is more than 2 years after the initial release
- of this version of ABINIT, namely Nov 2020.
- Note that the use beyond 3 years after the release will not be supported.
- Action: please, switch to a more recent version of ABINIT.

- input  file    -> Cs2TiI6.in
- output file    -> Cs2TiI6.out
- root for input  files -> Cs2TiI6i
- root for output files -> Cs2TiI6o


 Symmetries : space group I4/m m m (#139); Bravais tI (body-center tetrag.)
================================================================================
 Values of the parameters that define the memory need of the present run
     intxc =       0    ionmov =       0      iscf =      17    lmnmax =       8
     lnmax =       8     mgfft =      60  mpssoang =       4    mqgrid =    3001
     natom =       9  nloc_mem =       1    nspden =       1   nspinor =       1
    nsppol =       1      nsym =      16    n1xccc =    2501    ntypat =       4
    occopt =       1   xclevel =       2
-    mband =          42        mffmem =           1         mkmem =          28
       mpw =        8730          nfft =      216000          nkpt =         163
================================================================================
P This job should need less than                     236.359 Mbytes of memory.
  Rough estimation (10% accuracy) of disk space for files :
_ WF disk file :    911.952 Mbytes ; DEN or POT disk file :      1.650 Mbytes.
================================================================================

--------------------------------------------------------------------------------
------------- Echo of variables that govern the present computation ------------
--------------------------------------------------------------------------------
-
- outvars: echo of selected default values                                      
-   iomode0 =  0 , fftalg0 =112 , wfoptalg0 =  0
-
- outvars: echo of global parameters not present in the input file              
-  max_nthreads =    0
-
 -outvars: echo values of preprocessed input variables --------
            acell      1.4082684460E+01  1.4540279366E+01  1.4082684460E+01 Bohr
              amu      1.32905430E+02  1.26904470E+02  1.78490000E+02
                       3.54527000E+01
           diemac      1.20000000E+01
             ecut      2.00000000E+01 Hartree
-          fftalg         112
             iscf          17
           istwfk        2    0    0    0    0    0    3    0    0    0
                         0    0    0    0    0    0    0    0    0    0
                         0    0    0    0    0    0    0    0    0    0
                         0    0    0    0    0    0    0    0    0    0
                         0    0    7    0    0    0    0    0    0    0
                       outvar_i_n : Printing only first  50 k-points.
              ixc          32
              kpt      0.00000000E+00  0.00000000E+00  0.00000000E+00
                       8.33333333E-02  0.00000000E+00  0.00000000E+00
                       1.66666667E-01  0.00000000E+00  0.00000000E+00
                       2.50000000E-01  0.00000000E+00  0.00000000E+00
                       3.33333333E-01  0.00000000E+00  0.00000000E+00
                       4.16666667E-01  0.00000000E+00  0.00000000E+00
                       5.00000000E-01  0.00000000E+00  0.00000000E+00
                       8.33333333E-02  8.33333333E-02  0.00000000E+00
                       1.66666667E-01  8.33333333E-02  0.00000000E+00
                       2.50000000E-01  8.33333333E-02  0.00000000E+00
                       3.33333333E-01  8.33333333E-02  0.00000000E+00
                       4.16666667E-01  8.33333333E-02  0.00000000E+00
                       5.00000000E-01  8.33333333E-02  0.00000000E+00
                      -4.16666667E-01  8.33333333E-02  0.00000000E+00
                      -3.33333333E-01  8.33333333E-02  0.00000000E+00
                      -2.50000000E-01  8.33333333E-02  0.00000000E+00
                      -1.66666667E-01  8.33333333E-02  0.00000000E+00
                      -8.33333333E-02  8.33333333E-02  0.00000000E+00
                       1.66666667E-01  1.66666667E-01  0.00000000E+00
                       2.50000000E-01  1.66666667E-01  0.00000000E+00
                       3.33333333E-01  1.66666667E-01  0.00000000E+00
                       4.16666667E-01  1.66666667E-01  0.00000000E+00
                       5.00000000E-01  1.66666667E-01  0.00000000E+00
                      -4.16666667E-01  1.66666667E-01  0.00000000E+00
                      -3.33333333E-01  1.66666667E-01  0.00000000E+00
                      -2.50000000E-01  1.66666667E-01  0.00000000E+00
                      -1.66666667E-01  1.66666667E-01  0.00000000E+00
                       2.50000000E-01  2.50000000E-01  0.00000000E+00
                       3.33333333E-01  2.50000000E-01  0.00000000E+00
                       4.16666667E-01  2.50000000E-01  0.00000000E+00
                       5.00000000E-01  2.50000000E-01  0.00000000E+00
                      -4.16666667E-01  2.50000000E-01  0.00000000E+00
                      -3.33333333E-01  2.50000000E-01  0.00000000E+00
                      -2.50000000E-01  2.50000000E-01  0.00000000E+00
                       3.33333333E-01  3.33333333E-01  0.00000000E+00
                       4.16666667E-01  3.33333333E-01  0.00000000E+00
                       5.00000000E-01  3.33333333E-01  0.00000000E+00
                      -4.16666667E-01  3.33333333E-01  0.00000000E+00
                      -3.33333333E-01  3.33333333E-01  0.00000000E+00
                       4.16666667E-01  4.16666667E-01  0.00000000E+00
                       5.00000000E-01  4.16666667E-01  0.00000000E+00
                      -4.16666667E-01  4.16666667E-01  0.00000000E+00
                       5.00000000E-01  5.00000000E-01  0.00000000E+00
                       8.33333333E-02  0.00000000E+00  8.33333333E-02
                       1.66666667E-01  0.00000000E+00  8.33333333E-02
                       2.50000000E-01  0.00000000E+00  8.33333333E-02
                       3.33333333E-01  0.00000000E+00  8.33333333E-02
                       4.16666667E-01  0.00000000E+00  8.33333333E-02
                       5.00000000E-01  0.00000000E+00  8.33333333E-02
                      -4.16666667E-01  0.00000000E+00  8.33333333E-02
                       outvar_i_n : Printing only first  50 k-points.
         kptrlatt       12    0    0      0   12    0      0    0   12
          kptrlen      1.68992214E+02
P           mkmem          28
            natom           9
            nband          42
            ngfft          60      60      60
             nkpt         163
            nstep        2500
             nsym          16
           ntypat           4
              occ      2.000000  2.000000  2.000000  2.000000  2.000000  2.000000
                       2.000000  2.000000  2.000000  2.000000  2.000000  2.000000
                       2.000000  2.000000  2.000000  2.000000  2.000000  2.000000
                       2.000000  2.000000  2.000000  2.000000  2.000000  2.000000
                       2.000000  2.000000  2.000000  2.000000  2.000000  2.000000
                       2.000000  2.000000  2.000000  2.000000  2.000000  2.000000
                       0.000000  0.000000  0.000000  0.000000  0.000000  0.000000
            rprim      0.0000000000E+00  6.8335835763E-01  7.3008311517E-01
                       7.0710678119E-01  0.0000000000E+00  7.0710678119E-01
                       7.3008311517E-01  6.8335835763E-01  0.0000000000E+00
          spgroup         139
           symrel      1  0  0   0  1  0   0  0  1      -1  0  0   0 -1  0   0  0 -1
                       0  0 -1   0 -1  0  -1  0  0       0  0  1   0  1  0   1  0  0
                       0 -1  1   0 -1  0   1 -1  0       0  1 -1   0  1  0  -1  1  0
                      -1  1  0   0  1  0   0  1 -1       1 -1  0   0 -1  0   0 -1  1
                       0 -1  1  -1  0  1   0  0  1       0  1 -1   1  0 -1   0  0 -1
                       0  0 -1   1  0 -1   0  1 -1       0  0  1  -1  0  1   0 -1  1
                       1  0  0   1  0 -1   1 -1  0      -1  0  0  -1  0  1  -1  1  0
                      -1  1  0  -1  0  1  -1  0  0       1 -1  0   1  0 -1   1  0  0
           toldfe      1.00000000E-08 Hartree
            typat      1  1  2  4  4  2  4  4  3
              wtk        0.00058    0.00463    0.00463    0.00463    0.00463    0.00463
                         0.00231    0.00231    0.00926    0.00926    0.00926    0.00926
                         0.00926    0.00926    0.00926    0.00926    0.00926    0.00463
                         0.00231    0.00926    0.00926    0.00926    0.00926    0.00926
                         0.00926    0.00926    0.00463    0.00231    0.00926    0.00926
                         0.00926    0.00926    0.00926    0.00463    0.00231    0.00926
                         0.00926    0.00926    0.00463    0.00231    0.00926    0.00463
                         0.00116    0.00116    0.00463    0.00463    0.00463    0.00463
                         0.00463    0.00463
                       outvars : Printing only first  50 k-points.
           xangst      2.7203757098E+00  2.5462737579E+00  2.7203757098E+00
                       8.1611271295E+00  7.6388212737E+00  8.1611271295E+00
                       5.4407514197E+00  7.3383797804E+00  5.4407514197E+00
                       5.4407514197E+00  5.0925475158E+00  2.4453772674E+00
                       5.4407514196E+00  5.0925475158E+00  8.4361255720E+00
                       5.4407514196E+00  2.8467152512E+00  5.4407514196E+00
                       8.4361255720E+00  5.0925475158E+00  5.4407514196E+00
                       2.4453772674E+00  5.0925475158E+00  5.4407514197E+00
                       3.3221018283E-20 -2.8599255361E-20  1.2893100957E-20
            xcart      5.1407650702E+00  4.8117600618E+00  5.1407650702E+00
                       1.5422295210E+01  1.4435280185E+01  1.5422295210E+01
                       1.0281530140E+01  1.3867528044E+01  1.0281530140E+01
                       1.0281530140E+01  9.6235201236E+00  4.6210933269E+00
                       1.0281530140E+01  9.6235201236E+00  1.5941966954E+01
                       1.0281530140E+01  5.3795122031E+00  1.0281530140E+01
                       1.5941966954E+01  9.6235201236E+00  1.0281530140E+01
                       4.6210933269E+00  9.6235201236E+00  1.0281530140E+01
                       6.2778626411E-20 -5.4044760237E-20  2.4364429812E-20
             xred      2.5000000000E-01  2.5000000000E-01  2.5000000000E-01
                       7.5000000000E-01  7.5000000000E-01  7.5000000000E-01
                       7.2050184683E-01  2.7949815317E-01  7.2050184683E-01
                       2.2472789866E-01  2.2472789866E-01  7.7527210134E-01
                       7.7527210134E-01  7.7527210134E-01  2.2472789866E-01
                       2.7949815317E-01  7.2050184683E-01  2.7949815317E-01
                       2.2472789866E-01  7.7527210134E-01  7.7527210134E-01
                       7.7527210134E-01  2.2472789866E-01  2.2472789866E-01
                      -4.6760684583E-21  7.0457964542E-21 -9.3983503057E-22
            znucl       55.00000   53.00000   72.00000   17.00000

================================================================================

 chkinp: Checking input parameters for consistency.

================================================================================
== DATASET  1 ==================================================================
-   mpi_nproc: 6, omp_nthreads: -1 (-1 if OMP is not activated)


--- !DatasetInfo
iteration_state: {dtset: 1, }
dimensions: {natom: 9, nkpt: 163, mband: 42, nsppol: 1, nspinor: 1, nspden: 1, mpw: 8730, }
cutoff_energies: {ecut:  20.0, pawecutdg:  -1.0, }
electrons: {nelect:   7.20000000E+01, charge:   0.00000000E+00, occopt:   1.00000000E+00, tsmear:   1.00000000E-02, }
meta: {optdriver: 0, ionmov: 0, optcell: 0, iscf: 17, paral_kgb: 0, }
...

 Exchange-correlation functional for the present dataset will be:
  Meta-GGA fake2 - ixc=32

 Real(R)+Recip(G) space primitive vectors, cartesian coordinates (Bohr,Bohr^-1):
 R(1)=  0.0000000  9.6235201 10.2815301  G(1)= -0.0486309  0.0519560  0.0486309
 R(2)= 10.2815301  0.0000000 10.2815301  G(2)=  0.0486309 -0.0519560  0.0486309
 R(3)= 10.2815301  9.6235201  0.0000000  G(3)=  0.0486309  0.0519560 -0.0486309
 Unit cell volume ucvol=  2.0346020E+03 bohr^3
 Angles (23,13,12)=  5.89191759E+01  6.21616481E+01  5.89191759E+01 degrees

 getcut: wavevector=  0.0000  0.0000  0.0000  ngfft=  60  60  60
         ecut(hartree)=     20.000   => boxcut(ratio)=   2.04974

--- Pseudopotential description ------------------------------------------------
- pspini: atom type   1  psp file is ../../../Psps_for_tests/ONCVPSP-PBE-PDv0.4/Cs-sp.psp8
- pspatm: opening atomic psp file    ../../../Psps_for_tests/ONCVPSP-PBE-PDv0.4/Cs-sp.psp8
- Cs    ONCVPSP-3.2.3.1  r_core=   2.27353   1.85623   2.01788   1.90105
- 55.00000   9.00000    170703                znucl, zion, pspdat
    8   32    3    4       600   0.00000      pspcod,pspxc,lmax,lloc,mmax,r2well
    5.99000000000000    5.00000000000000    0.00000000000000   rchrg,fchrg,qchrg
     nproj     2     2     2     2
     extension_switch     1
  pspatm : epsatm=   22.81663475
         --- l  ekb(1:nproj) -->
             0    6.176104    0.756334
             1    6.263084    0.786397
             2    3.737592    0.906929
             3   -9.272327   -2.535859
 pspatm: atomic psp has been read  and splines computed

- pspini: atom type   2  psp file is ../../../Psps_for_tests/ONCVPSP-PBE-PDv0.4/I.psp8
- pspatm: opening atomic psp file    ../../../Psps_for_tests/ONCVPSP-PBE-PDv0.4/I.psp8
- I     ONCVPSP-3.2.3.1  r_core=   2.02042   2.17032   2.27639
- 53.00000   7.00000    170510                znucl, zion, pspdat
    8   32    2    4       600   0.00000      pspcod,pspxc,lmax,lloc,mmax,r2well
    5.99000000000000    4.00000000000000    0.00000000000000   rchrg,fchrg,qchrg
     nproj     2     2     2
     extension_switch     1
  pspatm : epsatm=   19.17050482
         --- l  ekb(1:nproj) -->
             0    5.955518    0.916455
             1    4.011347    0.742302
             2    4.134838    0.711910
 pspatm: atomic psp has been read  and splines computed

- pspini: atom type   3  psp file is ../../../Psps_for_tests/ONCVPSP-PBE-PDv0.4/Hf-sp.psp8
- pspatm: opening atomic psp file    ../../../Psps_for_tests/ONCVPSP-PBE-PDv0.4/Hf-sp.psp8
- Hf    ONCVPSP-3.2.3.1  r_core=   1.71613   1.71613   1.71613   2.42541
- 72.00000  12.00000    170501                znucl, zion, pspdat
    8   32    3    4       600   0.00000      pspcod,pspxc,lmax,lloc,mmax,r2well
    5.99000000000000    5.40000000000000    0.00000000000000   rchrg,fchrg,qchrg
     nproj     2     2     2     2
     extension_switch     1
  pspatm : epsatm=   21.94432712
         --- l  ekb(1:nproj) -->
             0    5.751490   -0.631383
             1   -2.986358    2.305386
             2    1.422276    0.146986
             3    8.827595    0.343102
 pspatm: atomic psp has been read  and splines computed

- pspini: atom type   4  psp file is ../../../Psps_for_tests/ONCVPSP-PBE-PDv0.4/Cl.psp8
- pspatm: opening atomic psp file    ../../../Psps_for_tests/ONCVPSP-PBE-PDv0.4/Cl.psp8
- Cl    ONCVPSP-3.2.3.1  r_core=   1.56009   1.35202   1.75774
- 17.00000   7.00000    170504                znucl, zion, pspdat
    8   32    2    4       600   0.00000      pspcod,pspxc,lmax,lloc,mmax,r2well
    5.99000000000000    8.00000000000000    0.00000000000000   rchrg,fchrg,qchrg
     nproj     2     2     2
     extension_switch     1
  pspatm : epsatm=    9.12776994
         --- l  ekb(1:nproj) -->
             0    8.139296    0.698720
             1    3.821713    1.107519
             2   -2.938609   -0.805455
 pspatm: atomic psp has been read  and splines computed

   1.02549374E+04                                ecore*ucvol(ha*bohr**3)
--------------------------------------------------------------------------------

_setup2: Arith. and geom. avg. npw (full set) are    8691.901    8691.895

================================================================================

--- !BeginCycle
iteration_state: {dtset: 1, }
solver: {iscf: 17, nstep: 2500, nline: 4, wfoptalg: 0, }
tolerances: {toldfe: 1.00E-08, }
...

     iter   Etot(hartree)      deltaE(h)  residm     nres2
 ETOT  1  -195.86390787462    -1.959E+02 2.758E-02 3.038E+00
 ETOT  2  -195.91012321360    -4.622E-02 2.246E-02 1.217E+00
 ETOT  3  -195.89842438068     1.170E-02 3.312E-03 5.413E-02
 ETOT  4  -195.89776820827     6.562E-04 4.241E-03 1.006E-02
 ETOT  5  -195.89763991099     1.283E-04 2.663E-03 1.581E-04
 ETOT  6  -195.89764071139    -8.004E-07 2.055E-03 1.367E-05
 ETOT  7  -195.89764080845    -9.706E-08 2.074E-03 5.732E-07
 ETOT  8  -195.89764081184    -3.394E-09 1.106E-03 6.367E-08
 ETOT  9  -195.89764081170     1.428E-10 1.163E-03 5.067E-09

 At SCF step    9, etot is converged : 
  for the second time, diff in etot=  1.428E-10 < toldfe=  1.000E-08

 Cartesian components of stress tensor (hartree/bohr^3)
  sigma(1 1)= -1.02734718E-03  sigma(3 2)= -3.14372690E-14
  sigma(2 2)= -1.03752429E-03  sigma(3 1)=  5.88506943E-14
  sigma(3 3)= -1.02734718E-03  sigma(2 1)= -3.14378184E-14


--- !ResultsGS
iteration_state: {dtset: 1, }
comment   : Summary of ground state results
lattice_vectors:
- [  0.0000000,   9.6235201,  10.2815301, ]
- [ 10.2815301,   0.0000000,  10.2815301, ]
- [ 10.2815301,   9.6235201,   0.0000000, ]
lattice_lengths: [  14.08268,   14.54028,   14.08268, ]
lattice_angles: [ 58.919,  62.162,  58.919, ] # degrees, (23, 13, 12)
lattice_volume:   2.0346020E+03
convergence: {deltae:  1.428E-10, res2:  5.067E-09, residm:  1.163E-03, diffor: null, }
etotal    :  -1.95897641E+02
entropy   :   0.00000000E+00
fermie    :   6.47662206E-02
cartesian_stress_tensor: # hartree/bohr^3
- [ -1.02734718E-03,  -3.14378184E-14,   5.88506943E-14, ]
- [ -3.14378184E-14,  -1.03752429E-03,  -3.14372690E-14, ]
- [  5.88506943E-14,  -3.14372690E-14,  -1.02734718E-03, ]
pressure_GPa:   3.0325E+01
xred      :
- [  2.5000E-01,   2.5000E-01,   2.5000E-01, Cs]
- [  7.5000E-01,   7.5000E-01,   7.5000E-01, Cs]
- [  7.2050E-01,   2.7950E-01,   7.2050E-01,  I]
- [  2.2473E-01,   2.2473E-01,   7.7527E-01, Cl]
- [  7.7527E-01,   7.7527E-01,   2.2473E-01, Cl]
- [  2.7950E-01,   7.2050E-01,   2.7950E-01,  I]
- [  2.2473E-01,   7.7527E-01,   7.7527E-01, Cl]
- [  7.7527E-01,   2.2473E-01,   2.2473E-01, Cl]
- [ -4.6761E-21,   7.0458E-21,  -9.3984E-22, Hf]
cartesian_forces: # hartree/bohr
- [ -4.12479093E-28,  -8.18410226E-28,   9.08211115E-20, ]
- [ -1.09994425E-27,  -2.14045751E-27,   9.08211128E-20, ]
- [ -3.43894159E-20,   1.54567379E-03,   1.25210527E-19, ]
- [ -7.68724414E-14,   8.21284606E-14,  -3.78785280E-03, ]
- [  7.68723452E-14,  -8.21283875E-14,   3.78785280E-03, ]
- [ -4.99717372E-20,  -1.54567379E-03,   1.40792848E-19, ]
- [  3.78785280E-03,  -8.21280269E-14,   7.68720985E-14, ]
- [ -3.78785280E-03,   8.21280269E-14,  -7.68719169E-14, ]
- [ -0.00000000E+00,  -0.00000000E+00,   9.08211112E-20, ]
force_length_stats: {min:   9.08211112E-20, max:   3.78785280E-03, mean:   2.02697320E-03, }
...

 Integrated electronic density in atomic spheres:
 ------------------------------------------------
 Atom  Sphere_radius  Integrated_density
    1        2.00000          4.49908640
    2        2.00000          4.49908640
    3        2.00000          2.86504199
    4        2.00000          5.01764694
    5        2.00000          5.01764694
    6        2.00000          2.86504199
    7        2.00000          5.01764694
    8        2.00000          5.01764694
    9        2.00000          8.33248477
================================================================================

 ----iterations are completed or convergence reached----

 Mean square residual over all n,k,spin=   29.752E-07; max=  11.631E-04
 reduced coordinates (array xred) for    9 atoms
       0.250000000000      0.250000000000      0.250000000000
       0.750000000000      0.750000000000      0.750000000000
       0.720501846830      0.279498153170      0.720501846830
       0.224727898660      0.224727898660      0.775272101340
       0.775272101340      0.775272101340      0.224727898660
       0.279498153170      0.720501846830      0.279498153170
       0.224727898660      0.775272101340      0.775272101340
       0.775272101340      0.224727898660      0.224727898660
      -0.000000000000      0.000000000000     -0.000000000000
 rms dE/dt=  2.1958E-02; max dE/dt=  3.8945E-02; dE/dt below (all hartree)
    1       0.000000000000      0.000000000000      0.000000000000
    2       0.000000000000     -0.000000000000      0.000000000000
    3      -0.014874822849      0.000000000000     -0.014874822849
    4       0.038944922724      0.038944922724      0.000000000000
    5      -0.038944922724     -0.038944922724      0.000000000000
    6       0.014874822849      0.000000000000      0.014874822849
    7       0.000000000000     -0.038944922724     -0.038944922724
    8      -0.000000000000      0.038944922724      0.038944922724
    9       0.000000000000      0.000000000000      0.000000000000

 cartesian coordinates (angstrom) at end:
    1      2.72037570984009     2.54627375791005     2.72037570984009
    2      8.16112712952026     7.63882127373016     8.16112712952027
    3      5.44075141972887     7.33837978043583     5.44075141972887
    4      5.44075141974097     5.09254751582011     2.44537726735228
    5      5.44075141961939     5.09254751582011     8.43612557200808
    6      5.44075141963148     2.84671525120438     5.44075141963148
    7      8.43612557200808     5.09254751582011     5.44075141961939
    8      2.44537726735228     5.09254751582011     5.44075141974097
    9      0.00000000000000    -0.00000000000000     0.00000000000000

 cartesian forces (hartree/bohr) at end:
    1     -0.00000000000000    -0.00000000000000     0.00000000000000
    2     -0.00000000000000    -0.00000000000000     0.00000000000000
    3     -0.00000000000000     0.00154567379271     0.00000000000000
    4     -0.00000000000008     0.00000000000008    -0.00378785279939
    5      0.00000000000008    -0.00000000000008     0.00378785279939
    6     -0.00000000000000    -0.00154567379271     0.00000000000000
    7      0.00378785279939    -0.00000000000008     0.00000000000008
    8     -0.00378785279939     0.00000000000008    -0.00000000000008
    9     -0.00000000000000    -0.00000000000000     0.00000000000000
 frms,max,avg= 1.5174239E-03 3.7878528E-03   0.000E+00  0.000E+00  0.000E+00 h/b

 cartesian forces (eV/Angstrom) at end:
    1     -0.00000000000000    -0.00000000000000     0.00000000000000
    2     -0.00000000000000    -0.00000000000000     0.00000000000000
    3     -0.00000000000000     0.07948173544348     0.00000000000000
    4     -0.00000000000395     0.00000000000422    -0.19477920601306
    5      0.00000000000395    -0.00000000000422     0.19477920601306
    6     -0.00000000000000    -0.07948173544348     0.00000000000000
    7      0.19477920601306    -0.00000000000422     0.00000000000395
    8     -0.19477920601306     0.00000000000422    -0.00000000000395
    9     -0.00000000000000    -0.00000000000000     0.00000000000000
 frms,max,avg= 7.8029066E-02 1.9477921E-01   0.000E+00  0.000E+00  0.000E+00 e/A
 length scales= 14.082684460000 14.540279366000 14.082684460000 bohr
              =  7.452235651997  7.694384447019  7.452235651997 angstroms
 prteigrs : about to open file Cs2TiI6o_EIG
 Fermi (or HOMO) energy (hartree) =   0.06477   Average Vxc (hartree)=  -0.32758
 Eigenvalues (hartree) for nkpt= 163  k points:
 kpt#   1, nband= 42, wtk=  0.00058, kpt=  0.0000  0.0000  0.0000 (reduced coord)
  -2.24061   -1.06546   -1.06546   -1.06347   -0.66409   -0.66344   -0.46303   -0.44874
  -0.44565   -0.44565   -0.33853   -0.33364   -0.19010   -0.18911   -0.18911   -0.18429
  -0.18429   -0.18197   -0.10207   -0.05572   -0.04640   -0.04166   -0.04166   -0.03536
  -0.03536   -0.03273   -0.00378   -0.00376    0.00195    0.00195    0.01816    0.05698
   0.05698    0.05888    0.06477    0.06477    0.16605    0.16605    0.17683    0.22437
   0.23182    0.23699
 prteigrs : prtvol=0 or 1, do not print more k-points.


--- !EnergyTerms
iteration_state     : {dtset: 1, }
comment             : Components of total free energy in Hartree
kinetic             :  5.30291389909549E+01
hartree             :  3.86438954056849E+01
xc                  : -5.46634957672844E+01
Ewald energy        : -1.27485263293419E+02
psp_core            :  5.04026711341956E+00
local_psp           : -1.32741867459919E+02
non_local_psp       :  2.22796935768291E+01
total_energy        : -1.95897631433734E+02
...


--- !EnergyTermsDC
iteration_state     : {dtset: 1, }
comment             : '"Double-counting" decomposition of free energy'
band_energy         : -2.10304664969596E+01
Ewald energy        : -1.27485263293419E+02
psp_core            :  5.04026711341956E+00
xc_dc               : -5.24221781347419E+01
total_energy_dc     : -1.95897640811701E+02
...


 Cartesian components of stress tensor (hartree/bohr^3)
  sigma(1 1)= -1.02734718E-03  sigma(3 2)= -3.14372690E-14
  sigma(2 2)= -1.03752429E-03  sigma(3 1)=  5.88506943E-14
  sigma(3 3)= -1.02734718E-03  sigma(2 1)= -3.14378184E-14

-Cartesian components of stress tensor (GPa)         [Pressure=  3.0325E+01 GPa]
- sigma(1 1)= -3.02255926E+01  sigma(3 2)= -9.24916230E-10
- sigma(2 2)= -3.05250133E+01  sigma(3 1)=  1.73144691E-09
- sigma(3 3)= -3.02255926E+01  sigma(2 1)= -9.24932394E-10

== END DATASET(S) ==============================================================
================================================================================
  
 -outvars: echo values of variables after computation  --------
            acell      1.4082684460E+01  1.4540279366E+01  1.4082684460E+01 Bohr
              amu      1.32905430E+02  1.26904470E+02  1.78490000E+02
                       3.54527000E+01
           diemac      1.20000000E+01
             ecut      2.00000000E+01 Hartree
           etotal     -1.9589764081E+02
            fcart     -4.1247909295E-28 -8.1841022584E-28  9.0821111454E-20
                      -1.0999442478E-27 -2.1404575137E-27  9.0821112770E-20
                      -3.4389415870E-20  1.5456737927E-03  1.2521052707E-19
                      -7.6872441409E-14  8.2128460630E-14 -3.7878527994E-03
                       7.6872345172E-14 -8.2128387467E-14  3.7878527994E-03
                      -4.9971737201E-20 -1.5456737927E-03  1.4079284840E-19
                       3.7878527994E-03 -8.2128026949E-14  7.6872098549E-14
                      -3.7878527994E-03  8.2128026949E-14 -7.6871916907E-14
                      -0.0000000000E+00 -0.0000000000E+00  9.0821111199E-20
-          fftalg         112
             iscf          17
           istwfk        2    0    0    0    0    0    3    0    0    0
                         0    0    0    0    0    0    0    0    0    0
                         0    0    0    0    0    0    0    0    0    0
                         0    0    0    0    0    0    0    0    0    0
                         0    0    7    0    0    0    0    0    0    0
                       outvar_i_n : Printing only first  50 k-points.
              ixc          32
              kpt      0.00000000E+00  0.00000000E+00  0.00000000E+00
                       8.33333333E-02  0.00000000E+00  0.00000000E+00
                       1.66666667E-01  0.00000000E+00  0.00000000E+00
                       2.50000000E-01  0.00000000E+00  0.00000000E+00
                       3.33333333E-01  0.00000000E+00  0.00000000E+00
                       4.16666667E-01  0.00000000E+00  0.00000000E+00
                       5.00000000E-01  0.00000000E+00  0.00000000E+00
                       8.33333333E-02  8.33333333E-02  0.00000000E+00
                       1.66666667E-01  8.33333333E-02  0.00000000E+00
                       2.50000000E-01  8.33333333E-02  0.00000000E+00
                       3.33333333E-01  8.33333333E-02  0.00000000E+00
                       4.16666667E-01  8.33333333E-02  0.00000000E+00
                       5.00000000E-01  8.33333333E-02  0.00000000E+00
                      -4.16666667E-01  8.33333333E-02  0.00000000E+00
                      -3.33333333E-01  8.33333333E-02  0.00000000E+00
                      -2.50000000E-01  8.33333333E-02  0.00000000E+00
                      -1.66666667E-01  8.33333333E-02  0.00000000E+00
                      -8.33333333E-02  8.33333333E-02  0.00000000E+00
                       1.66666667E-01  1.66666667E-01  0.00000000E+00
                       2.50000000E-01  1.66666667E-01  0.00000000E+00
                       3.33333333E-01  1.66666667E-01  0.00000000E+00
                       4.16666667E-01  1.66666667E-01  0.00000000E+00
                       5.00000000E-01  1.66666667E-01  0.00000000E+00
                      -4.16666667E-01  1.66666667E-01  0.00000000E+00
                      -3.33333333E-01  1.66666667E-01  0.00000000E+00
                      -2.50000000E-01  1.66666667E-01  0.00000000E+00
                      -1.66666667E-01  1.66666667E-01  0.00000000E+00
                       2.50000000E-01  2.50000000E-01  0.00000000E+00
                       3.33333333E-01  2.50000000E-01  0.00000000E+00
                       4.16666667E-01  2.50000000E-01  0.00000000E+00
                       5.00000000E-01  2.50000000E-01  0.00000000E+00
                      -4.16666667E-01  2.50000000E-01  0.00000000E+00
                      -3.33333333E-01  2.50000000E-01  0.00000000E+00
                      -2.50000000E-01  2.50000000E-01  0.00000000E+00
                       3.33333333E-01  3.33333333E-01  0.00000000E+00
                       4.16666667E-01  3.33333333E-01  0.00000000E+00
                       5.00000000E-01  3.33333333E-01  0.00000000E+00
                      -4.16666667E-01  3.33333333E-01  0.00000000E+00
                      -3.33333333E-01  3.33333333E-01  0.00000000E+00
                       4.16666667E-01  4.16666667E-01  0.00000000E+00
                       5.00000000E-01  4.16666667E-01  0.00000000E+00
                      -4.16666667E-01  4.16666667E-01  0.00000000E+00
                       5.00000000E-01  5.00000000E-01  0.00000000E+00
                       8.33333333E-02  0.00000000E+00  8.33333333E-02
                       1.66666667E-01  0.00000000E+00  8.33333333E-02
                       2.50000000E-01  0.00000000E+00  8.33333333E-02
                       3.33333333E-01  0.00000000E+00  8.33333333E-02
                       4.16666667E-01  0.00000000E+00  8.33333333E-02
                       5.00000000E-01  0.00000000E+00  8.33333333E-02
                      -4.16666667E-01  0.00000000E+00  8.33333333E-02
                       outvar_i_n : Printing only first  50 k-points.
         kptrlatt       12    0    0      0   12    0      0    0   12
          kptrlen      1.68992214E+02
P           mkmem          28
            natom           9
            nband          42
            ngfft          60      60      60
             nkpt         163
            nstep        2500
             nsym          16
           ntypat           4
              occ      2.000000  2.000000  2.000000  2.000000  2.000000  2.000000
                       2.000000  2.000000  2.000000  2.000000  2.000000  2.000000
                       2.000000  2.000000  2.000000  2.000000  2.000000  2.000000
                       2.000000  2.000000  2.000000  2.000000  2.000000  2.000000
                       2.000000  2.000000  2.000000  2.000000  2.000000  2.000000
                       2.000000  2.000000  2.000000  2.000000  2.000000  2.000000
                       0.000000  0.000000  0.000000  0.000000  0.000000  0.000000
            rprim      0.0000000000E+00  6.8335835763E-01  7.3008311517E-01
                       7.0710678119E-01  0.0000000000E+00  7.0710678119E-01
                       7.3008311517E-01  6.8335835763E-01  0.0000000000E+00
          spgroup         139
           strten     -1.0273471849E-03 -1.0375242900E-03 -1.0273471849E-03
                      -3.1437268987E-14  5.8850694340E-14 -3.1437818365E-14
           symrel      1  0  0   0  1  0   0  0  1      -1  0  0   0 -1  0   0  0 -1
                       0  0 -1   0 -1  0  -1  0  0       0  0  1   0  1  0   1  0  0
                       0 -1  1   0 -1  0   1 -1  0       0  1 -1   0  1  0  -1  1  0
                      -1  1  0   0  1  0   0  1 -1       1 -1  0   0 -1  0   0 -1  1
                       0 -1  1  -1  0  1   0  0  1       0  1 -1   1  0 -1   0  0 -1
                       0  0 -1   1  0 -1   0  1 -1       0  0  1  -1  0  1   0 -1  1
                       1  0  0   1  0 -1   1 -1  0      -1  0  0  -1  0  1  -1  1  0
                      -1  1  0  -1  0  1  -1  0  0       1 -1  0   1  0 -1   1  0  0
           toldfe      1.00000000E-08 Hartree
            typat      1  1  2  4  4  2  4  4  3
              wtk        0.00058    0.00463    0.00463    0.00463    0.00463    0.00463
                         0.00231    0.00231    0.00926    0.00926    0.00926    0.00926
                         0.00926    0.00926    0.00926    0.00926    0.00926    0.00463
                         0.00231    0.00926    0.00926    0.00926    0.00926    0.00926
                         0.00926    0.00926    0.00463    0.00231    0.00926    0.00926
                         0.00926    0.00926    0.00926    0.00463    0.00231    0.00926
                         0.00926    0.00926    0.00463    0.00231    0.00926    0.00463
                         0.00116    0.00116    0.00463    0.00463    0.00463    0.00463
                         0.00463    0.00463
                       outvars : Printing only first  50 k-points.
           xangst      2.7203757098E+00  2.5462737579E+00  2.7203757098E+00
                       8.1611271295E+00  7.6388212737E+00  8.1611271295E+00
                       5.4407514197E+00  7.3383797804E+00  5.4407514197E+00
                       5.4407514197E+00  5.0925475158E+00  2.4453772674E+00
                       5.4407514196E+00  5.0925475158E+00  8.4361255720E+00
                       5.4407514196E+00  2.8467152512E+00  5.4407514196E+00
                       8.4361255720E+00  5.0925475158E+00  5.4407514196E+00
                       2.4453772674E+00  5.0925475158E+00  5.4407514197E+00
                       3.3221018283E-20 -2.8599255361E-20  1.2893100957E-20
            xcart      5.1407650702E+00  4.8117600618E+00  5.1407650702E+00
                       1.5422295210E+01  1.4435280185E+01  1.5422295210E+01
                       1.0281530140E+01  1.3867528044E+01  1.0281530140E+01
                       1.0281530140E+01  9.6235201236E+00  4.6210933269E+00
                       1.0281530140E+01  9.6235201236E+00  1.5941966954E+01
                       1.0281530140E+01  5.3795122031E+00  1.0281530140E+01
                       1.5941966954E+01  9.6235201236E+00  1.0281530140E+01
                       4.6210933269E+00  9.6235201236E+00  1.0281530140E+01
                       6.2778626411E-20 -5.4044760237E-20  2.4364429812E-20
             xred      2.5000000000E-01  2.5000000000E-01  2.5000000000E-01
                       7.5000000000E-01  7.5000000000E-01  7.5000000000E-01
                       7.2050184683E-01  2.7949815317E-01  7.2050184683E-01
                       2.2472789866E-01  2.2472789866E-01  7.7527210134E-01
                       7.7527210134E-01  7.7527210134E-01  2.2472789866E-01
                       2.7949815317E-01  7.2050184683E-01  2.7949815317E-01
                       2.2472789866E-01  7.7527210134E-01  7.7527210134E-01
                       7.7527210134E-01  2.2472789866E-01  2.2472789866E-01
                      -4.6760684583E-21  7.0457964542E-21 -9.3983503057E-22
            znucl       55.00000   53.00000   72.00000   17.00000

================================================================================


- Timing analysis has been suppressed with timopt=0



================================================================================

 Suggested references for the acknowledgment of ABINIT usage.

 The users of ABINIT have little formal obligations with respect to the ABINIT group
 (those specified in the GNU General Public License, http://www.gnu.org/copyleft/gpl.txt).
 However, it is common practice in the scientific literature,
 to acknowledge the efforts of people that have made the research possible.
 In this spirit, please find below suggested citations of work written by ABINIT developers,
 corresponding to implementations inside of ABINIT that you have used in the present run.
 Note also that it will be of great value to readers of publications presenting these results,
 to read papers enabling them to understand the theoretical formalism and details
 of the ABINIT implementation.
 For information on why they are suggested, see also https://docs.abinit.org/theory/acknowledgments.
-
- [1] The Abinit project: Impact, environment and recent developments.
- Computer Phys. Comm. 248, 107042 (2020).
- X.Gonze, B. Amadon, G. Antonius, F.Arnardi, L.Baguet, J.-M.Beuken,
- J.Bieder, F.Bottin, J.Bouchet, E.Bousquet, N.Brouwer, F.Bruneval,
- G.Brunin, T.Cavignac, J.-B. Charraud, Wei Chen, M.Cote, S.Cottenier,
- J.Denier, G.Geneste, Ph.Ghosez, M.Giantomassi, Y.Gillet, O.Gingras,
- D.R.Hamann, G.Hautier, Xu He, N.Helbig, N.Holzwarth, Y.Jia, F.Jollet,
- W.Lafargue-Dit-Hauret, K.Lejaeghere, M.A.L.Marques, A.Martin, C.Martins,
- H.P.C. Miranda, F.Naccarato, K. Persson, G.Petretto, V.Planes, Y.Pouillon,
- S.Prokhorenko, F.Ricci, G.-M.Rignanese, A.H.Romero, M.M.Schmitt, M.Torrent,
- M.J.van Setten, B.Van Troeye, M.J.Verstraete, G.Zerah and J.W.Zwanzig
- Comment: the fifth generic paper describing the ABINIT project.
- Note that a version of this paper, that is not formatted for Computer Phys. Comm. 
- is available at https://www.abinit.org/sites/default/files/ABINIT20.pdf .
- The licence allows the authors to put it on the Web.
- DOI and bibtex: see https://docs.abinit.org/theory/bibliography/#gonze2020
-
- [2] Optimized norm-conserving Vanderbilt pseudopotentials.
- D.R. Hamann, Phys. Rev. B 88, 085117 (2013).
- Comment: Some pseudopotential generated using the ONCVPSP code were used.
- DOI and bibtex: see https://docs.abinit.org/theory/bibliography/#hamann2013
-
- [3] ABINIT: Overview, and focus on selected capabilities
- J. Chem. Phys. 152, 124102 (2020).
- A. Romero, D.C. Allan, B. Amadon, G. Antonius, T. Applencourt, L.Baguet,
- J.Bieder, F.Bottin, J.Bouchet, E.Bousquet, F.Bruneval,
- G.Brunin, D.Caliste, M.Cote,
- J.Denier, C. Dreyer, Ph.Ghosez, M.Giantomassi, Y.Gillet, O.Gingras,
- D.R.Hamann, G.Hautier, F.Jollet, G. Jomard,
- A.Martin, 
- H.P.C. Miranda, F.Naccarato, G.Petretto, N.A. Pike, V.Planes,
- S.Prokhorenko, T. Rangel, F.Ricci, G.-M.Rignanese, M.Royo, M.Stengel, M.Torrent,
- M.J.van Setten, B.Van Troeye, M.J.Verstraete, J.Wiktor, J.W.Zwanziger, and X.Gonze.
- Comment: a global overview of ABINIT, with focus on selected capabilities .
- Note that a version of this paper, that is not formatted for J. Chem. Phys 
- is available at https://www.abinit.org/sites/default/files/ABINIT20_JPC.pdf .
- The licence allows the authors to put it on the Web.
- DOI and bibtex: see https://docs.abinit.org/theory/bibliography/#romero2020
-
- [4] Recent developments in the ABINIT software package.
- Computer Phys. Comm. 205, 106 (2016).
- X.Gonze, F.Jollet, F.Abreu Araujo, D.Adams, B.Amadon, T.Applencourt,
- C.Audouze, J.-M.Beuken, J.Bieder, A.Bokhanchuk, E.Bousquet, F.Bruneval
- D.Caliste, M.Cote, F.Dahm, F.Da Pieve, M.Delaveau, M.Di Gennaro,
- B.Dorado, C.Espejo, G.Geneste, L.Genovese, A.Gerossier, M.Giantomassi,
- Y.Gillet, D.R.Hamann, L.He, G.Jomard, J.Laflamme Janssen, S.Le Roux,
- A.Levitt, A.Lherbier, F.Liu, I.Lukacevic, A.Martin, C.Martins,
- M.J.T.Oliveira, S.Ponce, Y.Pouillon, T.Rangel, G.-M.Rignanese,
- A.H.Romero, B.Rousseau, O.Rubel, A.A.Shukri, M.Stankovski, M.Torrent,
- M.J.Van Setten, B.Van Troeye, M.J.Verstraete, D.Waroquier, J.Wiktor,
- B.Xu, A.Zhou, J.W.Zwanziger.
- Comment: the fourth generic paper describing the ABINIT project.
- Note that a version of this paper, that is not formatted for Computer Phys. Comm. 
- is available at https://www.abinit.org/sites/default/files/ABINIT16.pdf .
- The licence allows the authors to put it on the Web.
- DOI and bibtex: see https://docs.abinit.org/theory/bibliography/#gonze2016
-
- And optionally:
-
- [5] ABINIT: First-principles approach of materials and nanosystem properties.
- Computer Phys. Comm. 180, 2582-2615 (2009).
- X. Gonze, B. Amadon, P.-M. Anglade, J.-M. Beuken, F. Bottin, P. Boulanger, F. Bruneval,
- D. Caliste, R. Caracas, M. Cote, T. Deutsch, L. Genovese, Ph. Ghosez, M. Giantomassi
- S. Goedecker, D.R. Hamann, P. Hermet, F. Jollet, G. Jomard, S. Leroux, M. Mancini, S. Mazevet,
- M.J.T. Oliveira, G. Onida, Y. Pouillon, T. Rangel, G.-M. Rignanese, D. Sangalli, R. Shaltaf,
- M. Torrent, M.J. Verstraete, G. Zerah, J.W. Zwanziger
- Comment: the third generic paper describing the ABINIT project.
- Note that a version of this paper, that is not formatted for Computer Phys. Comm. 
- is available at https://www.abinit.org/sites/default/files/ABINIT_CPC_v10.pdf .
- The licence allows the authors to put it on the Web.
- DOI and bibtex: see https://docs.abinit.org/theory/bibliography/#gonze2009
-
- Proc.   0 individual time (sec): cpu=        891.5  wall=        891.5

================================================================================

 Calculation completed.
.Delivered   0 WARNINGs and   0 COMMENTs to log file.
+Overall time at end (sec) : cpu=       5348.7  wall=       5348.7
