
.Version 9.2.2 of ABINIT 
.(MPI version, prepared for a x86_64_linux_gnu9.3 computer) 

.Copyright (C) 1998-2020 ABINIT group . 
 ABINIT comes with ABSOLUTELY NO WARRANTY.
 It is free software, and you are welcome to redistribute it
 under certain conditions (GNU General Public License,
 see ~abinit/COPYING or http://www.gnu.org/copyleft/gpl.txt).

 ABINIT is a project of the Universite Catholique de Louvain,
 Corning Inc. and other collaborators, see ~abinit/doc/developers/contributors.txt .
 Please read https://docs.abinit.org/theory/acknowledgments for suggested
 acknowledgments of the ABINIT effort.
 For more information, see https://www.abinit.org .

.Starting date : Tue  6 Dec 2022.
- ( at 14h02 )
  
- The starting date is more than 2 years after the initial release
- of this version of ABINIT, namely Nov 2020.
- Note that the use beyond 3 years after the release will not be supported.
- Action: please, switch to a more recent version of ABINIT.

- input  file    -> Cs2TiI6.in
- output file    -> Cs2TiI6.out
- root for input  files -> Cs2TiI6i
- root for output files -> Cs2TiI6o

- inpspheads : Reading pseudopotential header in XML form from 
-   ../../../Psps_for_tests/ATOMICDATA/Cs.GGA_PBE-JTH.xml
- inpspheads : Reading pseudopotential header in XML form from 
-   ../../../Psps_for_tests/ATOMICDATA/I.GGA_PBE-JTH.xml
- inpspheads : Reading pseudopotential header in XML form from 
-   ../../../Psps_for_tests/ATOMICDATA/Zr.GGA_PBE-JTH.xml
- inpspheads : Reading pseudopotential header in XML form from 
-   ../../../Psps_for_tests/ATOMICDATA/Cl.GGA_PBE-JTH.xml

 DATASET    1 : space group I4 m m (#107); Bravais tI (body-center tetrag.)
================================================================================
 Values of the parameters that define the memory need for DATASET  1.
     intxc =       0    ionmov =       2      iscf =      17    lmnmax =      18
     lnmax =       6     mgfft =      64  mpssoang =       3    mqgrid =    4074
     natom =       9  nloc_mem =       2    nspden =       1   nspinor =       1
    nsppol =       1      nsym =       8    n1xccc =       1    ntypat =       4
    occopt =       1   xclevel =       2
-    mband =          42        mffmem =           1         mkmem =           4
       mpw =       11661          nfft =      262144          nkpt =          20
Pmy_natom=         2
 PAW method is used; the additional fine FFT grid is defined by:
   mgfftf=       100    nfftf =   1000000
================================================================================
P This job should need less than                     331.996 Mbytes of memory.
  Rough estimation (10% accuracy) of disk space for files :
_ WF disk file :    149.466 Mbytes ; DEN or POT disk file :      7.631 Mbytes.
================================================================================


 DATASET    2 : space group I4 m m (#107); Bravais tI (body-center tetrag.)
================================================================================
 Values of the parameters that define the memory need for DATASET  2.
     intxc =       0    ionmov =       2      iscf =      17    lmnmax =      18
     lnmax =       6     mgfft =      64  mpssoang =       3    mqgrid =    4074
     natom =       9  nloc_mem =       2    nspden =       1   nspinor =       1
    nsppol =       1      nsym =       8    n1xccc =       1    ntypat =       4
    occopt =       1   xclevel =       2
-    mband =          42        mffmem =           1         mkmem =           4
       mpw =       11661          nfft =      262144          nkpt =          20
Pmy_natom=         2
 PAW method is used; the additional fine FFT grid is defined by:
   mgfftf=       100    nfftf =   1000000
================================================================================
P This job should need less than                     331.996 Mbytes of memory.
  Rough estimation (10% accuracy) of disk space for files :
_ WF disk file :    149.466 Mbytes ; DEN or POT disk file :      7.631 Mbytes.
================================================================================

--------------------------------------------------------------------------------
------------- Echo of variables that govern the present computation ------------
--------------------------------------------------------------------------------
-
- outvars: echo of selected default values                                      
-   iomode0 =  0 , fftalg0 =112 , wfoptalg0 = 10
-
- outvars: echo of global parameters not present in the input file              
-  max_nthreads =    0
-
 -outvars: echo values of preprocessed input variables --------
            acell1     1.5233602722E+01  1.5233602722E+01  1.5243697338E+01 Bohr
            acell2     1.5233602712E+01  1.5233602712E+01  1.5243697339E+01 Bohr
              amu      1.32905430E+02  1.26904470E+02  9.12240000E+01
                       3.54527000E+01
           diemac      1.20000000E+01
          dilatmx      1.15000000E+00
             ecut      1.60000000E+01 Hartree
           ecutsm      5.00000000E-01 Hartree
-          fftalg         112
           ionmov           2
              ixc     -101130
           jdtset        1    2
              kpt     -1.25000000E-01 -2.50000000E-01  0.00000000E+00
                      -1.25000000E-01  5.00000000E-01  0.00000000E+00
                      -2.50000000E-01 -3.75000000E-01  0.00000000E+00
                      -1.25000000E-01 -3.75000000E-01  1.25000000E-01
                      -1.25000000E-01  2.50000000E-01  0.00000000E+00
                      -2.50000000E-01  3.75000000E-01  0.00000000E+00
                      -1.25000000E-01  3.75000000E-01  1.25000000E-01
                      -3.75000000E-01  5.00000000E-01  0.00000000E+00
                      -2.50000000E-01  5.00000000E-01  1.25000000E-01
                      -1.25000000E-01  5.00000000E-01  2.50000000E-01
                      -1.25000000E-01  0.00000000E+00  0.00000000E+00
                      -1.25000000E-01  1.25000000E-01  1.25000000E-01
                      -1.25000000E-01  2.50000000E-01  2.50000000E-01
                      -1.25000000E-01  3.75000000E-01  3.75000000E-01
                      -3.75000000E-01  0.00000000E+00  0.00000000E+00
                      -2.50000000E-01  0.00000000E+00  1.25000000E-01
                      -3.75000000E-01  1.25000000E-01  1.25000000E-01
                      -2.50000000E-01  1.25000000E-01  2.50000000E-01
                      -3.75000000E-01  2.50000000E-01  2.50000000E-01
                      -2.50000000E-01  2.50000000E-01  3.75000000E-01
         kptrlatt        4   -4    4     -4    4    4     -4   -4    4
          kptrlen1     8.61171287E+01
          kptrlen2     8.61171285E+01
P           mkmem           4
            natom           9
            nband          42
           ndtset           2
            ngfft          64      64      64
          ngfftdg         100     100     100
             nkpt          20
            nstep        2500
             nsym           8
            ntime        1000
           ntypat           4
              occ      2.000000  2.000000  2.000000  2.000000  2.000000  2.000000
                       2.000000  2.000000  2.000000  2.000000  2.000000  2.000000
                       2.000000  2.000000  2.000000  2.000000  2.000000  2.000000
                       2.000000  2.000000  2.000000  2.000000  2.000000  2.000000
                       2.000000  2.000000  2.000000  2.000000  2.000000  2.000000
                       2.000000  2.000000  2.000000  2.000000  2.000000  2.000000
                       0.000000  0.000000  0.000000  0.000000  0.000000  0.000000
          optcell           2
        optforces           1
        pawecutdg      4.00000000E+01 Hartree
            prtwf           0
            rprim1     0.0000000000E+00  7.0757534872E-01  7.0663790294E-01
                       7.0757534872E-01  0.0000000000E+00  7.0663790294E-01
                       7.0710678119E-01  7.0710678119E-01  0.0000000000E+00
            rprim2     0.0000000000E+00  7.0757534921E-01  7.0663790246E-01
                       7.0757534921E-01  0.0000000000E+00  7.0663790246E-01
                       7.0710678119E-01  7.0710678119E-01  0.0000000000E+00
           shiftk      5.00000000E-01  5.00000000E-01  5.00000000E-01
          spgroup         107
           symrel      1  0  0   0  1  0   0  0  1       1  0 -1   0  1 -1   0  0 -1
                       0  1 -1   1  0 -1   0  0 -1       0  1  0   1  0  0   0  0  1
                       1  0  0   1  0 -1   1 -1  0       0  1  0   0  1 -1  -1  1  0
                       0  1 -1   0  1  0  -1  1  0       1  0 -1   1  0  0   1 -1  0
           toldff      1.00000000E-08
           tolmxf      1.00000000E-05
            typat1     1  1  2  4  4  4  4  4  3
            typat2     1  1  4  2  4  4  4  4  3
           useylm           1
              wtk        0.03125    0.03125    0.03125    0.06250    0.03125    0.03125
                         0.06250    0.03125    0.06250    0.06250    0.03125    0.06250
                         0.06250    0.06250    0.03125    0.06250    0.06250    0.06250
                         0.06250    0.06250
           xangst1     2.8519798638E+00  2.8519798638E+00  2.8221110366E+00
                       8.5559395914E+00  8.5559395914E+00  8.5185137557E+00
                       5.7039597276E+00  5.7039597276E+00  2.8575295251E+00
                       5.7039597276E+00  5.7039597276E+00  8.6975332794E+00
                       8.7651849262E+00  5.7039597276E+00  5.6832842452E+00
                       5.7039597276E+00  8.7651849262E+00  5.6832842452E+00
                       5.7039597276E+00  2.6427345290E+00  5.6832842452E+00
                       2.6427345290E+00  5.7039597276E+00  5.6832842452E+00
                      -4.6378268575E-13 -4.6378268575E-13 -5.7602824806E-02
           xangst2     2.8519798640E+00  2.8519798640E+00  2.8742916802E+00
                       8.5559395919E+00  8.5559395919E+00  8.5706943916E+00
                       5.7039597279E+00  5.7039597279E+00  2.6952721568E+00
                       5.7039597279E+00  5.7039597279E+00  8.5352758982E+00
                       8.7651849259E+00  5.7039597279E+00  5.7095211854E+00
                       5.7039597279E+00  8.7651849259E+00  5.7095211854E+00
                       5.7039597279E+00  2.6427345299E+00  5.7095211854E+00
                       2.6427345299E+00  5.7039597279E+00  5.7095211854E+00
                      -3.8811018971E-13 -3.8811018971E-13  5.7602823434E-02
            xcart1     5.3894608791E+00  5.3894608791E+00  5.3330169757E+00
                       1.6168382637E+01  1.6168382637E+01  1.6097658057E+01
                       1.0778921758E+01  1.0778921758E+01  5.3999482191E+00
                       1.0778921758E+01  1.0778921758E+01  1.6435955930E+01
                       1.6563799015E+01  1.0778921758E+01  1.0739850759E+01
                       1.0778921758E+01  1.6563799015E+01  1.0739850759E+01
                       1.0778921758E+01  4.9940445018E+00  1.0739850759E+01
                       4.9940445018E+00  1.0778921758E+01  1.0739850759E+01
                      -8.7642226124E-13 -8.7642226124E-13 -1.0885356336E-01
            xcart2     5.3894608794E+00  5.3894608794E+00  5.4316241015E+00
                       1.6168382638E+01  1.6168382638E+01  1.6196265169E+01
                       1.0778921759E+01  1.0778921759E+01  5.0933262299E+00
                       1.0778921759E+01  1.0778921759E+01  1.6129333916E+01
                       1.6563799014E+01  1.0778921759E+01  1.0789431390E+01
                       1.0778921759E+01  1.6563799014E+01  1.0789431390E+01
                       1.0778921759E+01  4.9940445034E+00  1.0789431390E+01
                       4.9940445034E+00  1.0778921759E+01  1.0789431390E+01
                      -7.3342196793E-13 -7.3342196793E-13  1.0885356077E-01
             xred1     2.4770992991E-01  2.4770992991E-01  2.5229007009E-01
                       7.4770992991E-01  7.4770992991E-01  7.5229007009E-01
                       2.5081877687E-01  2.5081877687E-01  7.4918122313E-01
                       7.6342331365E-01  7.6342331365E-01  2.3657668635E-01
                       2.3050641812E-01  7.6719064185E-01  7.6949358188E-01
                       7.6719064185E-01  2.3050641812E-01  7.6949358188E-01
                       2.3050641812E-01  7.6719064185E-01  2.3280935815E-01
                       7.6719064185E-01  2.3050641812E-01  2.3280935815E-01
                      -5.0560702646E-03 -5.0560702646E-03  5.0560702646E-03
             xred2     2.5229007022E-01  2.5229007022E-01  2.4770992978E-01
                       7.5229007022E-01  7.5229007022E-01  7.4770992978E-01
                       2.3657668649E-01  2.3657668649E-01  7.6342331351E-01
                       7.4918122283E-01  7.4918122283E-01  2.5081877717E-01
                       2.3280935822E-01  7.6949358182E-01  7.6719064178E-01
                       7.6949358182E-01  2.3280935822E-01  7.6719064178E-01
                       2.3280935822E-01  7.6949358182E-01  2.3050641818E-01
                       7.6949358182E-01  2.3280935822E-01  2.3050641818E-01
                       5.0560701509E-03  5.0560701509E-03 -5.0560701509E-03
            znucl       55.00000   53.00000   40.00000   17.00000

================================================================================

 chkinp: Checking input parameters for consistency, jdtset=   1.

 chkinp: Checking input parameters for consistency, jdtset=   2.

================================================================================
== DATASET  1 ==================================================================
-   mpi_nproc: 6, omp_nthreads: -1 (-1 if OMP is not activated)


--- !DatasetInfo
iteration_state: {dtset: 1, }
dimensions: {natom: 9, nkpt: 20, mband: 42, nsppol: 1, nspinor: 1, nspden: 1, mpw: 11661, }
cutoff_energies: {ecut:  16.0, pawecutdg:  40.0, }
electrons: {nelect:   7.20000000E+01, charge:   0.00000000E+00, occopt:   1.00000000E+00, tsmear:   1.00000000E-02, }
meta: {optdriver: 0, ionmov: 2, optcell: 2, iscf: 17, paral_kgb: 0, }
...

 Real(R)+Recip(G) space primitive vectors, cartesian coordinates (Bohr,Bohr^-1):
 R(1)=  0.0000000 10.7789218 10.7646411  G(1)= -0.0463868  0.0463868  0.0464484
 R(2)= 10.7789218  0.0000000 10.7646411  G(2)=  0.0463868 -0.0463868  0.0464484
 R(3)= 10.7789218 10.7789218  0.0000000  G(3)=  0.0463868  0.0463868 -0.0464484
 Unit cell volume ucvol=  2.5013830E+03 bohr^3
 Angles (23,13,12)=  5.99780771E+01  5.99780771E+01  6.00438457E+01 degrees

 Coarse grid specifications (used for wave-functions):

 getcut: wavevector=  0.0000  0.0000  0.0000  ngfft=  64  64  64
         ecut(hartree)=     21.160   => boxcut(ratio)=   2.02753

 Fine grid specifications (used for densities):

 getcut: wavevector=  0.0000  0.0000  0.0000  ngfft= 100 100 100
         ecut(hartree)=     52.900   => boxcut(ratio)=   2.00363

--- Pseudopotential description ------------------------------------------------
- pspini: atom type   1  psp file is ../../../Psps_for_tests/ATOMICDATA/Cs.GGA_PBE-JTH.xml
- pspatm: opening atomic psp file    ../../../Psps_for_tests/ATOMICDATA/Cs.GGA_PBE-JTH.xml
- pspatm : Reading pseudopotential header in XML form from ../../../Psps_for_tests/ATOMICDATA/Cs.GGA_PBE-JTH.xml
 Pseudopotential format is: paw10
 basis_size (lnmax)=  6 (lmn_size= 18), orbitals=   0   0   1   1   2   2
 Spheres core radius: rc_sph= 2.20660278
 1 radial meshes are used:
  - mesh 1: r(i)=AA*[exp(BB*(i-1))-1], size=1500 , AA= 0.15922E-03 BB= 0.87573E-02
 Shapefunction is SIN type: shapef(r)=[sin(pi*r/rshp)/(pi*r/rshp)]**2
 Radius for shape functions =  2.00394208
 mmax= 1500
 Radial grid used for partial waves is grid 1
 Radial grid used for projectors is grid 1
 Radial grid used for (t)core density is grid 1
 Radial grid used for Vloc is grid 1
 Radial grid used for pseudo valence density is grid 1
 Mesh size for Vloc has been set to 1341 to avoid numerical noise.
 Compensation charge density is not taken into account in XC energy/potential
 pspatm: atomic psp has been read  and splines computed

- pspini: atom type   2  psp file is ../../../Psps_for_tests/ATOMICDATA/I.GGA_PBE-JTH.xml
- pspatm: opening atomic psp file    ../../../Psps_for_tests/ATOMICDATA/I.GGA_PBE-JTH.xml
- pspatm : Reading pseudopotential header in XML form from ../../../Psps_for_tests/ATOMICDATA/I.GGA_PBE-JTH.xml
 Pseudopotential format is: paw10
 basis_size (lnmax)=  4 (lmn_size=  8), orbitals=   0   0   1   1
 Spheres core radius: rc_sph= 2.30022271
 1 radial meshes are used:
  - mesh 1: r(i)=AA*[exp(BB*(i-1))-1], size=2000 , AA= 0.12610E-03 BB= 0.66836E-02
 Shapefunction is SIN type: shapef(r)=[sin(pi*r/rshp)/(pi*r/rshp)]**2
 Radius for shape functions =  2.10879093
 mmax= 2000
 Radial grid used for partial waves is grid 1
 Radial grid used for projectors is grid 1
 Radial grid used for (t)core density is grid 1
 Radial grid used for Vloc is grid 1
 Radial grid used for pseudo valence density is grid 1
 Mesh size for Vloc has been set to 1792 to avoid numerical noise.
 Compensation charge density is not taken into account in XC energy/potential
 pspatm: atomic psp has been read  and splines computed

- pspini: atom type   3  psp file is ../../../Psps_for_tests/ATOMICDATA/Zr.GGA_PBE-JTH.xml
- pspatm: opening atomic psp file    ../../../Psps_for_tests/ATOMICDATA/Zr.GGA_PBE-JTH.xml
- pspatm : Reading pseudopotential header in XML form from ../../../Psps_for_tests/ATOMICDATA/Zr.GGA_PBE-JTH.xml
 Pseudopotential format is: paw10
 basis_size (lnmax)=  6 (lmn_size= 18), orbitals=   0   0   1   1   2   2
 Spheres core radius: rc_sph= 2.21000000
 1 radial meshes are used:
  - mesh 1: r(i)=AA*[exp(BB*(i-1))-1], size= 941 , AA= 0.35256E-03 BB= 0.14102E-01
 Shapefunction is BESSEL type: shapef(r,l)=aa(1,l)*jl(q(1,l)*r)+aa(2,l)*jl(q(2,l)*r)
 Radius for shape functions =  2.21000000
 mmax=  941
 Radial grid used for partial waves is grid 1
 Radial grid used for projectors is grid 1
 Radial grid used for (t)core density is grid 1
 Radial grid used for Vloc is grid 1
 Radial grid used for pseudo valence density is grid 1
 Mesh size for Vloc has been set to  777 to avoid numerical noise.
 Compensation charge density is not taken into account in XC energy/potential
 pspatm: atomic psp has been read  and splines computed

- pspini: atom type   4  psp file is ../../../Psps_for_tests/ATOMICDATA/Cl.GGA_PBE-JTH.xml
- pspatm: opening atomic psp file    ../../../Psps_for_tests/ATOMICDATA/Cl.GGA_PBE-JTH.xml
- pspatm : Reading pseudopotential header in XML form from ../../../Psps_for_tests/ATOMICDATA/Cl.GGA_PBE-JTH.xml
 Pseudopotential format is: paw10
 basis_size (lnmax)=  4 (lmn_size=  8), orbitals=   0   0   1   1
 Spheres core radius: rc_sph= 1.80315674
 1 radial meshes are used:
  - mesh 1: r(i)=AA*[exp(BB*(i-1))-1], size=1400 , AA= 0.50355E-03 BB= 0.85603E-02
 Shapefunction is SIN type: shapef(r)=[sin(pi*r/rshp)/(pi*r/rshp)]**2
 Radius for shape functions =  1.61320365
 mmax= 1400
 Radial grid used for partial waves is grid 1
 Radial grid used for projectors is grid 1
 Radial grid used for (t)core density is grid 1
 Radial grid used for Vloc is grid 1
 Radial grid used for pseudo valence density is grid 1
 Mesh size for Vloc has been set to 1238 to avoid numerical noise.
 Compensation charge density is not taken into account in XC energy/potential
 pspatm: atomic psp has been read  and splines computed

   1.59901964E+04                                ecore*ucvol(ha*bohr**3)
--------------------------------------------------------------------------------

_setup2: Arith. and geom. avg. npw (full set) are   11629.063   11629.059

================================================================================

=== [ionmov= 2] Broyden-Fletcher-Goldfard-Shanno method (forces)            
================================================================================

--- Iteration: (   1/1000) Internal Cycle: (1/1)
--------------------------------------------------------------------------------

---SELF-CONSISTENT-FIELD CONVERGENCE--------------------------------------------

--- !BeginCycle
iteration_state: {dtset: 1, itime: 1, icycle: 1, }
solver: {iscf: 17, nstep: 2500, nline: 4, wfoptalg: 10, }
tolerances: {toldff: 1.00E-08, }
...

     iter   Etot(hartree)      deltaE(h)  residm     nres2    diffor    maxfor
 ETOT  1  -176.20177932209    -1.762E+02 2.407E-01 3.483E+01 1.069E-01 1.069E-01
 ETOT  2  -176.30287087272    -1.011E-01 1.789E-02 8.490E+00 2.007E-01 9.635E-02
 ETOT  3  -176.29965960977     3.211E-03 1.377E-02 1.946E+00 6.230E-02 3.405E-02
 ETOT  4  -176.30086871406    -1.209E-03 2.603E-03 2.240E-01 2.228E-02 5.398E-02
 ETOT  5  -176.30010126613     7.674E-04 5.348E-04 1.505E-02 2.593E-02 2.850E-02
 ETOT  6  -176.30015412090    -5.285E-05 5.117E-04 2.159E-03 2.001E-03 2.758E-02
 ETOT  7  -176.30015385286     2.680E-07 2.773E-04 3.704E-04 1.930E-03 2.580E-02
 ETOT  8  -176.30015488908    -1.036E-06 2.022E-04 1.171E-04 6.268E-04 2.518E-02
 ETOT  9  -176.30015488973    -6.515E-10 9.091E-05 1.669E-05 1.060E-04 2.528E-02
 ETOT 10  -176.30015488391     5.821E-09 5.714E-05 1.497E-06 6.883E-05 2.535E-02
 ETOT 11  -176.30015488115     2.758E-09 2.423E-05 4.263E-07 1.483E-05 2.535E-02
 ETOT 12  -176.30015488098     1.743E-10 1.458E-05 1.476E-07 1.108E-05 2.535E-02
 ETOT 13  -176.30015488043     5.521E-10 6.095E-06 2.890E-08 2.865E-06 2.536E-02
 ETOT 14  -176.30015488031     1.206E-10 3.622E-06 1.307E-08 4.426E-06 2.536E-02
 ETOT 15  -176.30015488024     6.435E-11 1.511E-06 2.153E-09 1.499E-06 2.536E-02
 ETOT 16  -176.30015488021     2.828E-11 8.945E-07 6.735E-10 1.326E-06 2.536E-02
 ETOT 17  -176.30015488021    -2.274E-13 3.794E-07 1.438E-10 1.317E-07 2.536E-02
 ETOT 18  -176.30015488022    -7.873E-12 2.363E-07 1.931E-11 2.513E-07 2.536E-02
 ETOT 19  -176.30015488022     3.951E-12 1.394E-07 5.661E-12 4.412E-08 2.536E-02
 ETOT 20  -176.30015488021     6.366E-12 8.702E-08 9.942E-13 5.843E-08 2.536E-02
 ETOT 21  -176.30015488021     3.610E-12 5.124E-08 4.718E-13 1.854E-08 2.536E-02
 ETOT 22  -176.30015488021    -1.478E-12 3.204E-08 1.234E-14 9.418E-09 2.536E-02
 ETOT 23  -176.30015488021    -4.093E-12 1.884E-08 5.379E-15 2.186E-09 2.536E-02

 At SCF step   23, forces are converged : 
  for the second time, max diff in force=  2.186E-09 < toldff=  1.000E-08

 Cartesian components of stress tensor (hartree/bohr^3)
  sigma(1 1)=  1.10510984E-04  sigma(3 2)= -2.14652084E-14
  sigma(2 2)=  1.10510984E-04  sigma(3 1)= -2.14660659E-14
  sigma(3 3)=  8.21736699E-05  sigma(2 1)=  4.28747408E-14


--- !ResultsGS
iteration_state: {dtset: 1, itime: 1, icycle: 1, }
comment   : Summary of ground state results
lattice_vectors:
- [  0.0000000,  10.7789218,  10.7646411, ]
- [ 10.7789218,   0.0000000,  10.7646411, ]
- [ 10.7789218,  10.7789218,   0.0000000, ]
lattice_lengths: [  15.23360,   15.23360,   15.24370, ]
lattice_angles: [ 59.978,  59.978,  60.044, ] # degrees, (23, 13, 12)
lattice_volume:   2.5013830E+03
convergence: {deltae: -4.093E-12, res2:  5.379E-15, residm:  1.884E-08, diffor:  2.186E-09, }
etotal    :  -1.76300155E+02
entropy   :   0.00000000E+00
fermie    :  -4.53351852E-02
cartesian_stress_tensor: # hartree/bohr^3
- [  1.10510984E-04,   4.28747408E-14,  -2.14660659E-14, ]
- [  4.28747408E-14,   1.10510984E-04,  -2.14652084E-14, ]
- [ -2.14660659E-14,  -2.14652084E-14,   8.21736699E-05, ]
pressure_GPa:  -2.9734E+00
xred      :
- [  2.4771E-01,   2.4771E-01,   2.5229E-01, Cs]
- [  7.4771E-01,   7.4771E-01,   7.5229E-01, Cs]
- [  2.5082E-01,   2.5082E-01,   7.4918E-01,  I]
- [  7.6342E-01,   7.6342E-01,   2.3658E-01, Cl]
- [  2.3051E-01,   7.6719E-01,   7.6949E-01, Cl]
- [  7.6719E-01,   2.3051E-01,   7.6949E-01, Cl]
- [  2.3051E-01,   7.6719E-01,   2.3281E-01, Cl]
- [  7.6719E-01,   2.3051E-01,   2.3281E-01, Cl]
- [ -5.0561E-03,  -5.0561E-03,   5.0561E-03, Zr]
cartesian_forces: # hartree/bohr
- [  2.68218128E-19,   4.20323326E-19,  -2.57828360E-04, ]
- [  2.55089022E-19,   4.33452432E-19,  -2.57828360E-04, ]
- [  4.62138894E-19,   2.26402560E-19,  -7.12600270E-03, ]
- [  7.51532608E-19,  -6.29911547E-20,   2.50114342E-02, ]
- [  2.53620785E-02,   2.03928580E-13,  -1.23100764E-03, ]
- [  2.03928400E-13,   2.53620785E-02,  -1.23100764E-03, ]
- [ -2.03926157E-13,  -2.53620785E-02,  -1.23100764E-03, ]
- [ -2.53620785E-02,  -2.03925977E-13,  -1.23100764E-03, ]
- [  1.43535030E-18,  -7.46808843E-19,  -1.24457442E-02, ]
force_length_stats: {min:   2.57828360E-04, max:   2.53919358E-02, mean:   1.62962868E-02, }
...

 Integrated electronic density in atomic spheres:
 ------------------------------------------------
 Atom  Sphere_radius  Integrated_density
    1        2.20660          5.36212569
    2        2.20660          5.36212569
    3        2.30022          4.01530312
    4        1.80316          4.33396808
    5        1.80316          4.33312221
    6        1.80316          4.33312221
    7        1.80316          4.33312221
    8        1.80316          4.33312221
    9        2.21000          8.69929976

 PAW TEST:
 ==== Compensation charge inside spheres ============
 The following values must be close to each other ...
 Compensation charge over spherical meshes =     -5.937010158579494
 Compensation charge over fine fft grid    =     -5.937021330354249

 ==== Results concerning PAW augmentation regions ====

 Total pseudopotential strength Dij (hartree):
 Atom #  1
   0.42398  -0.14049   0.00000   0.00000   0.00000   0.00000  -0.00000   0.00000  -0.00000   0.00000   0.00000   0.00000 ...
  -0.14049   0.04222   0.00000  -0.00000   0.00000   0.00000   0.00000   0.00000   0.00000   0.00000  -0.00000   0.00000 ...
   0.00000   0.00000  -0.09161   0.00000  -0.00000  -0.16771   0.00000   0.00000   0.00000   0.00000   0.00000  -0.00000 ...
   0.00000  -0.00000   0.00000  -0.09161   0.00000   0.00000  -0.16771   0.00000  -0.00000   0.00000   0.00000   0.00000 ...
   0.00000   0.00000  -0.00000   0.00000  -0.09161   0.00000   0.00000  -0.16771   0.00000  -0.00000   0.00000   0.00000 ...
   0.00000   0.00000  -0.16771   0.00000   0.00000   0.39902   0.00000  -0.00000   0.00000  -0.00000   0.00000   0.00000 ...
  -0.00000   0.00000   0.00000  -0.16771   0.00000   0.00000   0.39902   0.00000   0.00000   0.00000  -0.00000   0.00000 ...
   0.00000   0.00000   0.00000   0.00000  -0.16771  -0.00000   0.00000   0.39902   0.00000   0.00000   0.00000  -0.00000 ...
  -0.00000   0.00000   0.00000  -0.00000   0.00000   0.00000   0.00000   0.00000   0.00550   0.00000   0.00000   0.00000 ...
   0.00000   0.00000   0.00000   0.00000  -0.00000  -0.00000   0.00000   0.00000   0.00000   0.00550   0.00000  -0.00000 ...
   0.00000  -0.00000   0.00000   0.00000   0.00000   0.00000  -0.00000   0.00000   0.00000   0.00000   0.00550   0.00000 ...
   0.00000   0.00000  -0.00000   0.00000   0.00000   0.00000   0.00000  -0.00000   0.00000  -0.00000   0.00000   0.00550 ...
   ...  only 12  components have been written...
 Atom #  9
   3.07453  -0.89530   0.00000   0.00000   0.00000   0.00000   0.00001   0.00000   0.00000   0.00000  -0.00001   0.00000 ...
  -0.89530   0.26750   0.00000  -0.00001   0.00000   0.00000  -0.00000   0.00000   0.00000   0.00000  -0.00000   0.00000 ...
   0.00000   0.00000   0.27190   0.00000   0.00000  -0.05532   0.00000   0.00000   0.00000  -0.00008   0.00000   0.00000 ...
   0.00000  -0.00001   0.00000   0.27183   0.00000   0.00000  -0.05532   0.00000   0.00000   0.00000  -0.00016   0.00000 ...
   0.00000   0.00000   0.00000   0.00000   0.27190   0.00000   0.00000  -0.05532   0.00000   0.00000   0.00000  -0.00008 ...
   0.00000   0.00000  -0.05532   0.00000   0.00000   0.01512   0.00000   0.00000   0.00000   0.00002   0.00000   0.00000 ...
   0.00001  -0.00000   0.00000  -0.05532   0.00000   0.00000   0.01512   0.00000   0.00000   0.00000   0.00003   0.00000 ...
   0.00000   0.00000   0.00000   0.00000  -0.05532   0.00000   0.00000   0.01512   0.00000   0.00000   0.00000   0.00002 ...
   0.00000   0.00000   0.00000   0.00000   0.00000   0.00000   0.00000   0.00000  -0.01170   0.00000   0.00000   0.00000 ...
   0.00000   0.00000  -0.00008   0.00000   0.00000   0.00002   0.00000   0.00000   0.00000  -0.01168   0.00000   0.00000 ...
  -0.00001  -0.00000   0.00000  -0.00016   0.00000   0.00000   0.00003   0.00000   0.00000   0.00000  -0.01152   0.00000 ...
   0.00000   0.00000   0.00000   0.00000  -0.00008   0.00000   0.00000   0.00002   0.00000   0.00000   0.00000  -0.01168 ...
   ...  only 12  components have been written...


 Augmentation waves occupancies Rhoij:
 Atom #  1
   1.99673  -0.01712   0.00000   0.00002   0.00000   0.00000   0.00002   0.00000  -0.00153   0.00000   0.00083   0.00000 ...
  -0.01712   0.08824   0.00000   0.00054   0.00000   0.00000   0.00003   0.00000   0.02009   0.00000  -0.01224   0.00000 ...
   0.00000   0.00000   2.01038   0.00000   0.00110  -0.00516   0.00000  -0.00020   0.00000   0.00039   0.00000   0.00047 ...
   0.00002   0.00054   0.00000   2.00937   0.00000   0.00000  -0.00496   0.00000   0.00039   0.00000   0.00103   0.00000 ...
   0.00000   0.00000   0.00110   0.00000   2.01038  -0.00020   0.00000  -0.00516   0.00000   0.00047   0.00000   0.00039 ...
   0.00000   0.00000  -0.00516   0.00000  -0.00020   0.00007   0.00000   0.00002   0.00000   0.00003   0.00000  -0.00007 ...
   0.00002   0.00003   0.00000  -0.00496   0.00000   0.00000   0.00005   0.00000  -0.00006   0.00000  -0.00003   0.00000 ...
   0.00000   0.00000  -0.00020   0.00000  -0.00516   0.00002   0.00000   0.00007   0.00000  -0.00007   0.00000   0.00003 ...
  -0.00153   0.02009   0.00000   0.00039   0.00000   0.00000  -0.00006   0.00000   0.03714   0.00000  -0.01120   0.00000 ...
   0.00000   0.00000   0.00039   0.00000   0.00047   0.00003   0.00000  -0.00007   0.00000   0.01950   0.00000   0.00059 ...
   0.00083  -0.01224   0.00000   0.00103   0.00000   0.00000  -0.00003   0.00000  -0.01120   0.00000   0.01809   0.00000 ...
   0.00000   0.00000   0.00047   0.00000   0.00039  -0.00007   0.00000   0.00003   0.00000   0.00059   0.00000   0.01950 ...
   ...  only 12  components have been written...
 Atom #  9
   1.98944  -0.08161   0.00000  -0.00031   0.00000   0.00000   0.00030   0.00000   0.00000   0.00000   0.00483   0.00000 ...
  -0.08161   0.95543   0.00000   0.00267   0.00000   0.00000   0.04869   0.00000   0.00000   0.00000   0.03057   0.00000 ...
   0.00000   0.00000   1.95649   0.00000   0.00000  -0.26364   0.00000   0.00000   0.00000  -0.00092   0.00000   0.00000 ...
  -0.00031   0.00267   0.00000   1.95700   0.00000   0.00000  -0.25430   0.00000   0.00000   0.00000   0.00596   0.00000 ...
   0.00000   0.00000   0.00000   0.00000   1.95649   0.00000   0.00000  -0.26364   0.00000   0.00000   0.00000  -0.00092 ...
   0.00000   0.00000  -0.26364   0.00000   0.00000   1.34590   0.00000   0.00000   0.00000   0.03123   0.00000   0.00000 ...
   0.00030   0.04869   0.00000  -0.25430   0.00000   0.00000   1.40005   0.00000   0.00000   0.00000   0.02394   0.00000 ...
   0.00000   0.00000   0.00000   0.00000  -0.26364   0.00000   0.00000   1.34590   0.00000   0.00000   0.00000   0.03123 ...
   0.00000   0.00000   0.00000   0.00000   0.00000   0.00000   0.00000   0.00000   0.36221   0.00000   0.00000   0.00000 ...
   0.00000   0.00000  -0.00092   0.00000   0.00000   0.03123   0.00000   0.00000   0.00000   0.37385   0.00000   0.00000 ...
   0.00483   0.03057   0.00000   0.00596   0.00000   0.00000   0.02394   0.00000   0.00000   0.00000   1.14373   0.00000 ...
   0.00000   0.00000   0.00000   0.00000  -0.00092   0.00000   0.00000   0.03123   0.00000   0.00000   0.00000   0.37385 ...
   ...  only 12  components have been written...



---OUTPUT-----------------------------------------------------------------------

 Cartesian coordinates (xcart) [bohr]
  5.38946087909681E+00  5.38946087909681E+00  5.33301697570603E+00
  1.61683826372912E+01  1.61683826372912E+01  1.60976580574012E+01
  1.07789217581512E+01  1.07789217581512E+01  5.39994821911067E+00
  1.07789217582401E+01  1.07789217582401E+01  1.64359559296813E+01
  1.65637990146372E+01  1.07789217581477E+01  1.07398507588395E+01
  1.07789217581477E+01  1.65637990146372E+01  1.07398507588395E+01
  1.07789217582407E+01  4.99404450175124E+00  1.07398507588395E+01
  4.99404450175124E+00  1.07789217582407E+01  1.07398507588395E+01
 -8.76422261240824E-13 -8.76422261240824E-13 -1.08853563364501E-01
 Reduced coordinates (xred)
  2.47709929910000E-01  2.47709929910000E-01  2.52290070090000E-01
  7.47709929910000E-01  7.47709929910000E-01  7.52290070090000E-01
  2.50818776870000E-01  2.50818776870000E-01  7.49181223130000E-01
  7.63423313650000E-01  7.63423313650000E-01  2.36576686350000E-01
  2.30506418120000E-01  7.67190641850000E-01  7.69493581880000E-01
  7.67190641850000E-01  2.30506418120000E-01  7.69493581880000E-01
  2.30506418120000E-01  7.67190641850000E-01  2.32809358150000E-01
  7.67190641850000E-01  2.30506418120000E-01  2.32809358150000E-01
 -5.05607026460000E-03 -5.05607026460000E-03  5.05607026460000E-03
 Cartesian forces (fcart) [Ha/bohr]; max,rms= 2.53621E-02 1.12388E-02 (free atoms)
  2.68218127913754E-19  4.20323325556301E-19 -2.57828360064336E-04
  2.55089021637332E-19  4.33452431832723E-19 -2.57828360064336E-04
  4.62138893626795E-19  2.26402559843261E-19 -7.12600270355126E-03
  7.51532608156258E-19 -6.29911546862023E-20  2.50114342147202E-02
  2.53620784517309E-02  2.03928579923954E-13 -1.23100764120347E-03
  2.03928399906665E-13  2.53620784517309E-02 -1.23100764120347E-03
 -2.03926156659025E-13 -2.53620784517309E-02 -1.23100764079508E-03
 -2.53620784517309E-02 -2.03925976641735E-13 -1.23100764079508E-03
  1.43535029675715E-18 -7.46808843287097E-19 -1.24457442270432E-02
 Reduced forces (fred)
  2.77542975677464E-03  2.77542975677464E-03 -7.42173445416752E-18
  2.77542975677464E-03  2.77542975677464E-03 -7.42173445416752E-18
  7.67088614509186E-02  7.67088614509186E-02 -7.42173445416752E-18
 -2.69239112259893E-01 -2.69239112259893E-01 -7.42173445416752E-18
  1.32513554241814E-02 -2.60124503832214E-01 -2.73375859256396E-01
 -2.60124503832214E-01  1.32513554241814E-02 -2.73375859256396E-01
  2.86627214680577E-01  1.32513554241814E-02  2.73375859256396E-01
  1.32513554241814E-02  2.86627214680577E-01  2.73375859256396E-01
  1.33973969598700E-01  1.33973969598700E-01 -7.42173445416752E-18
 Scale of Primitive Cell (acell) [bohr]
  1.52336027220000E+01  1.52336027220000E+01  1.52436973380000E+01
 Real space primitive translations (rprimd) [bohr]
  0.00000000000000E+00  1.07789217582811E+01  1.07646410816952E+01
  1.07789217582811E+01  0.00000000000000E+00  1.07646410816952E+01
  1.07789217581078E+01  1.07789217581078E+01  0.00000000000000E+00
 Unitary Cell Volume (ucvol) [Bohr^3]=  2.50138296946030E+03
 Angles (23,13,12)= [degrees]
  5.99780771413601E+01  5.99780771413601E+01  6.00438457172798E+01
 Lengths [Bohr]
  1.52336027219061E+01  1.52336027219061E+01  1.52436973380744E+01
 Stress tensor in cartesian coordinates (strten) [Ha/bohr^3]
  1.10510983602612E-04  4.28747407536655E-14 -2.14660658985282E-14
  4.28747407536655E-14  1.10510983602612E-04 -2.14652084210961E-14
 -2.14660658985282E-14 -2.14652084210961E-14  8.21736698556758E-05
 Total energy (etotal) [Ha]= -1.76300154880213E+02

--- Iteration: (   2/1000) Internal Cycle: (1/1)
--------------------------------------------------------------------------------

---SELF-CONSISTENT-FIELD CONVERGENCE--------------------------------------------

--- !BeginCycle
iteration_state: {dtset: 1, itime: 2, icycle: 1, }
solver: {iscf: 17, nstep: 2500, nline: 4, wfoptalg: 10, }
tolerances: {toldff: 1.00E-08, }
...

     iter   Etot(hartree)      deltaE(h)  residm     nres2    diffor    maxfor
 ETOT  1  -176.33057554541    -1.763E+02 2.542E+03 4.593E+00 2.005E-01 2.255E-01
 ETOT  2  -176.31094036427     1.964E-02 2.261E+00 1.847E+00 2.441E-01 2.069E-02
 ETOT  3  -176.30567382785     5.267E-03 2.835E-01 1.395E-01 4.695E-02 2.841E-02
 ETOT  4  -176.30556751134     1.063E-04 3.170E-02 2.341E-02 9.871E-04 2.742E-02
 ETOT  5  -176.30557647244    -8.961E-06 6.014E-03 6.156E-03 2.352E-03 2.507E-02
 ETOT  6  -176.30559603055    -1.956E-05 5.922E-05 1.048E-03 1.712E-03 2.363E-02
 ETOT  7  -176.30560049139    -4.461E-06 4.367E-06 8.895E-05 6.925E-04 2.313E-02
 ETOT  8  -176.30560066219    -1.708E-07 1.219E-05 9.303E-06 3.369E-04 2.285E-02
 ETOT  9  -176.30560062956     3.263E-08 1.058E-06 1.841E-06 2.486E-05 2.285E-02
 ETOT 10  -176.30560062013     9.431E-09 5.965E-07 3.555E-07 4.222E-05 2.282E-02
 ETOT 11  -176.30560062064    -5.128E-10 3.530E-07 5.000E-08 1.226E-05 2.281E-02
 ETOT 12  -176.30560062258    -1.942E-09 6.398E-08 3.528E-09 1.271E-06 2.281E-02
 ETOT 13  -176.30560062378    -1.194E-09 6.108E-08 6.193E-10 1.041E-06 2.281E-02
 ETOT 14  -176.30560062446    -6.884E-10 8.431E-09 1.656E-10 2.447E-07 2.281E-02
 ETOT 15  -176.30560062503    -5.650E-10 7.564E-09 6.121E-11 1.128E-07 2.281E-02
 ETOT 16  -176.30560062537    -3.397E-10 1.853E-09 2.684E-11 9.092E-08 2.281E-02
 ETOT 17  -176.30560062561    -2.406E-10 9.803E-10 1.356E-11 1.910E-08 2.281E-02
 ETOT 18  -176.30560062590    -2.918E-10 7.990E-10 3.588E-12 1.937E-08 2.281E-02
 ETOT 19  -176.30560062613    -2.284E-10 4.244E-10 6.049E-13 8.366E-09 2.281E-02
 ETOT 20  -176.30560062619    -5.960E-11 3.463E-10 9.569E-14 8.632E-09 2.281E-02

 At SCF step   20, forces are converged : 
  for the second time, max diff in force=  8.632E-09 < toldff=  1.000E-08

 Cartesian components of stress tensor (hartree/bohr^3)
  sigma(1 1)=  9.95918288E-05  sigma(3 2)= -2.17472144E-14
  sigma(2 2)=  9.95918288E-05  sigma(3 1)= -2.17471286E-14
  sigma(3 3)=  7.18741087E-05  sigma(2 1)=  4.34743000E-14


--- !ResultsGS
iteration_state: {dtset: 1, itime: 2, icycle: 1, }
comment   : Summary of ground state results
lattice_vectors:
- [  0.0000000,  10.7431861,  10.7381040, ]
- [ 10.7431861,   0.0000000,  10.7381040, ]
- [ 10.7431861,  10.7431861,   0.0000000, ]
lattice_lengths: [  15.18957,   15.18957,   15.19316, ]
lattice_angles: [ 59.992,  59.992,  60.016, ] # degrees, (23, 13, 12)
lattice_volume:   2.4786990E+03
convergence: {deltae: -5.960E-11, res2:  9.569E-14, residm:  3.463E-10, diffor:  8.632E-09, }
etotal    :  -1.76305601E+02
entropy   :   0.00000000E+00
fermie    :  -4.26503707E-02
cartesian_stress_tensor: # hartree/bohr^3
- [  9.95918288E-05,   4.34743000E-14,  -2.17471286E-14, ]
- [  4.34743000E-14,   9.95918288E-05,  -2.17472144E-14, ]
- [ -2.17471286E-14,  -2.17472144E-14,   7.18741087E-05, ]
pressure_GPa:  -2.6583E+00
xred      :
- [  2.4770E-01,   2.4770E-01,   2.5230E-01, Cs]
- [  7.4770E-01,   7.4770E-01,   7.5230E-01, Cs]
- [  2.5049E-01,   2.5049E-01,   7.4951E-01,  I]
- [  7.6459E-01,   7.6459E-01,   2.3541E-01, Cl]
- [  2.2927E-01,   7.6831E-01,   7.7073E-01, Cl]
- [  7.6831E-01,   2.2927E-01,   7.7073E-01, Cl]
- [  2.2927E-01,   7.6831E-01,   2.3169E-01, Cl]
- [  7.6831E-01,   2.2927E-01,   2.3169E-01, Cl]
- [ -5.6342E-03,  -5.6342E-03,   5.6342E-03, Zr]
cartesian_forces: # hartree/bohr
- [ -3.86049443E-19,   8.62579530E-20,  -2.31116219E-04, ]
- [ -3.92970501E-19,   9.31790104E-20,  -2.31116219E-04, ]
- [ -8.26833461E-19,   5.27041971E-19,  -5.25449500E-03, ]
- [  1.72464628E-18,  -2.02443777E-18,   2.22469422E-02, ]
- [  2.28126779E-02,   1.83512048E-13,  -1.28672118E-03, ]
- [  1.83511580E-13,   2.28126779E-02,  -1.28672118E-03, ]
- [ -1.83509321E-13,  -2.28126779E-02,  -1.28672118E-03, ]
- [ -2.28126779E-02,  -1.83510145E-13,  -1.28672118E-03, ]
- [ -3.98970126E-19,   9.91786355E-20,  -1.13833300E-02, ]
force_length_stats: {min:   2.31116219E-04, max:   2.28489371E-02, mean:   1.45269720E-02, }
...

 Integrated electronic density in atomic spheres:
 ------------------------------------------------
 Atom  Sphere_radius  Integrated_density
    1        2.20660          5.35908102
    2        2.20660          5.35908102
    3        2.30022          4.01970531
    4        1.80316          4.32594304
    5        1.80316          4.34008037
    6        1.80316          4.34008037
    7        1.80316          4.34008037
    8        1.80316          4.34008037
    9        2.21000          8.70902194

 PAW TEST:
 ==== Compensation charge inside spheres ============
 The following values must be close to each other ...
 Compensation charge over spherical meshes =     -5.936829686492025
 Compensation charge over fine fft grid    =     -5.936853460759771

 ==== Results concerning PAW augmentation regions ====

 Total pseudopotential strength Dij (hartree):
 Atom #  1
   0.42349  -0.14033   0.00000   0.00000   0.00000   0.00000  -0.00000   0.00000  -0.00000   0.00000   0.00000   0.00000 ...
  -0.14033   0.04217   0.00000  -0.00000   0.00000   0.00000   0.00000   0.00000   0.00000   0.00000  -0.00000   0.00000 ...
   0.00000   0.00000  -0.09155   0.00000  -0.00000  -0.16774   0.00000   0.00000   0.00000   0.00000   0.00000  -0.00000 ...
   0.00000  -0.00000   0.00000  -0.09155   0.00000   0.00000  -0.16774   0.00000  -0.00000   0.00000   0.00000   0.00000 ...
   0.00000   0.00000  -0.00000   0.00000  -0.09155   0.00000   0.00000  -0.16774   0.00000  -0.00000   0.00000   0.00000 ...
   0.00000   0.00000  -0.16774   0.00000   0.00000   0.39887   0.00000  -0.00001   0.00000  -0.00000   0.00000   0.00000 ...
  -0.00000   0.00000   0.00000  -0.16774   0.00000   0.00000   0.39887   0.00000   0.00000   0.00000  -0.00000   0.00000 ...
   0.00000   0.00000   0.00000   0.00000  -0.16774  -0.00001   0.00000   0.39887   0.00000   0.00000   0.00000  -0.00000 ...
  -0.00000   0.00000   0.00000  -0.00000   0.00000   0.00000   0.00000   0.00000   0.00551   0.00000   0.00000   0.00000 ...
   0.00000   0.00000   0.00000   0.00000  -0.00000  -0.00000   0.00000   0.00000   0.00000   0.00551   0.00000  -0.00000 ...
   0.00000  -0.00000   0.00000   0.00000   0.00000   0.00000  -0.00000   0.00000   0.00000   0.00000   0.00551   0.00000 ...
   0.00000   0.00000  -0.00000   0.00000   0.00000   0.00000   0.00000  -0.00000   0.00000  -0.00000   0.00000   0.00551 ...
   ...  only 12  components have been written...
 Atom #  9
   3.07219  -0.89458   0.00000   0.00000   0.00000   0.00000   0.00001   0.00000   0.00000   0.00000  -0.00002   0.00000 ...
  -0.89458   0.26727   0.00000  -0.00001   0.00000   0.00000  -0.00000   0.00000   0.00000   0.00000  -0.00000   0.00000 ...
   0.00000   0.00000   0.27260   0.00000   0.00000  -0.05549   0.00000   0.00000   0.00000  -0.00009   0.00000   0.00000 ...
   0.00000  -0.00001   0.00000   0.27252   0.00000   0.00000  -0.05548   0.00000   0.00000   0.00000  -0.00016   0.00000 ...
   0.00000   0.00000   0.00000   0.00000   0.27260   0.00000   0.00000  -0.05549   0.00000   0.00000   0.00000  -0.00009 ...
   0.00000   0.00000  -0.05549   0.00000   0.00000   0.01516   0.00000   0.00000   0.00000   0.00002   0.00000   0.00000 ...
   0.00001  -0.00000   0.00000  -0.05548   0.00000   0.00000   0.01516   0.00000   0.00000   0.00000   0.00003   0.00000 ...
   0.00000   0.00000   0.00000   0.00000  -0.05549   0.00000   0.00000   0.01516   0.00000   0.00000   0.00000   0.00002 ...
   0.00000   0.00000   0.00000   0.00000   0.00000   0.00000   0.00000   0.00000  -0.01090   0.00000   0.00000   0.00000 ...
   0.00000   0.00000  -0.00009   0.00000   0.00000   0.00002   0.00000   0.00000   0.00000  -0.01088   0.00000   0.00000 ...
  -0.00002  -0.00000   0.00000  -0.00016   0.00000   0.00000   0.00003   0.00000   0.00000   0.00000  -0.01074   0.00000 ...
   0.00000   0.00000   0.00000   0.00000  -0.00009   0.00000   0.00000   0.00002   0.00000   0.00000   0.00000  -0.01088 ...
   ...  only 12  components have been written...


 Augmentation waves occupancies Rhoij:
 Atom #  1
   1.99677  -0.01701   0.00000   0.00002   0.00000   0.00000   0.00001   0.00000  -0.00192   0.00000   0.00095   0.00000 ...
  -0.01701   0.09034   0.00000   0.00032   0.00000   0.00000   0.00003   0.00000   0.02120   0.00000  -0.01289   0.00000 ...
   0.00000   0.00000   2.01041   0.00000   0.00137  -0.00516   0.00000  -0.00024   0.00000   0.00022   0.00000   0.00063 ...
   0.00002   0.00032   0.00000   2.00926   0.00000   0.00000  -0.00494   0.00000   0.00054   0.00000   0.00098   0.00000 ...
   0.00000   0.00000   0.00137   0.00000   2.01041  -0.00024   0.00000  -0.00516   0.00000   0.00063   0.00000   0.00022 ...
   0.00000   0.00000  -0.00516   0.00000  -0.00024   0.00007   0.00000   0.00002   0.00000   0.00003   0.00000  -0.00007 ...
   0.00001   0.00003   0.00000  -0.00494   0.00000   0.00000   0.00005   0.00000  -0.00007   0.00000  -0.00003   0.00000 ...
   0.00000   0.00000  -0.00024   0.00000  -0.00516   0.00002   0.00000   0.00007   0.00000  -0.00007   0.00000   0.00003 ...
  -0.00192   0.02120   0.00000   0.00054   0.00000   0.00000  -0.00007   0.00000   0.03855   0.00000  -0.01186   0.00000 ...
   0.00000   0.00000   0.00022   0.00000   0.00063   0.00003   0.00000  -0.00007   0.00000   0.01994   0.00000   0.00059 ...
   0.00095  -0.01289   0.00000   0.00098   0.00000   0.00000  -0.00003   0.00000  -0.01186   0.00000   0.01875   0.00000 ...
   0.00000   0.00000   0.00063   0.00000   0.00022  -0.00007   0.00000   0.00003   0.00000   0.00059   0.00000   0.01994 ...
   ...  only 12  components have been written...
 Atom #  9
   1.98974  -0.08078   0.00000  -0.00022   0.00000   0.00000   0.00059   0.00000   0.00000   0.00000   0.00469   0.00000 ...
  -0.08078   0.96805   0.00000   0.00302   0.00000   0.00000   0.03798   0.00000   0.00000   0.00000   0.02508   0.00000 ...
   0.00000   0.00000   1.95713   0.00000   0.00000  -0.25965   0.00000   0.00000   0.00000  -0.00105   0.00000   0.00000 ...
  -0.00022   0.00302   0.00000   1.95782   0.00000   0.00000  -0.24977   0.00000   0.00000   0.00000   0.00582   0.00000 ...
   0.00000   0.00000   0.00000   0.00000   1.95713   0.00000   0.00000  -0.25965   0.00000   0.00000   0.00000  -0.00105 ...
   0.00000   0.00000  -0.25965   0.00000   0.00000   1.39936   0.00000   0.00000   0.00000   0.03346   0.00000   0.00000 ...
   0.00059   0.03798   0.00000  -0.24977   0.00000   0.00000   1.43565   0.00000   0.00000   0.00000   0.00067   0.00000 ...
   0.00000   0.00000   0.00000   0.00000  -0.25965   0.00000   0.00000   1.39936   0.00000   0.00000   0.00000   0.03346 ...
   0.00000   0.00000   0.00000   0.00000   0.00000   0.00000   0.00000   0.00000   0.37871   0.00000   0.00000   0.00000 ...
   0.00000   0.00000  -0.00105   0.00000   0.00000   0.03346   0.00000   0.00000   0.00000   0.38747   0.00000   0.00000 ...
   0.00469   0.02508   0.00000   0.00582   0.00000   0.00000   0.00067   0.00000   0.00000   0.00000   1.18295   0.00000 ...
   0.00000   0.00000   0.00000   0.00000  -0.00105   0.00000   0.00000   0.03346   0.00000   0.00000   0.00000   0.38747 ...
   ...  only 12  components have been written...



---OUTPUT-----------------------------------------------------------------------

 Cartesian coordinates (xcart) [bohr]
  5.37159304041173E+00  5.37159304041173E+00  5.31961277565815E+00
  1.61147791212360E+01  1.61147791212360E+01  1.60577167554824E+01
  1.07431860807811E+01  1.07431860807811E+01  5.37952777663507E+00
  1.07431860808700E+01  1.07431860808700E+01  1.64203876209660E+01
  1.65341625578028E+01  1.07431860807775E+01  1.07121467973743E+01
  1.07431860807775E+01  1.65341625578028E+01  1.07121467973743E+01
  1.07431860808706E+01  4.95220960384528E+00  1.07121467973743E+01
  4.95220960384528E+00  1.07431860808706E+01  1.07121467973743E+01
 -9.73801751603389E-13 -9.73801751603389E-13 -1.21000279313872E-01
 Reduced coordinates (xred)
  2.47697954203699E-01  2.47697954203699E-01  2.52302045796301E-01
  7.47697954203699E-01  7.47697954203699E-01  7.52302045796301E-01
  2.50487785680908E-01  2.50487785680908E-01  7.49512214319092E-01
  7.64585053926564E-01  7.64585053926564E-01  2.35414946073436E-01
  2.29272773429984E-01  7.68309929950544E-01  7.70727226570016E-01
  7.68309929950544E-01  2.29272773429984E-01  7.70727226570016E-01
  2.29272773429984E-01  7.68309929950544E-01  2.31690070049456E-01
  7.68309929950544E-01  2.29272773429984E-01  2.31690070049456E-01
 -5.63415476052466E-03 -5.63415476052466E-03  5.63415476052466E-03
 Cartesian forces (fcart) [Ha/bohr]; max,rms= 2.28127E-02 1.00748E-02 (free atoms)
 -3.86049443195199E-19  8.62579529946824E-20 -2.31116218605211E-04
 -3.92970500612561E-19  9.31790104120441E-20 -2.31116218605212E-04
 -8.26833461412760E-19  5.27041971212243E-19 -5.25449500342538E-03
  1.72464628333330E-18 -2.02443777353381E-18  2.22469421569908E-02
  2.28126779181045E-02  1.83512047694812E-13 -1.28672117550370E-03
  1.83511579867095E-13  2.28126779181045E-02 -1.28672117550370E-03
 -1.83509320987025E-13 -2.28126779181045E-02 -1.28672117513651E-03
 -2.28126779181045E-02 -1.83510144935110E-13 -1.28672117513650E-03
 -3.98970125737132E-19  9.91786355366156E-20 -1.13833300150746E-02
 Reduced forces (fred)
  2.48174998680656E-03  2.48174998680657E-03  3.22071576464584E-18
  2.48174998680656E-03  2.48174998680657E-03  3.22071576464584E-18
  5.64233137082489E-02  5.64233137082489E-02  3.22071576464584E-18
 -2.38889978114904E-01 -2.38889978114904E-01  3.22071576464584E-18
  1.38169457736289E-02 -2.31263898102478E-01 -2.45080843876107E-01
 -2.31263898102478E-01  1.38169457736289E-02 -2.45080843876107E-01
  2.58897789649736E-01  1.38169457736290E-02  2.45080843876107E-01
  1.38169457736290E-02  2.58897789649736E-01  2.45080843876107E-01
  1.22235381338526E-01  1.22235381338526E-01  3.22071576464584E-18
 Scale of Primitive Cell (acell) [bohr]
  1.51895662956712E+01  1.51895662956712E+01  1.51931594584773E+01
 Real space primitive translations (rprimd) [bohr]
  0.00000000000000E+00  1.07431860809107E+01  1.07381039798243E+01
  1.07431860809107E+01  0.00000000000000E+00  1.07381039798243E+01
  1.07431860807378E+01  1.07431860807378E+01  0.00000000000000E+00
 Unitary Cell Volume (ucvol) [Bohr^3]=  2.47869903084374E+03
 Angles (23,13,12)= [degrees]
  5.99921745254900E+01  5.99921745254900E+01  6.00156509490199E+01
 Lengths [Bohr]
  1.51895662956712E+01  1.51895662956712E+01  1.51931594584773E+01
 Stress tensor in cartesian coordinates (strten) [Ha/bohr^3]
  9.95918287789461E-05  4.34742999956168E-14 -2.17471285527834E-14
  4.34742999956168E-14  9.95918287789456E-05 -2.17472144433202E-14
 -2.17471285527834E-14 -2.17472144433202E-14  7.18741086668515E-05
 Total energy (etotal) [Ha]= -1.76305600626190E+02

 Difference of energy with previous step (new-old):
           Absolute (Ha)=-5.44575E-03
           Relative     =-3.08886E-05

--- Iteration: (   3/1000) Internal Cycle: (1/1)
--------------------------------------------------------------------------------

---SELF-CONSISTENT-FIELD CONVERGENCE--------------------------------------------

--- !BeginCycle
iteration_state: {dtset: 1, itime: 3, icycle: 1, }
solver: {iscf: 17, nstep: 2500, nline: 4, wfoptalg: 10, }
tolerances: {toldff: 1.00E-08, }
...

     iter   Etot(hartree)      deltaE(h)  residm     nres2    diffor    maxfor
 ETOT  1  -178.70914810214    -1.787E+02 8.130E+06 7.711E+02 2.025E+00 2.048E+00
 ETOT  2  -177.61334317489     1.096E+00 3.673E+04 2.936E+02 2.647E+00 5.989E-01
 ETOT  3  -176.70298883943     9.104E-01 7.308E+04 9.053E+01 3.616E-01 2.373E-01
 ETOT  4  -176.38065226109     3.223E-01 2.504E+03 1.377E+01 1.921E-01 4.893E-02
 ETOT  5  -176.34566387265     3.499E-02 1.369E+02 5.840E+00 1.219E-02 5.664E-02
 ETOT  6  -176.32089075348     2.477E-02 1.368E+03 4.360E-01 6.626E-02 1.405E-02
 ETOT  7  -176.32117179567    -2.810E-04 1.149E+03 3.213E-01 1.506E-02 7.752E-03
 ETOT  8  -176.32036551354     8.063E-04 4.727E+02 8.367E-02 3.595E-03 4.683E-03
 ETOT  9  -176.32017480344     1.907E-04 7.876E+02 2.465E-02 1.353E-02 1.529E-02
 ETOT 10  -176.32018142222    -6.619E-06 2.206E+02 6.852E-03 3.873E-03 1.184E-02
 ETOT 11  -176.32021220155    -3.078E-05 1.107E+02 1.191E-03 3.600E-03 1.544E-02
 ETOT 12  -176.32021345908    -1.258E-06 1.005E+02 2.802E-04 9.399E-04 1.500E-02
 ETOT 13  -176.32021353141    -7.233E-08 3.397E+00 4.570E-05 2.225E-04 1.511E-02
 ETOT 14  -176.32021343672     9.469E-08 3.564E+01 1.531E-05 1.929E-04 1.530E-02
 ETOT 15  -176.32021343451     2.210E-09 3.216E-01 4.117E-06 7.722E-05 1.535E-02
 ETOT 16  -176.32021342371     1.080E-08 1.441E+01 5.792E-07 2.443E-05 1.538E-02
 ETOT 17  -176.32021342249     1.221E-09 4.984E-02 1.245E-07 6.445E-06 1.538E-02
 ETOT 18  -176.32021342172     7.628E-10 5.604E+00 5.068E-08 6.698E-06 1.538E-02
 ETOT 19  -176.32021342134     3.829E-10 8.739E-03 7.591E-09 2.992E-06 1.539E-02
 ETOT 20  -176.32021342106     2.796E-10 2.094E+00 3.126E-09 1.028E-06 1.539E-02
 ETOT 21  -176.32021342090     1.630E-10 1.755E-02 4.677E-10 6.484E-07 1.539E-02
 ETOT 22  -176.32021342077     1.247E-10 7.592E-01 1.042E-10 1.847E-07 1.539E-02
 ETOT 23  -176.32021342067     1.023E-10 1.551E-02 3.372E-11 1.350E-07 1.539E-02
 ETOT 24  -176.32021342062     4.729E-11 2.692E-01 4.410E-12 5.399E-08 1.539E-02
 ETOT 25  -176.32021342060     2.393E-11 1.013E-02 2.210E-12 2.851E-08 1.539E-02
 ETOT 26  -176.32021342057     3.016E-11 9.387E-02 6.664E-13 1.484E-08 1.539E-02
 ETOT 27  -176.32021342055     2.018E-11 5.627E-03 3.128E-13 5.307E-09 1.539E-02
 ETOT 28  -176.32021342055     3.354E-12 3.232E-02 7.974E-14 3.461E-09 1.539E-02

 At SCF step   28, forces are converged : 
  for the second time, max diff in force=  3.461E-09 < toldff=  1.000E-08

 Cartesian components of stress tensor (hartree/bohr^3)
  sigma(1 1)= -3.85258362E-05  sigma(3 2)= -2.39466178E-14
  sigma(2 2)= -3.85258362E-05  sigma(3 1)= -2.39465416E-14
  sigma(3 3)= -4.82823600E-05  sigma(2 1)=  4.82453993E-14


--- !ResultsGS
iteration_state: {dtset: 1, itime: 3, icycle: 1, }
comment   : Summary of ground state results
lattice_vectors:
- [  0.0000000,  10.4496576,  10.5265281, ]
- [ 10.4496576,   0.0000000,  10.5265281, ]
- [ 10.4496576,  10.4496576,   0.0000000, ]
lattice_lengths: [  14.83250,   14.83250,   14.77805, ]
lattice_angles: [ 60.121,  60.121,  59.757, ] # degrees, (23, 13, 12)
lattice_volume:   2.2988957E+03
convergence: {deltae:  3.354E-12, res2:  7.974E-14, residm:  3.232E-02, diffor:  3.461E-09, }
etotal    :  -1.76320213E+02
entropy   :   0.00000000E+00
fermie    :  -1.94562869E-02
cartesian_stress_tensor: # hartree/bohr^3
- [ -3.85258362E-05,   4.82453993E-14,  -2.39465416E-14, ]
- [  4.82453993E-14,  -3.85258362E-05,  -2.39466178E-14, ]
- [ -2.39465416E-14,  -2.39466178E-14,  -4.82823600E-05, ]
pressure_GPa:   1.2292E+00
xred      :
- [  2.4760E-01,   2.4760E-01,   2.5240E-01, Cs]
- [  7.4760E-01,   7.4760E-01,   7.5240E-01, Cs]
- [  2.4825E-01,   2.4825E-01,   7.5175E-01,  I]
- [  7.7407E-01,   7.7407E-01,   2.2593E-01, Cl]
- [  2.1902E-01,   7.7746E-01,   7.8098E-01, Cl]
- [  7.7746E-01,   2.1902E-01,   7.8098E-01, Cl]
- [  2.1902E-01,   7.7746E-01,   2.2254E-01, Cl]
- [  7.7746E-01,   2.1902E-01,   2.2254E-01, Cl]
- [ -1.0485E-02,  -1.0485E-02,   1.0485E-02, Zr]
cartesian_forces: # hartree/bohr
- [  1.18550441E-19,  -2.95465522E-20,  -2.08656891E-04, ]
- [  1.12196347E-19,  -2.31924586E-20,  -2.08656891E-04, ]
- [  2.76241199E-19,  -1.87237311E-19,   1.10097064E-02, ]
- [ -2.09746466E-19,   2.98750354E-19,  -1.53860635E-02, ]
- [ -9.53032587E-03,  -7.69637029E-14,  -5.08820554E-04, ]
- [ -7.69635589E-14,  -9.53032587E-03,  -5.08820554E-04, ]
- [  7.69622605E-14,   9.53032587E-03,  -5.08820554E-04, ]
- [  9.53032587E-03,   7.69636480E-14,  -5.08820554E-04, ]
- [  8.02927240E-19,  -7.13923351E-19,   6.82895316E-03, ]
force_length_stats: {min:   2.08656891E-04, max:   1.53860635E-02, mean:   7.97973702E-03, }
...

 Integrated electronic density in atomic spheres:
 ------------------------------------------------
 Atom  Sphere_radius  Integrated_density
    1        2.20660          5.36225921
    2        2.20660          5.36225921
    3        2.30022          4.03425808
    4        1.80316          4.38347199
    5        1.80316          4.36633219
    6        1.80316          4.36633219
    7        1.80316          4.36633219
    8        1.80316          4.36633219
    9        2.21000          8.85871913

 PAW TEST:
 ==== Compensation charge inside spheres ============
 The following values must be close to each other ...
 Compensation charge over spherical meshes =     -5.934451999089566
 Compensation charge over fine fft grid    =     -5.934445834841083

 ==== Results concerning PAW augmentation regions ====

 Total pseudopotential strength Dij (hartree):
 Atom #  1
   0.41938  -0.13900   0.00000  -0.00000   0.00000   0.00000   0.00001   0.00000  -0.00001   0.00000   0.00000   0.00000 ...
  -0.13900   0.04173   0.00000   0.00000   0.00000   0.00000  -0.00000   0.00000   0.00000   0.00000  -0.00000   0.00000 ...
   0.00000   0.00000  -0.09104   0.00000  -0.00000  -0.16805   0.00000   0.00001   0.00000  -0.00000   0.00000  -0.00000 ...
  -0.00000   0.00000   0.00000  -0.09104   0.00000   0.00000  -0.16806   0.00000  -0.00000   0.00000  -0.00000   0.00000 ...
   0.00000   0.00000  -0.00000   0.00000  -0.09104   0.00001   0.00000  -0.16805   0.00000  -0.00000   0.00000  -0.00000 ...
   0.00000   0.00000  -0.16805   0.00000   0.00001   0.39764   0.00000  -0.00002   0.00000   0.00000   0.00000   0.00000 ...
   0.00001  -0.00000   0.00000  -0.16806   0.00000   0.00000   0.39765   0.00000   0.00000   0.00000   0.00000   0.00000 ...
   0.00000   0.00000   0.00001   0.00000  -0.16805  -0.00002   0.00000   0.39764   0.00000   0.00000   0.00000   0.00000 ...
  -0.00001   0.00000   0.00000  -0.00000   0.00000   0.00000   0.00000   0.00000   0.00558   0.00000   0.00000   0.00000 ...
   0.00000   0.00000  -0.00000   0.00000  -0.00000   0.00000   0.00000   0.00000   0.00000   0.00558   0.00000  -0.00000 ...
   0.00000  -0.00000   0.00000  -0.00000   0.00000   0.00000   0.00000   0.00000   0.00000   0.00000   0.00558   0.00000 ...
   0.00000   0.00000  -0.00000   0.00000  -0.00000   0.00000   0.00000   0.00000   0.00000  -0.00000   0.00000   0.00558 ...
   ...  only 12  components have been written...
 Atom #  9
   3.05010  -0.88778   0.00000   0.00001   0.00000   0.00000   0.00000   0.00000   0.00000   0.00000  -0.00008   0.00000 ...
  -0.88778   0.26514   0.00000  -0.00001   0.00000   0.00000   0.00000   0.00000   0.00000   0.00000   0.00001   0.00000 ...
   0.00000   0.00000   0.27872   0.00000   0.00000  -0.05700   0.00000   0.00000   0.00000  -0.00008   0.00000   0.00000 ...
   0.00001  -0.00001   0.00000   0.27860   0.00000   0.00000  -0.05697   0.00000   0.00000   0.00000  -0.00007   0.00000 ...
   0.00000   0.00000   0.00000   0.00000   0.27872   0.00000   0.00000  -0.05700   0.00000   0.00000   0.00000  -0.00008 ...
   0.00000   0.00000  -0.05700   0.00000   0.00000   0.01551   0.00000   0.00000   0.00000   0.00002   0.00000   0.00000 ...
   0.00000   0.00000   0.00000  -0.05697   0.00000   0.00000   0.01550   0.00000   0.00000   0.00000   0.00001   0.00000 ...
   0.00000   0.00000   0.00000   0.00000  -0.05700   0.00000   0.00000   0.01551   0.00000   0.00000   0.00000   0.00002 ...
   0.00000   0.00000   0.00000   0.00000   0.00000   0.00000   0.00000   0.00000  -0.00368   0.00000   0.00000   0.00000 ...
   0.00000   0.00000  -0.00008   0.00000   0.00000   0.00002   0.00000   0.00000   0.00000  -0.00376   0.00000   0.00000 ...
  -0.00008   0.00001   0.00000  -0.00007   0.00000   0.00000   0.00001   0.00000   0.00000   0.00000  -0.00371   0.00000 ...
   0.00000   0.00000   0.00000   0.00000  -0.00008   0.00000   0.00000   0.00002   0.00000   0.00000   0.00000  -0.00376 ...
   ...  only 12  components have been written...


 Augmentation waves occupancies Rhoij:
 Atom #  1
   1.99718  -0.01601   0.00000   0.00001   0.00000   0.00000  -0.00001   0.00000  -0.00545   0.00000   0.00202   0.00000 ...
  -0.01601   0.11008   0.00000  -0.00182   0.00000   0.00000   0.00009   0.00000   0.03247   0.00000  -0.01963   0.00000 ...
   0.00000   0.00000   2.01075   0.00000   0.00386  -0.00519   0.00000  -0.00056   0.00000  -0.00148   0.00000   0.00165 ...
   0.00001  -0.00182   0.00000   2.00821   0.00000   0.00000  -0.00478   0.00000   0.00154   0.00000   0.00057   0.00000 ...
   0.00000   0.00000   0.00386   0.00000   2.01075  -0.00056   0.00000  -0.00519   0.00000   0.00165   0.00000  -0.00148 ...
   0.00000   0.00000  -0.00519   0.00000  -0.00056   0.00009   0.00000   0.00003   0.00000   0.00007   0.00000  -0.00009 ...
  -0.00001   0.00009   0.00000  -0.00478   0.00000   0.00000   0.00006   0.00000  -0.00009   0.00000  -0.00004   0.00000 ...
   0.00000   0.00000  -0.00056   0.00000  -0.00519   0.00003   0.00000   0.00009   0.00000  -0.00009   0.00000   0.00007 ...
  -0.00545   0.03247   0.00000   0.00154   0.00000   0.00000  -0.00009   0.00000   0.05237   0.00000  -0.01864   0.00000 ...
   0.00000   0.00000  -0.00148   0.00000   0.00165   0.00007   0.00000  -0.00009   0.00000   0.02389   0.00000   0.00062 ...
   0.00202  -0.01963   0.00000   0.00057   0.00000   0.00000  -0.00004   0.00000  -0.01864   0.00000   0.02532   0.00000 ...
   0.00000   0.00000   0.00165   0.00000  -0.00148  -0.00009   0.00000   0.00007   0.00000   0.00062   0.00000   0.02389 ...
   ...  only 12  components have been written...
 Atom #  9
   1.99365  -0.06869   0.00000   0.00030   0.00000   0.00000   0.00170   0.00000   0.00000   0.00000   0.00334   0.00000 ...
  -0.06869   1.10440   0.00000   0.00449   0.00000   0.00000  -0.08086   0.00000   0.00000   0.00000  -0.02546   0.00000 ...
   0.00000   0.00000   1.96589   0.00000   0.00000  -0.20802   0.00000   0.00000   0.00000  -0.00358   0.00000   0.00000 ...
   0.00030   0.00449   0.00000   1.96793   0.00000   0.00000  -0.19427   0.00000   0.00000   0.00000  -0.00050   0.00000 ...
   0.00000   0.00000   0.00000   0.00000   1.96589   0.00000   0.00000  -0.20802   0.00000   0.00000   0.00000  -0.00358 ...
   0.00000   0.00000  -0.20802   0.00000   0.00000   1.95164   0.00000   0.00000   0.00000   0.06763   0.00000   0.00000 ...
   0.00170  -0.08086   0.00000  -0.19427   0.00000   0.00000   1.78491   0.00000   0.00000   0.00000  -0.27811   0.00000 ...
   0.00000   0.00000   0.00000   0.00000  -0.20802   0.00000   0.00000   1.95164   0.00000   0.00000   0.00000   0.06763 ...
   0.00000   0.00000   0.00000   0.00000   0.00000   0.00000   0.00000   0.00000   0.56392   0.00000   0.00000   0.00000 ...
   0.00000   0.00000  -0.00358   0.00000   0.00000   0.06763   0.00000   0.00000   0.00000   0.55178   0.00000   0.00000 ...
   0.00334  -0.02546   0.00000  -0.00050   0.00000   0.00000  -0.27811   0.00000   0.00000   0.00000   1.62707   0.00000 ...
   0.00000   0.00000   0.00000   0.00000  -0.00358   0.00000   0.00000   0.06763   0.00000   0.00000   0.00000   0.55178 ...
   ...  only 12  components have been written...



---OUTPUT-----------------------------------------------------------------------

 Cartesian coordinates (xcart) [bohr]
  5.22482878449478E+00  5.22482878449478E+00  5.21272532529188E+00
  1.56744863534851E+01  1.56744863534851E+01  1.57392534096445E+01
  1.04496575689479E+01  1.04496575689479E+01  5.22635605705736E+00
  1.04496575690366E+01  1.04496575690366E+01  1.62964608165552E+01
  1.62851523286087E+01  1.04496575689429E+01  1.04895429901090E+01
  1.04496575689429E+01  1.62851523286087E+01  1.04895429901090E+01
  1.04496575690372E+01  4.61416280937141E+00  1.04895429901090E+01
  4.61416280937141E+00  1.04496575690372E+01  1.04895429901090E+01
 -1.76961774939369E-12 -1.76961774939369E-12 -2.20742893840069E-01
 Reduced coordinates (xred)
  2.47599459362126E-01  2.47599459362126E-01  2.52400540637874E-01
  7.47599459362126E-01  7.47599459362126E-01  7.52400540637874E-01
  2.48246906063273E-01  2.48246906063273E-01  7.51753093936727E-01
  7.74066277407242E-01  7.74066277407242E-01  2.25933722592758E-01
  2.19023818267213E-01  7.77462668640229E-01  7.80976181732787E-01
  7.77462668640228E-01  2.19023818267213E-01  7.80976181732787E-01
  2.19023818267213E-01  7.77462668640229E-01  2.22537331359771E-01
  7.77462668640229E-01  2.19023818267213E-01  2.22537331359771E-01
 -1.04850759942491E-02 -1.04850759942491E-02  1.04850759942491E-02
 Cartesian forces (fcart) [Ha/bohr]; max,rms= 1.53861E-02 5.33684E-03 (free atoms)
  1.18550440863887E-19 -2.95465521693931E-20 -2.08656890668301E-04
  1.12196347342927E-19 -2.31924586484329E-20 -2.08656890668301E-04
  2.76241199354673E-19 -1.87237310660179E-19  1.10097063793273E-02
 -2.09746465751893E-19  2.98750354446387E-19 -1.53860635373471E-02
 -9.53032587346492E-03 -7.69637028943056E-14 -5.08820554132289E-04
 -7.69635589491352E-14 -9.53032587346492E-03 -5.08820554132288E-04
  7.69622605057110E-14  9.53032587346492E-03 -5.08820554285091E-04
  9.53032587346492E-03  7.69636479530239E-14 -5.08820554285092E-04
  8.02927239871404E-19 -7.13923351176910E-19  6.82895315619116E-03
 Reduced forces (fred)
  2.19643261961356E-03  2.19643261961356E-03 -9.30060159158488E-19
  2.19643261961356E-03  2.19643261961356E-03 -9.30060159158488E-19
 -1.15893983402465E-01 -1.15893983402465E-01 -9.30060159158487E-19
  1.61961829933518E-01  1.61961829933518E-01 -9.30060159158488E-19
  5.35611385377363E-03  1.04944755752371E-01  9.95886418985974E-02
  1.04944755752371E-01  5.35611385377362E-03  9.95886418985974E-02
 -9.42325280448238E-02  5.35611385377363E-03 -9.95886418985974E-02
  5.35611385377363E-03 -9.42325280448238E-02 -9.95886418985974E-02
 -7.18851671853745E-02 -7.18851671853745E-02 -9.30060159158488E-19
 Scale of Primitive Cell (acell) [bohr]
  1.48325027160485E+01  1.48325027160485E+01  1.47780474561015E+01
 Real space primitive translations (rprimd) [bohr]
  0.00000000000000E+00  1.04496575690748E+01  1.05265280843526E+01
  1.04496575690748E+01  0.00000000000000E+00  1.05265280843526E+01
  1.04496575689060E+01  1.04496575689060E+01  0.00000000000000E+00
 Unitary Cell Volume (ucvol) [Bohr^3]=  2.29889569604874E+03
 Angles (23,13,12)= [degrees]
  6.01213730398745E+01  6.01213730398745E+01  5.97572539202509E+01
 Lengths [Bohr]
  1.48325027160485E+01  1.48325027160485E+01  1.47780474561015E+01
 Stress tensor in cartesian coordinates (strten) [Ha/bohr^3]
 -3.85258361726552E-05  4.82453992928164E-14 -2.39465416415973E-14
  4.82453992928164E-14 -3.85258361726552E-05 -2.39466178092032E-14
 -2.39465416415973E-14 -2.39466178092032E-14 -4.82823600495398E-05
 Total energy (etotal) [Ha]= -1.76320213420545E+02

 Difference of energy with previous step (new-old):
           Absolute (Ha)=-1.46128E-02
           Relative     =-8.28799E-05

--- Iteration: (   4/1000) Internal Cycle: (1/1)
--------------------------------------------------------------------------------

---SELF-CONSISTENT-FIELD CONVERGENCE--------------------------------------------

--- !BeginCycle
iteration_state: {dtset: 1, itime: 4, icycle: 1, }
solver: {iscf: 17, nstep: 2500, nline: 4, wfoptalg: 10, }
tolerances: {toldff: 1.00E-08, }
...

     iter   Etot(hartree)      deltaE(h)  residm     nres2    diffor    maxfor
 ETOT  1  -176.48408114144    -1.765E+02 9.205E-03 2.326E+01 5.450E-01 5.604E-01
 ETOT  2  -176.32668946259     1.574E-01 1.037E-02 2.206E+00 5.470E-01 2.614E-02
 ETOT  3  -176.32311484704     3.575E-03 1.262E-03 3.762E-01 2.747E-02 4.368E-02
 ETOT  4  -176.32222262902     8.922E-04 2.275E-03 8.823E-02 3.025E-02 2.695E-02
 ETOT  5  -176.32235729277    -1.347E-04 7.479E-04 2.450E-02 3.117E+01 3.119E+01
 ETOT  6  -176.32251786811    -1.606E-04 1.778E-03 2.806E-03 3.119E+01 7.222E-03
 ETOT  7  -176.32251953800    -1.670E-06 5.936E-04 4.107E-04 2.445E-03 5.561E-03
 ETOT  8  -176.32251460309     4.935E-06 7.425E-04 5.200E-05 5.782E-04 5.352E-03
 ETOT  9  -176.32251421260     3.905E-07 1.863E-04 1.383E-05 1.927E-04 5.261E-03
 ETOT 10  -176.32251411836     9.424E-08 2.508E-04 3.238E-06 3.624E-05 5.224E-03
 ETOT 11  -176.32251410750     1.086E-08 5.579E-05 6.444E-07 1.611E-05 5.217E-03
 ETOT 12  -176.32251410898    -1.481E-09 1.425E-04 6.878E-08 2.538E-05 5.206E-03
 ETOT 13  -176.32251411200    -3.023E-09 2.746E-05 1.497E-08 4.843E-06 5.210E-03
 ETOT 14  -176.32251411288    -8.830E-10 7.868E-05 4.526E-09 2.907E-06 5.208E-03
 ETOT 15  -176.32251411428    -1.397E-09 1.492E-05 1.581E-09 1.160E-06 5.209E-03
 ETOT 16  -176.32251411509    -8.102E-10 4.122E-05 7.354E-10 2.705E-07 5.209E-03
 ETOT 17  -176.32251411559    -4.950E-10 7.984E-06 1.440E-10 3.149E-07 5.209E-03
 ETOT 18  -176.32251411596    -3.730E-10 2.170E-05 8.981E-11 1.135E-07 5.209E-03
 ETOT 19  -176.32251411650    -5.409E-10 4.264E-06 2.924E-11 1.004E-07 5.209E-03
 ETOT 20  -176.32251411694    -4.421E-10 1.152E-05 7.686E-12 5.145E-08 5.209E-03
 ETOT 21  -176.32251411725    -3.041E-10 2.292E-06 3.925E-13 2.999E-08 5.209E-03
 ETOT 22  -176.32251411727    -2.589E-11 6.153E-06 1.306E-13 5.621E-09 5.209E-03
 ETOT 23  -176.32251411729    -1.378E-11 1.238E-06 3.537E-14 2.713E-09 5.209E-03

 At SCF step   23, forces are converged : 
  for the second time, max diff in force=  2.713E-09 < toldff=  1.000E-08

 Cartesian components of stress tensor (hartree/bohr^3)
  sigma(1 1)=  1.45734825E-05  sigma(3 2)= -2.32855442E-14
  sigma(2 2)=  1.45734825E-05  sigma(3 1)= -2.32852905E-14
  sigma(3 3)= -1.12262896E-06  sigma(2 1)=  4.68190551E-14


--- !ResultsGS
iteration_state: {dtset: 1, itime: 4, icycle: 1, }
comment   : Summary of ground state results
lattice_vectors:
- [  0.0000000,  10.5385936,  10.5948074, ]
- [ 10.5385936,   0.0000000,  10.5948074, ]
- [ 10.5385936,  10.5385936,   0.0000000, ]
lattice_lengths: [  14.94362,   14.94362,   14.90382, ]
lattice_angles: [ 60.088,  60.088,  59.824, ] # degrees, (23, 13, 12)
lattice_volume:   2.3533600E+03
convergence: {deltae: -1.378E-11, res2:  3.537E-14, residm:  1.238E-06, diffor:  2.713E-09, }
etotal    :  -1.76322514E+02
entropy   :   0.00000000E+00
fermie    :  -2.67795112E-02
cartesian_stress_tensor: # hartree/bohr^3
- [  1.45734825E-05,   4.68190551E-14,  -2.32852905E-14, ]
- [  4.68190551E-14,   1.45734825E-05,  -2.32855442E-14, ]
- [ -2.32852905E-14,  -2.32855442E-14,  -1.12262896E-06, ]
pressure_GPa:  -2.7483E-01
xred      :
- [  2.4762E-01,   2.4762E-01,   2.5238E-01, Cs]
- [  7.4762E-01,   7.4762E-01,   7.5238E-01, Cs]
- [  2.4921E-01,   2.4921E-01,   7.5079E-01,  I]
- [  7.7097E-01,   7.7097E-01,   2.2903E-01, Cl]
- [  2.2213E-01,   7.7462E-01,   7.7787E-01, Cl]
- [  7.7462E-01,   2.2213E-01,   7.7787E-01, Cl]
- [  2.2213E-01,   7.7462E-01,   2.2538E-01, Cl]
- [  7.7462E-01,   2.2213E-01,   2.2538E-01, Cl]
- [ -8.9318E-03,  -8.9318E-03,   8.9318E-03, Zr]
cartesian_forces: # hartree/bohr
- [ -7.63045428E-20,   1.76713517E-20,  -1.99326814E-04, ]
- [ -9.68803846E-20,   3.82471935E-20,  -1.99326814E-04, ]
- [  1.09103040E-19,  -1.67736232E-19,   5.20873750E-03, ]
- [ -9.43027482E-20,   3.56695571E-20,   1.40246606E-04, ]
- [  2.88022589E-03,   2.32360207E-14,  -9.53162823E-04, ]
- [  2.32360027E-14,   2.88022589E-03,  -9.53162823E-04, ]
- [ -2.32361838E-14,  -2.88022589E-03,  -9.53162823E-04, ]
- [ -2.88022589E-03,  -2.32360613E-14,  -9.53162823E-04, ]
- [ -1.42685948E-19,   8.40527567E-20,  -1.13767918E-03, ]
force_length_stats: {min:   1.40246606E-04, max:   5.20873750E-03, mean:   2.11341114E-03, }
...

 Integrated electronic density in atomic spheres:
 ------------------------------------------------
 Atom  Sphere_radius  Integrated_density
    1        2.20660          5.36309896
    2        2.20660          5.36309896
    3        2.30022          4.01863589
    4        1.80316          4.36161904
    5        1.80316          4.36347789
    6        1.80316          4.36347789
    7        1.80316          4.36347789
    8        1.80316          4.36347789
    9        2.21000          8.79953141

 PAW TEST:
 ==== Compensation charge inside spheres ============
 The following values must be close to each other ...
 Compensation charge over spherical meshes =     -5.935357251110972
 Compensation charge over fine fft grid    =     -5.935353982090726

 ==== Results concerning PAW augmentation regions ====

 Total pseudopotential strength Dij (hartree):
 Atom #  1
   0.42066  -0.13942   0.00000  -0.00000   0.00000   0.00000   0.00000   0.00000  -0.00000   0.00000   0.00000   0.00000 ...
  -0.13942   0.04187   0.00000   0.00000   0.00000   0.00000  -0.00000   0.00000   0.00000   0.00000  -0.00000   0.00000 ...
   0.00000   0.00000  -0.09120   0.00000  -0.00000  -0.16796   0.00000   0.00000   0.00000  -0.00000   0.00000  -0.00000 ...
  -0.00000   0.00000   0.00000  -0.09120   0.00000   0.00000  -0.16796   0.00000  -0.00000   0.00000  -0.00000   0.00000 ...
   0.00000   0.00000  -0.00000   0.00000  -0.09120   0.00000   0.00000  -0.16796   0.00000  -0.00000   0.00000  -0.00000 ...
   0.00000   0.00000  -0.16796   0.00000   0.00000   0.39802   0.00000  -0.00002   0.00000   0.00000   0.00000   0.00000 ...
   0.00000  -0.00000   0.00000  -0.16796   0.00000   0.00000   0.39803   0.00000   0.00000   0.00000   0.00000   0.00000 ...
   0.00000   0.00000   0.00000   0.00000  -0.16796  -0.00002   0.00000   0.39802   0.00000   0.00000   0.00000   0.00000 ...
  -0.00000   0.00000   0.00000  -0.00000   0.00000   0.00000   0.00000   0.00000   0.00556   0.00000   0.00000   0.00000 ...
   0.00000   0.00000  -0.00000   0.00000  -0.00000   0.00000   0.00000   0.00000   0.00000   0.00556   0.00000  -0.00000 ...
   0.00000  -0.00000   0.00000  -0.00000   0.00000   0.00000   0.00000   0.00000   0.00000   0.00000   0.00556   0.00000 ...
   0.00000   0.00000  -0.00000   0.00000  -0.00000   0.00000   0.00000   0.00000   0.00000  -0.00000   0.00000   0.00556 ...
   ...  only 12  components have been written...
 Atom #  9
   3.05759  -0.89008   0.00000   0.00000   0.00000   0.00000   0.00000   0.00000   0.00000   0.00000  -0.00007   0.00000 ...
  -0.89008   0.26586   0.00000  -0.00001   0.00000   0.00000   0.00000   0.00000   0.00000   0.00000   0.00001   0.00000 ...
   0.00000   0.00000   0.27675   0.00000   0.00000  -0.05651   0.00000   0.00000   0.00000  -0.00009   0.00000   0.00000 ...
   0.00000  -0.00001   0.00000   0.27664   0.00000   0.00000  -0.05649   0.00000   0.00000   0.00000  -0.00012   0.00000 ...
   0.00000   0.00000   0.00000   0.00000   0.27675   0.00000   0.00000  -0.05651   0.00000   0.00000   0.00000  -0.00009 ...
   0.00000   0.00000  -0.05651   0.00000   0.00000   0.01539   0.00000   0.00000   0.00000   0.00002   0.00000   0.00000 ...
   0.00000   0.00000   0.00000  -0.05649   0.00000   0.00000   0.01539   0.00000   0.00000   0.00000   0.00002   0.00000 ...
   0.00000   0.00000   0.00000   0.00000  -0.05651   0.00000   0.00000   0.01539   0.00000   0.00000   0.00000   0.00002 ...
   0.00000   0.00000   0.00000   0.00000   0.00000   0.00000   0.00000   0.00000  -0.00604   0.00000   0.00000   0.00000 ...
   0.00000   0.00000  -0.00009   0.00000   0.00000   0.00002   0.00000   0.00000   0.00000  -0.00609   0.00000   0.00000 ...
  -0.00007   0.00001   0.00000  -0.00012   0.00000   0.00000   0.00002   0.00000   0.00000   0.00000  -0.00601   0.00000 ...
   0.00000   0.00000   0.00000   0.00000  -0.00009   0.00000   0.00000   0.00002   0.00000   0.00000   0.00000  -0.00609 ...
   ...  only 12  components have been written...


 Augmentation waves occupancies Rhoij:
 Atom #  1
   1.99705  -0.01635   0.00000   0.00001   0.00000   0.00000  -0.00000   0.00000  -0.00428   0.00000   0.00172   0.00000 ...
  -0.01635   0.10359   0.00000  -0.00115   0.00000   0.00000   0.00007   0.00000   0.02863   0.00000  -0.01740   0.00000 ...
   0.00000   0.00000   2.01066   0.00000   0.00304  -0.00518   0.00000  -0.00045   0.00000  -0.00096   0.00000   0.00136 ...
   0.00001  -0.00115   0.00000   2.00851   0.00000   0.00000  -0.00483   0.00000   0.00126   0.00000   0.00070   0.00000 ...
   0.00000   0.00000   0.00304   0.00000   2.01066  -0.00045   0.00000  -0.00518   0.00000   0.00136   0.00000  -0.00096 ...
   0.00000   0.00000  -0.00518   0.00000  -0.00045   0.00009   0.00000   0.00003   0.00000   0.00006   0.00000  -0.00009 ...
  -0.00000   0.00007   0.00000  -0.00483   0.00000   0.00000   0.00006   0.00000  -0.00008   0.00000  -0.00004   0.00000 ...
   0.00000   0.00000  -0.00045   0.00000  -0.00518   0.00003   0.00000   0.00009   0.00000  -0.00009   0.00000   0.00006 ...
  -0.00428   0.02863   0.00000   0.00126   0.00000   0.00000  -0.00008   0.00000   0.04781   0.00000  -0.01630   0.00000 ...
   0.00000   0.00000  -0.00096   0.00000   0.00136   0.00006   0.00000  -0.00009   0.00000   0.02256   0.00000   0.00062 ...
   0.00172  -0.01740   0.00000   0.00070   0.00000   0.00000  -0.00004   0.00000  -0.01630   0.00000   0.02312   0.00000 ...
   0.00000   0.00000   0.00136   0.00000  -0.00096  -0.00009   0.00000   0.00006   0.00000   0.00062   0.00000   0.02256 ...
   ...  only 12  components have been written...
 Atom #  9
   1.99212  -0.07363   0.00000   0.00021   0.00000   0.00000   0.00170   0.00000   0.00000   0.00000   0.00365   0.00000 ...
  -0.07363   1.05430   0.00000   0.00441   0.00000   0.00000  -0.03771   0.00000   0.00000   0.00000  -0.01334   0.00000 ...
   0.00000   0.00000   1.96236   0.00000   0.00000  -0.22824   0.00000   0.00000   0.00000  -0.00244   0.00000   0.00000 ...
   0.00021   0.00441   0.00000   1.96408   0.00000   0.00000  -0.21563   0.00000   0.00000   0.00000   0.00272   0.00000 ...
   0.00000   0.00000   0.00000   0.00000   1.96236   0.00000   0.00000  -0.22824   0.00000   0.00000   0.00000  -0.00244 ...
   0.00000   0.00000  -0.22824   0.00000   0.00000   1.76002   0.00000   0.00000   0.00000   0.05309   0.00000   0.00000 ...
   0.00170  -0.03771   0.00000  -0.21563   0.00000   0.00000   1.65255   0.00000   0.00000   0.00000  -0.17192   0.00000 ...
   0.00000   0.00000   0.00000   0.00000  -0.22824   0.00000   0.00000   1.76002   0.00000   0.00000   0.00000   0.05309 ...
   0.00000   0.00000   0.00000   0.00000   0.00000   0.00000   0.00000   0.00000   0.49682   0.00000   0.00000   0.00000 ...
   0.00000   0.00000  -0.00244   0.00000   0.00000   0.05309   0.00000   0.00000   0.00000   0.48765   0.00000   0.00000 ...
   0.00365  -0.01334   0.00000   0.00272   0.00000   0.00000  -0.17192   0.00000   0.00000   0.00000   1.45646   0.00000 ...
   0.00000   0.00000   0.00000   0.00000  -0.00244   0.00000   0.00000   0.05309   0.00000   0.00000   0.00000   0.48765 ...
   ...  only 12  components have been written...



---OUTPUT-----------------------------------------------------------------------

 Cartesian coordinates (xcart) [bohr]
  5.26929679837811E+00  5.26929679837811E+00  5.24697521337067E+00
  1.58078903951351E+01  1.58078903951351E+01  1.58417826271114E+01
  1.05385935967144E+01  1.05385935967144E+01  5.28064762002235E+00
  1.05385935968031E+01  1.05385935968031E+01  1.63364964179896E+01
  1.63610729734661E+01  1.05385935967098E+01  1.05604549642010E+01
  1.05385935967098E+01  1.63610729734661E+01  1.05604549642010E+01
  1.05385935968037E+01  4.71611422004738E+00  1.05604549642010E+01
  4.71611422004738E+00  1.05385935968037E+01  1.05604549642010E+01
 -1.51875475549416E-12 -1.51875475549416E-12 -1.89262425045980E-01
 Reduced coordinates (xred)
  2.47620131658350E-01  2.47620131658350E-01  2.52379868341650E-01
  7.47620131658350E-01  7.47620131658350E-01  7.52379868341650E-01
  2.49209231173647E-01  2.49209231173647E-01  7.50790768826353E-01
  7.70967124744633E-01  7.70967124744633E-01  2.29032875255367E-01
  2.22133247400853E-01  7.74624367136325E-01  7.77866752599147E-01
  7.74624367136325E-01  2.22133247400853E-01  7.77866752599147E-01
  2.22133247400853E-01  7.74624367136325E-01  2.25375632863675E-01
  7.74624367136325E-01  2.22133247400853E-01  2.25375632863675E-01
 -8.93184829393505E-03 -8.93184829393505E-03  8.93184829393505E-03
 Cartesian forces (fcart) [Ha/bohr]; max,rms= 5.20874E-03 1.55565E-03 (free atoms)
 -7.63045428217032E-20  1.76713516646338E-20 -1.99326814352190E-04
 -9.68803846078480E-20  3.82471934507786E-20 -1.99326814352190E-04
  1.09103040472562E-19 -1.67736231629632E-19  5.20873749833912E-03
[...]

 cartesian forces (eV/Angstrom) at end:
    1      0.00000000000000    -0.00000000000000     0.00004837807628
    2      0.00000000000000    -0.00000000000000     0.00004837807628
    3     -0.00000000000000     0.00000000000000    -0.00016338890548
    4     -0.00000000000000     0.00000000000000    -0.00002524443985
    5      0.00004471800645    -0.00000000000000     0.00003588064332
    6     -0.00000000000000     0.00004471800645     0.00003588064332
    7      0.00000000000000    -0.00004471800645     0.00003588064332
    8     -0.00004471800645     0.00000000000000     0.00003588064332
    9      0.00000000000000    -0.00000000000000    -0.00005164538052
 frms,max,avg= 4.2088892E-05 1.6338891E-04   0.000E+00  0.000E+00 -1.123E-04 e/A
 length scales= 14.764265447021 14.764265447021 14.910323797487 bohr
              =  7.812912776137  7.812912776137  7.890203526327 angstroms
 prteigrs : about to open file Cs2TiI6o_DS2_EIG
 Fermi (or HOMO) energy (hartree) =  -0.01958   Average Vxc (hartree)=  -0.27969
 Eigenvalues (hartree) for nkpt=  20  k points:
 kpt#   1, nband= 42, wtk=  0.03125, kpt= -0.1250 -0.2500  0.0000 (reduced coord)
  -1.82054   -1.01220   -1.01220   -1.01145   -0.75405   -0.75386   -0.53140   -0.52108
  -0.51998   -0.51606   -0.51589   -0.40797   -0.27132   -0.27121   -0.27049   -0.26914
  -0.26906   -0.26865   -0.14531   -0.12906   -0.12231   -0.12141   -0.11448   -0.11416
  -0.10658   -0.10473   -0.09703   -0.07737   -0.07286   -0.07173   -0.06616   -0.06520
  -0.05595   -0.04178   -0.02417   -0.02348    0.08398    0.08433    0.08582    0.16381
   0.17173    0.18579
 prteigrs : prtvol=0 or 1, do not print more k-points.


--- !EnergyTerms
iteration_state     : {dtset: 2, itime: 42, icycle: 1, }
comment             : Components of total free energy in Hartree
kinetic             :  5.85497172774897E+01
hartree             :  4.84298965820466E+01
xc                  : -5.41921214769787E+01
Ewald energy        : -1.17478702688188E+02
psp_core            :  6.95895288979268E+00
local_psp           : -1.59808719128884E+02
spherical_terms     :  4.12176979835334E+01
total_energy        : -1.76323278561189E+02
total_energy_eV     : -4.79800041638222E+03
...


--- !EnergyTermsDC
iteration_state     : {dtset: 2, itime: 42, icycle: 1, }
comment             : '"Double-counting" decomposition of free energy'
band_energy         : -2.51419319620393E+01
Ewald energy        : -1.17478702688188E+02
psp_core            :  6.95895288979268E+00
xc_dc               : -5.74667725679948E+01
spherical_terms     :  1.68051757665686E+01
total_energy_dc     : -1.76323278561861E+02
total_energy_dc_eV  : -4.79800041640051E+03
...

 rms coord change=  7.6775E-03   atom, delta coord (reduced):
     1        0.005064118218      0.005064118218     -0.005064118218
     2        0.005064118218      0.005064118218     -0.005064118218
     3       -0.003815323930     -0.003815323930      0.003815323930
     4       -0.010132984817     -0.010132984817      0.010132984817
     5       -0.009031420780      0.009850939121      0.009031420780
     6        0.009850939121     -0.009031420780      0.009031420780
     7       -0.009031420780      0.009850939121     -0.009850939121
     8        0.009850939121     -0.009031420780     -0.009850939121
     9        0.002181035629      0.002181035629     -0.002181035629

 Cartesian components of stress tensor (hartree/bohr^3)
  sigma(1 1)= -2.45222890E-08  sigma(3 2)=  2.05951067E-14
  sigma(2 2)= -2.45222890E-08  sigma(3 1)=  2.05957003E-14
  sigma(3 3)=  1.12561826E-08  sigma(2 1)= -4.03800832E-14

-Cartesian components of stress tensor (GPa)         [Pressure=  3.7059E-04 GPa]
- sigma(1 1)= -7.21470531E-04  sigma(3 2)=  6.05928857E-10
- sigma(2 2)= -7.21470531E-04  sigma(3 1)=  6.05946321E-10
- sigma(3 3)=  3.31168269E-04  sigma(2 1)= -1.18802287E-09

== END DATASET(S) ==============================================================
================================================================================
  
 -outvars: echo values of variables after computation  --------
            acell1     1.4764265814E+01  1.4764265814E+01  1.4910323255E+01 Bohr
            acell2     1.4764265447E+01  1.4764265447E+01  1.4910323797E+01 Bohr
              amu      1.32905430E+02  1.26904470E+02  9.12240000E+01
                       3.54527000E+01
           diemac      1.20000000E+01
          dilatmx      1.15000000E+00
             ecut      1.60000000E+01 Hartree
           ecutsm      5.00000000E-01 Hartree
           etotal1    -1.7632327856E+02
           etotal2    -1.7632327856E+02
            fcart1     1.0561195950E-22 -4.9548115984E-23 -9.3941482634E-07
                       8.0072177894E-23 -2.4008334379E-23 -9.3941482634E-07
                       7.5759491158E-23 -1.9695647643E-23  4.9087482705E-07
                      -7.8328600338E-23  1.3439244385E-22  3.1762349043E-06
                       8.7033827731E-07  6.9333576242E-18 -6.9779500098E-07
                       6.9335273362E-18  8.7033827731E-07 -6.9779500098E-07
                      -6.9334348393E-18 -8.7033827731E-07 -6.9779500097E-07
                      -8.7033827731E-07 -6.9335790115E-18 -6.9779500097E-07
                      -2.6782870719E-22  3.2389255070E-22  1.0028999252E-06
            fcart2     1.0738667699E-22 -1.2698904438E-22  9.4080387440E-07
                       1.0738667699E-22 -1.2698904438E-22  9.4080387440E-07
                      -3.0638966427E-22  2.8678729688E-22 -3.1774085935E-06
                      -2.3419495633E-22  2.1459258894E-22 -4.9092623443E-07
                       8.6962684255E-07 -5.7974509356E-18  6.9776747753E-07
                      -5.7975320079E-18  8.6962684255E-07  6.9776747753E-07
                       5.7974842728E-18 -8.6962684255E-07  6.9776747751E-07
                      -8.6962684255E-07  5.7975653451E-18  6.9776747751E-07
                       4.0269883183E-22 -4.2230119922E-22 -1.0043428309E-06
-          fftalg         112
           ionmov           2
              ixc     -101130
           jdtset        1    2
              kpt     -1.25000000E-01 -2.50000000E-01  0.00000000E+00
                      -1.25000000E-01  5.00000000E-01  0.00000000E+00
                      -2.50000000E-01 -3.75000000E-01  0.00000000E+00
                      -1.25000000E-01 -3.75000000E-01  1.25000000E-01
                      -1.25000000E-01  2.50000000E-01  0.00000000E+00
                      -2.50000000E-01  3.75000000E-01  0.00000000E+00
                      -1.25000000E-01  3.75000000E-01  1.25000000E-01
                      -3.75000000E-01  5.00000000E-01  0.00000000E+00
                      -2.50000000E-01  5.00000000E-01  1.25000000E-01
                      -1.25000000E-01  5.00000000E-01  2.50000000E-01
                      -1.25000000E-01  0.00000000E+00  0.00000000E+00
                      -1.25000000E-01  1.25000000E-01  1.25000000E-01
                      -1.25000000E-01  2.50000000E-01  2.50000000E-01
                      -1.25000000E-01  3.75000000E-01  3.75000000E-01
                      -3.75000000E-01  0.00000000E+00  0.00000000E+00
                      -2.50000000E-01  0.00000000E+00  1.25000000E-01
                      -3.75000000E-01  1.25000000E-01  1.25000000E-01
                      -2.50000000E-01  1.25000000E-01  2.50000000E-01
                      -3.75000000E-01  2.50000000E-01  2.50000000E-01
                      -2.50000000E-01  2.50000000E-01  3.75000000E-01
         kptrlatt        4   -4    4     -4    4    4     -4   -4    4
          kptrlen1     8.61171287E+01
          kptrlen2     8.61171285E+01
P           mkmem           4
            natom           9
            nband          42
           ndtset           2
            ngfft          64      64      64
          ngfftdg         100     100     100
             nkpt          20
            nstep        2500
             nsym           8
            ntime        1000
           ntypat           4
              occ      2.000000  2.000000  2.000000  2.000000  2.000000  2.000000
                       2.000000  2.000000  2.000000  2.000000  2.000000  2.000000
                       2.000000  2.000000  2.000000  2.000000  2.000000  2.000000
                       2.000000  2.000000  2.000000  2.000000  2.000000  2.000000
                       2.000000  2.000000  2.000000  2.000000  2.000000  2.000000
                       2.000000  2.000000  2.000000  2.000000  2.000000  2.000000
                       0.000000  0.000000  0.000000  0.000000  0.000000  0.000000
          optcell           2
        optforces           1
        pawecutdg      4.00000000E+01 Hartree
            prtwf           0
            rprim1     0.0000000000E+00  7.1410192801E-01  7.0004173905E-01
                       7.1410192801E-01  0.0000000000E+00  7.0004173905E-01
                       7.0710678119E-01  7.0710678119E-01  0.0000000000E+00
            rprim2     0.0000000000E+00  7.1410197172E-01  7.0004169446E-01
                       7.1410197172E-01  0.0000000000E+00  7.0004169446E-01
                       7.0710678119E-01  7.0710678119E-01  0.0000000000E+00
           shiftk      5.00000000E-01  5.00000000E-01  5.00000000E-01
          spgroup         107
           strten1    -2.4526535964E-08 -2.4526535964E-08  1.1262091617E-08
                      -2.4611144305E-14 -2.4611204734E-14  4.8252866163E-14
           strten2    -2.4522289037E-08 -2.4522289036E-08  1.1256182567E-08
                       2.0595106708E-14  2.0595700312E-14 -4.0380083245E-14
           symrel      1  0  0   0  1  0   0  0  1       1  0 -1   0  1 -1   0  0 -1
                       0  1 -1   1  0 -1   0  0 -1       0  1  0   1  0  0   0  0  1
                       1  0  0   1  0 -1   1 -1  0       0  1  0   0  1 -1  -1  1  0
                       0  1 -1   0  1  0  -1  1  0       1  0 -1   1  0  0   1 -1  0
           toldff      1.00000000E-08
           tolmxf      1.00000000E-05
            typat1     1  1  2  4  4  4  4  4  3
            typat2     1  1  4  2  4  4  4  4  3
           useylm           1
              wtk        0.03125    0.03125    0.03125    0.06250    0.03125    0.03125
                         0.06250    0.03125    0.06250    0.06250    0.03125    0.06250
                         0.06250    0.06250    0.03125    0.06250    0.06250    0.06250
                         0.06250    0.06250
           xangst1     2.7896081076E+00  2.7896081076E+00  2.6542366317E+00
                       8.3688243229E+00  8.3688243229E+00  8.1236018144E+00
                       5.5792162153E+00  5.5792162153E+00  2.8544808754E+00
                       5.5792162153E+00  5.5792162153E+00  8.3926169712E+00
                       8.6788422162E+00  5.5792162153E+00  5.4522874400E+00
                       5.5792162153E+00  8.6788422162E+00  5.4522874400E+00
                       5.5792162153E+00  2.4795902144E+00  5.4522874400E+00
                       2.4795902144E+00  5.5792162153E+00  5.4522874400E+00
                      -6.4322888430E-13 -6.4321419669E-13 -7.9164591422E-02
           xangst2     2.7896082092E+00  2.7896082092E+00  2.8151278265E+00
                       8.3688246276E+00  8.3688246276E+00  8.2844925250E+00
                       5.5792164184E+00  5.5792164184E+00  2.5461135591E+00
                       5.5792164184E+00  5.5792164184E+00  8.0842486869E+00
                       8.6788426225E+00  5.5792164184E+00  5.4864425621E+00
                       5.5792164184E+00  8.6788426225E+00  5.4864425621E+00
                       5.5792164183E+00  2.4795902142E+00  5.4864425621E+00
                       2.4795902142E+00  5.5792164183E+00  5.4864425621E+00
                      -5.3990279392E-13 -5.3927122635E-13  7.9164741739E-02
            xcart1     5.2715953415E+00  5.2715953415E+00  5.0157803258E+00
                       1.5814786025E+01  1.5814786025E+01  1.5351382642E+01
                       1.0543190683E+01  1.0543190683E+01  5.3941871061E+00
                       1.0543190683E+01  1.0543190683E+01  1.5859747614E+01
                       1.6400634939E+01  1.0543190683E+01  1.0303330059E+01
                       1.0543190683E+01  1.6400634939E+01  1.0303330059E+01
                       1.0543190683E+01  4.6857464269E+00  1.0303330059E+01
                       4.6857464269E+00  1.0543190683E+01  1.0303330059E+01
                      -1.2155264321E-12 -1.2154986765E-12 -1.4959939721E-01
            xcart2     5.2715955334E+00  5.2715955334E+00  5.3198206212E+00
                       1.5814786600E+01  1.5814786600E+01  1.5655422022E+01
                       1.0543191067E+01  1.0543191067E+01  4.8114573300E+00
                       1.0543191067E+01  1.0543191067E+01  1.5277016008E+01
                       1.6400635707E+01  1.0543191067E+01  1.0367873886E+01
                       1.0543191067E+01  1.6400635707E+01  1.0367873886E+01
                       1.0543191067E+01  4.6857464266E+00  1.0367873886E+01
                       4.6857464266E+00  1.0543191067E+01  1.0367873886E+01
                      -1.0202684189E-12 -1.0190749291E-12  1.4959968127E-01
             xred1     2.4264576812E-01  2.4264576812E-01  2.5735423188E-01
                       7.4264576812E-01  7.4264576812E-01  7.5735423188E-01
                       2.6095175400E-01  2.6095175400E-01  7.3904824600E-01
                       7.6723867313E-01  7.6723867313E-01  2.3276132687E-01
                       2.2065549836E-01  7.7622206566E-01  7.7934450164E-01
                       7.7622206566E-01  2.2065549836E-01  7.7934450164E-01
                       2.2065549836E-01  7.7622206566E-01  2.2377793434E-01
                       7.7622206566E-01  2.2065549836E-01  2.2377793434E-01
                      -7.2370913971E-03 -7.2370913971E-03  7.2370913971E-03
             xred2     2.5735418844E-01  2.5735418844E-01  2.4264581156E-01
                       7.5735418844E-01  7.5735418844E-01  7.4264581156E-01
                       2.3276136256E-01  2.3276136256E-01  7.6723863744E-01
                       7.3904823801E-01  7.3904823801E-01  2.6095176199E-01
                       2.2377793744E-01  7.7934452094E-01  7.7622206256E-01
                       7.7934452094E-01  2.2377793744E-01  7.7622206256E-01
                       2.2377793744E-01  7.7934452094E-01  2.2065547906E-01
                       7.7934452094E-01  2.2377793744E-01  2.2065547906E-01
                       7.2371057795E-03  7.2371057795E-03 -7.2371057795E-03
            znucl       55.00000   53.00000   40.00000   17.00000

================================================================================


- Timing analysis has been suppressed with timopt=0



================================================================================

 Suggested references for the acknowledgment of ABINIT usage.

 The users of ABINIT have little formal obligations with respect to the ABINIT group
 (those specified in the GNU General Public License, http://www.gnu.org/copyleft/gpl.txt).
 However, it is common practice in the scientific literature,
 to acknowledge the efforts of people that have made the research possible.
 In this spirit, please find below suggested citations of work written by ABINIT developers,
 corresponding to implementations inside of ABINIT that you have used in the present run.
 Note also that it will be of great value to readers of publications presenting these results,
 to read papers enabling them to understand the theoretical formalism and details
 of the ABINIT implementation.
 For information on why they are suggested, see also https://docs.abinit.org/theory/acknowledgments.
-
- [1] Implementation of the Projector Augmented-Wave Method in the ABINIT code.
- M. Torrent, F. Jollet, F. Bottin, G. Zerah, and X. Gonze Comput. Mat. Science 42, 337, (2008).
- Comment: PAW calculations. Strong suggestion to cite this paper.
- DOI and bibtex: see https://docs.abinit.org/theory/bibliography/#torrent2008
-
- [2] Libxc: A library of exchange and correlation functionals for density functional theory.
- M.A.L. Marques, M.J.T. Oliveira, T. Burnus, Computer Physics Communications 183, 2227 (2012).
- Comment: to be cited when LibXC is used (negative value of ixc)
- Strong suggestion to cite this paper.
- DOI and bibtex: see https://docs.abinit.org/theory/bibliography/#marques2012
-
- [3] The Abinit project: Impact, environment and recent developments.
- Computer Phys. Comm. 248, 107042 (2020).
- X.Gonze, B. Amadon, G. Antonius, F.Arnardi, L.Baguet, J.-M.Beuken,
- J.Bieder, F.Bottin, J.Bouchet, E.Bousquet, N.Brouwer, F.Bruneval,
- G.Brunin, T.Cavignac, J.-B. Charraud, Wei Chen, M.Cote, S.Cottenier,
- J.Denier, G.Geneste, Ph.Ghosez, M.Giantomassi, Y.Gillet, O.Gingras,
- D.R.Hamann, G.Hautier, Xu He, N.Helbig, N.Holzwarth, Y.Jia, F.Jollet,
- W.Lafargue-Dit-Hauret, K.Lejaeghere, M.A.L.Marques, A.Martin, C.Martins,
- H.P.C. Miranda, F.Naccarato, K. Persson, G.Petretto, V.Planes, Y.Pouillon,
- S.Prokhorenko, F.Ricci, G.-M.Rignanese, A.H.Romero, M.M.Schmitt, M.Torrent,
- M.J.van Setten, B.Van Troeye, M.J.Verstraete, G.Zerah and J.W.Zwanzig
- Comment: the fifth generic paper describing the ABINIT project.
- Note that a version of this paper, that is not formatted for Computer Phys. Comm. 
- is available at https://www.abinit.org/sites/default/files/ABINIT20.pdf .
- The licence allows the authors to put it on the Web.
- DOI and bibtex: see https://docs.abinit.org/theory/bibliography/#gonze2020
-
- [4] ABINIT: Overview, and focus on selected capabilities
- J. Chem. Phys. 152, 124102 (2020).
- A. Romero, D.C. Allan, B. Amadon, G. Antonius, T. Applencourt, L.Baguet,
- J.Bieder, F.Bottin, J.Bouchet, E.Bousquet, F.Bruneval,
- G.Brunin, D.Caliste, M.Cote,
- J.Denier, C. Dreyer, Ph.Ghosez, M.Giantomassi, Y.Gillet, O.Gingras,
- D.R.Hamann, G.Hautier, F.Jollet, G. Jomard,
- A.Martin, 
- H.P.C. Miranda, F.Naccarato, G.Petretto, N.A. Pike, V.Planes,
- S.Prokhorenko, T. Rangel, F.Ricci, G.-M.Rignanese, M.Royo, M.Stengel, M.Torrent,
- M.J.van Setten, B.Van Troeye, M.J.Verstraete, J.Wiktor, J.W.Zwanziger, and X.Gonze.
- Comment: a global overview of ABINIT, with focus on selected capabilities .
- Note that a version of this paper, that is not formatted for J. Chem. Phys 
- is available at https://www.abinit.org/sites/default/files/ABINIT20_JPC.pdf .
- The licence allows the authors to put it on the Web.
- DOI and bibtex: see https://docs.abinit.org/theory/bibliography/#romero2020
-
- [5] Recent developments in the ABINIT software package.
- Computer Phys. Comm. 205, 106 (2016).
- X.Gonze, F.Jollet, F.Abreu Araujo, D.Adams, B.Amadon, T.Applencourt,
- C.Audouze, J.-M.Beuken, J.Bieder, A.Bokhanchuk, E.Bousquet, F.Bruneval
- D.Caliste, M.Cote, F.Dahm, F.Da Pieve, M.Delaveau, M.Di Gennaro,
- B.Dorado, C.Espejo, G.Geneste, L.Genovese, A.Gerossier, M.Giantomassi,
- Y.Gillet, D.R.Hamann, L.He, G.Jomard, J.Laflamme Janssen, S.Le Roux,
- A.Levitt, A.Lherbier, F.Liu, I.Lukacevic, A.Martin, C.Martins,
- M.J.T.Oliveira, S.Ponce, Y.Pouillon, T.Rangel, G.-M.Rignanese,
- A.H.Romero, B.Rousseau, O.Rubel, A.A.Shukri, M.Stankovski, M.Torrent,
- M.J.Van Setten, B.Van Troeye, M.J.Verstraete, D.Waroquier, J.Wiktor,
- B.Xu, A.Zhou, J.W.Zwanziger.
- Comment: the fourth generic paper describing the ABINIT project.
- Note that a version of this paper, that is not formatted for Computer Phys. Comm. 
- is available at https://www.abinit.org/sites/default/files/ABINIT16.pdf .
- The licence allows the authors to put it on the Web.
- DOI and bibtex: see https://docs.abinit.org/theory/bibliography/#gonze2016
-
- Proc.   0 individual time (sec): cpu=      22647.9  wall=      22648.5

================================================================================

 Calculation completed.
.Delivered   0 WARNINGs and  84 COMMENTs to log file.
+Overall time at end (sec) : cpu=     135887.1  wall=     135891.2
