
.Version 9.2.2 of ABINIT 
.(MPI version, prepared for a x86_64_linux_gnu9.3 computer) 

.Copyright (C) 1998-2020 ABINIT group . 
 ABINIT comes with ABSOLUTELY NO WARRANTY.
 It is free software, and you are welcome to redistribute it
 under certain conditions (GNU General Public License,
 see ~abinit/COPYING or http://www.gnu.org/copyleft/gpl.txt).

 ABINIT is a project of the Universite Catholique de Louvain,
 Corning Inc. and other collaborators, see ~abinit/doc/developers/contributors.txt .
 Please read https://docs.abinit.org/theory/acknowledgments for suggested
 acknowledgments of the ABINIT effort.
 For more information, see https://www.abinit.org .

.Starting date : Tue 13 Dec 2022.
- ( at 23h58 )
  
- The starting date is more than 2 years after the initial release
- of this version of ABINIT, namely Nov 2020.
- Note that the use beyond 3 years after the release will not be supported.
- Action: please, switch to a more recent version of ABINIT.

- input  file    -> Cs2TiI6.in
- output file    -> Cs2TiI6.out
- root for input  files -> Cs2TiI6i
- root for output files -> Cs2TiI6o

- inpspheads : Reading pseudopotential header in XML form from 
-   ../../../Psps_for_tests/ATOMICDATA/Cs.GGA_PBE-JTH.xml
- inpspheads : Reading pseudopotential header in XML form from 
-   ../../../Psps_for_tests/ATOMICDATA/I.GGA_PBE-JTH.xml
- inpspheads : Reading pseudopotential header in XML form from 
-   ../../../Psps_for_tests/ATOMICDATA/Zr.GGA_PBE-JTH.xml
- inpspheads : Reading pseudopotential header in XML form from 
-   ../../../Psps_for_tests/ATOMICDATA/Cl.GGA_PBE-JTH.xml

 DATASET    1 : space group Im m 2 (# 44); Bravais oI (body-center ortho.)
================================================================================
 Values of the parameters that define the memory need for DATASET  1.
     intxc =       0    ionmov =       2      iscf =      17    lmnmax =      18
     lnmax =       6     mgfft =      64  mpssoang =       3    mqgrid =    3967
     natom =       9  nloc_mem =       2    nspden =       1   nspinor =       1
    nsppol =       1      nsym =       4    n1xccc =       1    ntypat =       4
    occopt =       1   xclevel =       2
-    mband =          42        mffmem =           1         mkmem =          10
       mpw =       10579          nfft =      262144          nkpt =          40
Pmy_natom=         3
 PAW method is used; the additional fine FFT grid is defined by:
   mgfftf=       100    nfftf =   1000000
================================================================================
P This job should need less than                     382.022 Mbytes of memory.
  Rough estimation (10% accuracy) of disk space for files :
_ WF disk file :    271.192 Mbytes ; DEN or POT disk file :      7.631 Mbytes.
================================================================================


 DATASET    2 : space group Im m 2 (# 44); Bravais oI (body-center ortho.)
================================================================================
 Values of the parameters that define the memory need for DATASET  2.
     intxc =       0    ionmov =       2      iscf =      17    lmnmax =      18
     lnmax =       6     mgfft =      64  mpssoang =       3    mqgrid =    3963
     natom =       9  nloc_mem =       2    nspden =       1   nspinor =       1
    nsppol =       1      nsym =       4    n1xccc =       1    ntypat =       4
    occopt =       1   xclevel =       2
-    mband =          42        mffmem =           1         mkmem =          10
       mpw =       10547          nfft =      262144          nkpt =          40
Pmy_natom=         3
 PAW method is used; the additional fine FFT grid is defined by:
   mgfftf=       100    nfftf =   1000000
================================================================================
P This job should need less than                     381.877 Mbytes of memory.
  Rough estimation (10% accuracy) of disk space for files :
_ WF disk file :    270.372 Mbytes ; DEN or POT disk file :      7.631 Mbytes.
================================================================================


 DATASET    3 : space group Im m 2 (# 44); Bravais oI (body-center ortho.)
================================================================================
 Values of the parameters that define the memory need for DATASET  3.
     intxc =       0    ionmov =       2      iscf =      17    lmnmax =      18
     lnmax =       6     mgfft =      64  mpssoang =       3    mqgrid =    3959
     natom =       9  nloc_mem =       2    nspden =       1   nspinor =       1
    nsppol =       1      nsym =       4    n1xccc =       1    ntypat =       4
    occopt =       1   xclevel =       2
-    mband =          42        mffmem =           1         mkmem =          10
       mpw =       10512          nfft =      262144          nkpt =          40
Pmy_natom=         3
 PAW method is used; the additional fine FFT grid is defined by:
   mgfftf=       100    nfftf =   1000000
================================================================================
P This job should need less than                     381.711 Mbytes of memory.
  Rough estimation (10% accuracy) of disk space for files :
_ WF disk file :    269.475 Mbytes ; DEN or POT disk file :      7.631 Mbytes.
================================================================================


 DATASET    4 : space group Im m 2 (# 44); Bravais oI (body-center ortho.)
================================================================================
 Values of the parameters that define the memory need for DATASET  4.
     intxc =       0    ionmov =       2      iscf =      17    lmnmax =      18
     lnmax =       6     mgfft =      64  mpssoang =       3    mqgrid =    3955
     natom =       9  nloc_mem =       2    nspden =       1   nspinor =       1
    nsppol =       1      nsym =       4    n1xccc =       1    ntypat =       4
    occopt =       1   xclevel =       2
-    mband =          42        mffmem =           1         mkmem =          10
       mpw =       10480          nfft =      262144          nkpt =          40
Pmy_natom=         3
 PAW method is used; the additional fine FFT grid is defined by:
   mgfftf=       100    nfftf =   1000000
================================================================================
P This job should need less than                     381.566 Mbytes of memory.
  Rough estimation (10% accuracy) of disk space for files :
_ WF disk file :    268.654 Mbytes ; DEN or POT disk file :      7.631 Mbytes.
================================================================================


 DATASET    5 : space group Im m 2 (# 44); Bravais oI (body-center ortho.)
================================================================================
 Values of the parameters that define the memory need for DATASET  5.
     intxc =       0    ionmov =       2      iscf =      17    lmnmax =      18
     lnmax =       6     mgfft =      64  mpssoang =       3    mqgrid =    3951
     natom =       9  nloc_mem =       2    nspden =       1   nspinor =       1
    nsppol =       1      nsym =       4    n1xccc =       1    ntypat =       4
    occopt =       1   xclevel =       2
-    mband =          42        mffmem =           1         mkmem =          10
       mpw =       10451          nfft =      262144          nkpt =          40
Pmy_natom=         3
 PAW method is used; the additional fine FFT grid is defined by:
   mgfftf=       100    nfftf =   1000000
================================================================================
P This job should need less than                     381.444 Mbytes of memory.
  Rough estimation (10% accuracy) of disk space for files :
_ WF disk file :    267.911 Mbytes ; DEN or POT disk file :      7.631 Mbytes.
================================================================================


 DATASET    6 : space group Im m 2 (# 44); Bravais oI (body-center ortho.)
================================================================================
 Values of the parameters that define the memory need for DATASET  6.
     intxc =       0    ionmov =       2      iscf =      17    lmnmax =      18
     lnmax =       6     mgfft =      64  mpssoang =       3    mqgrid =    3947
     natom =       9  nloc_mem =       2    nspden =       1   nspinor =       1
    nsppol =       1      nsym =       4    n1xccc =       1    ntypat =       4
    occopt =       1   xclevel =       2
-    mband =          42        mffmem =           1         mkmem =          10
       mpw =       10427          nfft =      262144          nkpt =          40
Pmy_natom=         3
 PAW method is used; the additional fine FFT grid is defined by:
   mgfftf=       100    nfftf =   1000000
================================================================================
P This job should need less than                     381.358 Mbytes of memory.
  Rough estimation (10% accuracy) of disk space for files :
_ WF disk file :    267.296 Mbytes ; DEN or POT disk file :      7.631 Mbytes.
================================================================================


 DATASET    7 : space group Im m 2 (# 44); Bravais oI (body-center ortho.)
================================================================================
 Values of the parameters that define the memory need for DATASET  7.
     intxc =       0    ionmov =       2      iscf =      17    lmnmax =      18
     lnmax =       6     mgfft =      64  mpssoang =       3    mqgrid =    3943
     natom =       9  nloc_mem =       2    nspden =       1   nspinor =       1
    nsppol =       1      nsym =       4    n1xccc =       1    ntypat =       4
    occopt =       1   xclevel =       2
-    mband =          42        mffmem =           1         mkmem =          10
       mpw =       10386          nfft =      262144          nkpt =          40
Pmy_natom=         3
 PAW method is used; the additional fine FFT grid is defined by:
   mgfftf=       100    nfftf =   1000000
================================================================================
P This job should need less than                     381.149 Mbytes of memory.
  Rough estimation (10% accuracy) of disk space for files :
_ WF disk file :    266.245 Mbytes ; DEN or POT disk file :      7.631 Mbytes.
================================================================================


 DATASET    8 : space group Im m 2 (# 44); Bravais oI (body-center ortho.)
================================================================================
 Values of the parameters that define the memory need for DATASET  8.
     intxc =       0    ionmov =       2      iscf =      17    lmnmax =      18
     lnmax =       6     mgfft =      64  mpssoang =       3    mqgrid =    3939
     natom =       9  nloc_mem =       2    nspden =       1   nspinor =       1
    nsppol =       1      nsym =       4    n1xccc =       1    ntypat =       4
    occopt =       1   xclevel =       2
-    mband =          42        mffmem =           1         mkmem =          10
       mpw =       10354          nfft =      262144          nkpt =          40
Pmy_natom=         3
 PAW method is used; the additional fine FFT grid is defined by:
   mgfftf=       100    nfftf =   1000000
================================================================================
P This job should need less than                     381.006 Mbytes of memory.
  Rough estimation (10% accuracy) of disk space for files :
_ WF disk file :    265.424 Mbytes ; DEN or POT disk file :      7.631 Mbytes.
================================================================================


 DATASET    9 : space group Im m 2 (# 44); Bravais oI (body-center ortho.)
================================================================================
 Values of the parameters that define the memory need for DATASET  9.
     intxc =       0    ionmov =       2      iscf =      17    lmnmax =      18
     lnmax =       6     mgfft =      64  mpssoang =       3    mqgrid =    3935
     natom =       9  nloc_mem =       2    nspden =       1   nspinor =       1
    nsppol =       1      nsym =       4    n1xccc =       1    ntypat =       4
    occopt =       1   xclevel =       2
-    mband =          42        mffmem =           1         mkmem =          10
       mpw =       10325          nfft =      262144          nkpt =          40
Pmy_natom=         3
 PAW method is used; the additional fine FFT grid is defined by:
   mgfftf=        96    nfftf =    884736
================================================================================
P This job should need less than                     350.652 Mbytes of memory.
  Rough estimation (10% accuracy) of disk space for files :
_ WF disk file :    264.681 Mbytes ; DEN or POT disk file :      6.752 Mbytes.
================================================================================


 DATASET   10 : space group Im m 2 (# 44); Bravais oI (body-center ortho.)
================================================================================
 Values of the parameters that define the memory need for DATASET 10.
     intxc =       0    ionmov =       2      iscf =      17    lmnmax =      18
     lnmax =       6     mgfft =      64  mpssoang =       3    mqgrid =    3931
     natom =       9  nloc_mem =       2    nspden =       1   nspinor =       1
    nsppol =       1      nsym =       4    n1xccc =       1    ntypat =       4
    occopt =       1   xclevel =       2
-    mband =          42        mffmem =           1         mkmem =          10
       mpw =       10292          nfft =      262144          nkpt =          40
Pmy_natom=         3
 PAW method is used; the additional fine FFT grid is defined by:
   mgfftf=        96    nfftf =    884736
================================================================================
P This job should need less than                     350.493 Mbytes of memory.
  Rough estimation (10% accuracy) of disk space for files :
_ WF disk file :    263.835 Mbytes ; DEN or POT disk file :      6.752 Mbytes.
================================================================================

--------------------------------------------------------------------------------
------------- Echo of variables that govern the present computation ------------
--------------------------------------------------------------------------------
-
- outvars: echo of selected default values                                      
-   iomode0 =  0 , fftalg0 =112 , wfoptalg0 = 10
-
- outvars: echo of global parameters not present in the input file              
-  max_nthreads =    0
-
 -outvars: echo values of preprocessed input variables --------
            acell1     1.4600919190E+01  1.4766622705E+01  1.4766622705E+01 Bohr
            acell2     1.4586303656E+01  1.4751841301E+01  1.4751841301E+01 Bohr
            acell3     1.4571688121E+01  1.4737059897E+01  1.4737059897E+01 Bohr
            acell4     1.4557072586E+01  1.4722278493E+01  1.4722278493E+01 Bohr
            acell5     1.4542457051E+01  1.4707497088E+01  1.4707497088E+01 Bohr
            acell6     1.4527841517E+01  1.4692715684E+01  1.4692715684E+01 Bohr
            acell7     1.4513225982E+01  1.4677934280E+01  1.4677934280E+01 Bohr
            acell8     1.4498610447E+01  1.4663152876E+01  1.4663152876E+01 Bohr
            acell9     1.4483994912E+01  1.4648371472E+01  1.4648371472E+01 Bohr
            acell10    1.4469379378E+01  1.4633590068E+01  1.4633590068E+01 Bohr
              amu      1.32905430E+02  1.26904470E+02  9.12240000E+01
                       3.54527000E+01
           diemac      1.20000000E+01
          dilatmx      1.15000000E+00
             ecut      1.60000000E+01 Hartree
           ecutsm      5.00000000E-01 Hartree
-          fftalg         112
           ionmov           2
              ixc     -101130
           jdtset        1    2    3    4    5    6    7    8    9   10
              kpt     -1.25000000E-01 -2.50000000E-01  0.00000000E+00
                      -2.50000000E-01 -1.25000000E-01  0.00000000E+00
                      -1.25000000E-01  5.00000000E-01  0.00000000E+00
                      -2.50000000E-01 -3.75000000E-01  0.00000000E+00
                      -1.25000000E-01 -3.75000000E-01  1.25000000E-01
                      -3.75000000E-01 -2.50000000E-01  0.00000000E+00
                       5.00000000E-01 -1.25000000E-01  0.00000000E+00
                      -3.75000000E-01 -1.25000000E-01  1.25000000E-01
                      -2.50000000E-01 -1.25000000E-01  2.50000000E-01
                      -1.25000000E-01  2.50000000E-01  0.00000000E+00
                      -2.50000000E-01  3.75000000E-01  0.00000000E+00
                      -1.25000000E-01  3.75000000E-01  1.25000000E-01
                      -3.75000000E-01  5.00000000E-01  0.00000000E+00
                      -2.50000000E-01  5.00000000E-01  1.25000000E-01
                      -1.25000000E-01  5.00000000E-01  2.50000000E-01
                       5.00000000E-01 -3.75000000E-01  0.00000000E+00
                       3.75000000E-01 -2.50000000E-01  0.00000000E+00
                       5.00000000E-01 -2.50000000E-01  1.25000000E-01
                      -3.75000000E-01 -2.50000000E-01  2.50000000E-01
                       2.50000000E-01 -1.25000000E-01  0.00000000E+00
                      -1.25000000E-01  0.00000000E+00  0.00000000E+00
                      -1.25000000E-01  1.25000000E-01  1.25000000E-01
                      -2.50000000E-01  2.50000000E-01  1.25000000E-01
                      -1.25000000E-01  2.50000000E-01  2.50000000E-01
                      -3.75000000E-01  3.75000000E-01  1.25000000E-01
                      -2.50000000E-01  3.75000000E-01  2.50000000E-01
                      -1.25000000E-01  3.75000000E-01  3.75000000E-01
                       0.00000000E+00 -1.25000000E-01  0.00000000E+00
                      -3.75000000E-01  0.00000000E+00  0.00000000E+00
                      -3.75000000E-01  1.25000000E-01  1.25000000E-01
                       5.00000000E-01  2.50000000E-01  1.25000000E-01
                      -3.75000000E-01  2.50000000E-01  2.50000000E-01
                       0.00000000E+00 -3.75000000E-01  0.00000000E+00
                       0.00000000E+00 -2.50000000E-01  1.25000000E-01
                      -3.75000000E-01 -2.50000000E-01 -2.50000000E-01
                       0.00000000E+00  5.00000000E-01  1.25000000E-01
                       0.00000000E+00 -3.75000000E-01  2.50000000E-01
                       0.00000000E+00  2.50000000E-01  1.25000000E-01
                       0.00000000E+00  3.75000000E-01  2.50000000E-01
                       0.00000000E+00  5.00000000E-01  3.75000000E-01
         kptrlatt        4   -4    4     -4    4    4     -4   -4    4
          kptrlen1     8.33054218E+01
          kptrlen2     8.32220330E+01
          kptrlen3     8.31386442E+01
          kptrlen4     8.30552554E+01
          kptrlen5     8.29718666E+01
          kptrlen6     8.28884778E+01
          kptrlen7     8.28050890E+01
          kptrlen8     8.27217001E+01
          kptrlen9     8.26383113E+01
          kptrlen10    8.25549225E+01
P           mkmem          10
            natom           9
            nband          42
           ndtset          10
            ngfft          64      64      64
          ngfftdg1        100     100     100
          ngfftdg2        100     100     100
          ngfftdg3        100     100     100
          ngfftdg4        100     100     100
          ngfftdg5        100     100     100
          ngfftdg6        100     100     100
          ngfftdg7        100     100     100
          ngfftdg8        100     100     100
          ngfftdg9         96      96      96
          ngfftdg10        96      96      96
             nkpt          40
            nstep        2500
             nsym           4
            ntime        1000
           ntypat           4
              occ      2.000000  2.000000  2.000000  2.000000  2.000000  2.000000
                       2.000000  2.000000  2.000000  2.000000  2.000000  2.000000
                       2.000000  2.000000  2.000000  2.000000  2.000000  2.000000
                       2.000000  2.000000  2.000000  2.000000  2.000000  2.000000
                       2.000000  2.000000  2.000000  2.000000  2.000000  2.000000
                       2.000000  2.000000  2.000000  2.000000  2.000000  2.000000
                       0.000000  0.000000  0.000000  0.000000  0.000000  0.000000
          optcell           3
        optforces           1
        pawecutdg      4.00000000E+01 Hartree
            prtwf           0
            rprim      0.0000000000E+00  7.0710678119E-01  7.0710678119E-01
                       7.0902490968E-01 -5.9860390163E-03  7.0515802824E-01
                       7.0902490968E-01  7.0515802824E-01 -5.9860390163E-03
           shiftk      5.00000000E-01  5.00000000E-01  5.00000000E-01
          spgroup          44
           symrel      1  0  0   0  1  0   0  0  1       1  0  0   1  0 -1   1 -1  0
                       1  0  0   0  0  1   0  1  0       1  0  0   1 -1  0   1  0 -1
           toldff      1.00000000E-08
           tolmxf      1.00000000E-05
            typat      1  1  2  4  2  4  2  2  3
           useylm           1
              wtk        0.03125    0.03125    0.03125    0.03125    0.03125    0.03125
                         0.03125    0.03125    0.03125    0.03125    0.03125    0.03125
                         0.03125    0.03125    0.03125    0.03125    0.03125    0.03125
                         0.03125    0.03125    0.01563    0.01563    0.03125    0.01563
                         0.03125    0.03125    0.01563    0.01563    0.01563    0.01563
                         0.03125    0.01563    0.01563    0.01563    0.01563    0.01563
                         0.01563    0.01563    0.01563    0.01563
           xangst1     2.7822873908E+00  2.7154821118E+00  2.7154821118E+00
                       8.2985810455E+00  8.1789240313E+00  8.1789240313E+00
                       5.5404342182E+00  5.4796866030E+00  2.7107438776E+00
                       5.5404342182E+00  5.3687861032E+00  8.4223826393E+00
                       8.2301993203E+00  5.4700656929E+00  5.4700656929E+00
                       5.5404342182E+00  8.4223826393E+00  5.3687861032E+00
                       5.5404342182E+00  2.7107438776E+00  5.4796866030E+00
                       2.8506691160E+00  5.4700656930E+00  5.4700656930E+00
                       7.9236094952E-36 -1.0860139558E-01 -1.0860139558E-01
           xangst2     2.7795023184E+00  2.7127639115E+00  2.7127639115E+00
                       8.2902741576E+00  8.1707369202E+00  8.1707369202E+00
                       5.5348882380E+00  5.4742014312E+00  2.7080304202E+00
                       5.5348882380E+00  5.3634119429E+00  8.4139518258E+00
                       8.2219608826E+00  5.4645901517E+00  5.4645901517E+00
                       5.5348882380E+00  8.4139518258E+00  5.3634119429E+00
                       5.5348882380E+00  2.7080304202E+00  5.4742014312E+00
                       2.8478155934E+00  5.4645901518E+00  5.4645901518E+00
                      -2.5178067281E-35 -1.0849268547E-01 -1.0849268547E-01
           xangst3     2.7767172459E+00  2.7100457112E+00  2.7100457112E+00
                       8.2819672697E+00  8.1625498091E+00  8.1625498091E+00
                       5.5293422578E+00  5.4687162594E+00  2.7053169629E+00
                       5.5293422578E+00  5.3580377827E+00  8.4055210124E+00
                       8.2137224448E+00  5.4591146105E+00  5.4591146105E+00
                       5.5293422578E+00  8.4055210124E+00  5.3580377827E+00
                       5.5293422578E+00  2.7053169629E+00  5.4687162594E+00
                       2.8449620707E+00  5.4591146105E+00  5.4591146105E+00
                       2.4541480850E-34 -1.0838397537E-01 -1.0838397537E-01
           xangst4     2.7739321734E+00  2.7073275109E+00  2.7073275109E+00
                       8.2736603817E+00  8.1543626979E+00  8.1543626979E+00
                       5.5237962776E+00  5.4632310876E+00  2.7026035056E+00
                       5.5237962776E+00  5.3526636224E+00  8.3970901989E+00
                       8.2054840071E+00  5.4536390692E+00  5.4536390692E+00
                       5.5237962776E+00  8.3970901989E+00  5.3526636224E+00
                       5.5237962776E+00  2.7026035056E+00  5.4632310876E+00
                       2.8421085481E+00  5.4536390693E+00  5.4536390693E+00
                       7.0728522112E-35 -1.0827526526E-01 -1.0827526526E-01
           xangst5     2.7711471010E+00  2.7046093105E+00  2.7046093105E+00
                       8.2653534938E+00  8.1461755868E+00  8.1461755868E+00
                       5.5182502974E+00  5.4577459159E+00  2.6998900482E+00
                       5.5182502974E+00  5.3472894621E+00  8.3886593855E+00
                       8.1972455693E+00  5.4481635280E+00  5.4481635280E+00
                       5.5182502974E+00  8.3886593855E+00  5.3472894621E+00
                       5.5182502974E+00  2.6998900482E+00  5.4577459159E+00
                       2.8392550254E+00  5.4481635281E+00  5.4481635281E+00
                      -2.3943144332E-35 -1.0816655516E-01 -1.0816655516E-01
           xangst6     2.7683620285E+00  2.7018911102E+00  2.7018911102E+00
                       8.2570466059E+00  8.1379884756E+00  8.1379884756E+00
                       5.5127043172E+00  5.4522607441E+00  2.6971765909E+00
                       5.5127043172E+00  5.3419153019E+00  8.3802285720E+00
                       8.1890071316E+00  5.4426879868E+00  5.4426879868E+00
                       5.5127043172E+00  8.3802285720E+00  5.3419153019E+00
                       5.5127043172E+00  2.6971765909E+00  5.4522607441E+00
                       2.8364015028E+00  5.4426879868E+00  5.4426879868E+00
                       1.1604949739E-34 -1.0805784505E-01 -1.0805784505E-01
           xangst7     2.7655769560E+00  2.6991729099E+00  2.6991729099E+00
                       8.2487397179E+00  8.1298013645E+00  8.1298013645E+00
                       5.5071583370E+00  5.4467755723E+00  2.6944631336E+00
                       5.5071583370E+00  5.3365411416E+00  8.3717977586E+00
                       8.1807686938E+00  5.4372124455E+00  5.4372124455E+00
                       5.5071583370E+00  8.3717977586E+00  5.3365411416E+00
                       5.5071583370E+00  2.6944631336E+00  5.4467755723E+00
                       2.8335479802E+00  5.4372124456E+00  5.4372124456E+00
                       1.6843948856E-34 -1.0794913495E-01 -1.0794913495E-01
           xangst8     2.7627918836E+00  2.6964547096E+00  2.6964547096E+00
                       8.2404328300E+00  8.1216142533E+00  8.1216142533E+00
                       5.5016123568E+00  5.4412904005E+00  2.6917496762E+00
                       5.5016123568E+00  5.3311669813E+00  8.3633669451E+00
                       8.1725302560E+00  5.4317369043E+00  5.4317369043E+00
                       5.5016123568E+00  8.3633669451E+00  5.3311669813E+00
                       5.5016123568E+00  2.6917496762E+00  5.4412904005E+00
                       2.8306944575E+00  5.4317369044E+00  5.4317369044E+00
                      -6.9820301708E-35 -1.0784042484E-01 -1.0784042484E-01
           xangst9     2.7600068111E+00  2.6937365093E+00  2.6937365093E+00
                       8.2321259421E+00  8.1134271422E+00  8.1134271422E+00
                       5.4960663766E+00  5.4358052288E+00  2.6890362189E+00
                       5.4960663766E+00  5.3257928211E+00  8.3549361317E+00
                       8.1642918183E+00  5.4262613631E+00  5.4262613631E+00
                       5.4960663766E+00  8.3549361317E+00  5.3257928211E+00
                       5.4960663766E+00  2.6890362189E+00  5.4358052288E+00
                       2.8278409349E+00  5.4262613631E+00  5.4262613631E+00
                       3.7960445986E-35 -1.0773171473E-01 -1.0773171473E-01
           xangst10    2.7572217386E+00  2.6910183090E+00  2.6910183090E+00
                       8.2238190541E+00  8.1052400311E+00  8.1052400311E+00
                       5.4905203964E+00  5.4303200570E+00  2.6863227616E+00
                       5.4905203964E+00  5.3204186608E+00  8.3465053182E+00
                       8.1560533805E+00  5.4207858218E+00  5.4207858218E+00
                       5.4905203964E+00  8.3465053182E+00  5.3204186608E+00
                       5.4905203964E+00  2.6863227616E+00  5.4303200570E+00
                       2.8249874123E+00  5.4207858219E+00  5.4207858219E+00
                       2.1444640959E-35 -1.0762300463E-01 -1.0762300463E-01
            xcart1     5.2577611916E+00  5.1315175100E+00  5.1315175100E+00
                       1.5682045468E+01  1.5455926481E+01  1.5455926481E+01
                       1.0469903330E+01  1.0355106974E+01  5.1225635450E+00
                       1.0469903330E+01  1.0145535401E+01  1.5915996575E+01
                       1.5552822735E+01  1.0336926089E+01  1.0336926089E+01
                       1.0469903330E+01  1.5915996575E+01  1.0145535401E+01
                       1.0469903330E+01  5.1225635450E+00  1.0355106974E+01
                       5.3869839247E+00  1.0336926089E+01  1.0336926089E+01
                       1.4973451930E-35 -2.0522689529E-01 -2.0522689529E-01
            xcart2     5.2524981674E+00  5.1263808559E+00  5.1263808559E+00
                       1.5666347724E+01  1.5440455083E+01  1.5440455083E+01
                       1.0459422946E+01  1.0344741501E+01  5.1174358538E+00
                       1.0459422946E+01  1.0135379710E+01  1.5900064646E+01
                       1.5537254343E+01  1.0326578815E+01  1.0326578815E+01
                       1.0459422946E+01  1.5900064646E+01  1.0135379710E+01
                       1.0459422946E+01  5.1174358538E+00  1.0344741501E+01
                       5.3815915484E+00  1.0326578815E+01  1.0326578815E+01
                      -4.7579651716E-35 -2.0502146297E-01 -2.0502146297E-01
            xcart3     5.2472351432E+00  5.1212442017E+00  5.1212442017E+00
                       1.5650649981E+01  1.5424983685E+01  1.5424983685E+01
                       1.0448942562E+01  1.0334376029E+01  5.1123081625E+00
                       1.0448942562E+01  1.0125224019E+01  1.5884132718E+01
                       1.5521685952E+01  1.0316231542E+01  1.0316231542E+01
                       1.0448942562E+01  1.5884132718E+01  1.0125224019E+01
                       1.0448942562E+01  5.1123081625E+00  1.0334376029E+01
                       5.3761991721E+00  1.0316231542E+01  1.0316231542E+01
                       4.6376677702E-34 -2.0481603064E-01 -2.0481603064E-01
            xcart4     5.2419721190E+00  5.1161075475E+00  5.1161075475E+00
                       1.5634952238E+01  1.5409512287E+01  1.5409512287E+01
                       1.0438462178E+01  1.0324010556E+01  5.1071804713E+00
                       1.0438462178E+01  1.0115068328E+01  1.5868200789E+01
                       1.5506117561E+01  1.0305884268E+01  1.0305884268E+01
                       1.0438462178E+01  1.5868200789E+01  1.0115068328E+01
                       1.0438462178E+01  5.1071804713E+00  1.0324010556E+01
                       5.3708067958E+00  1.0305884269E+01  1.0305884269E+01
                       1.3365753658E-34 -2.0461059831E-01 -2.0461059831E-01
            xcart5     5.2367090948E+00  5.1109708934E+00  5.1109708934E+00
                       1.5619254495E+01  1.5394040889E+01  1.5394040889E+01
                       1.0427981795E+01  1.0313645084E+01  5.1020527800E+00
                       1.0427981795E+01  1.0104912637E+01  1.5852268861E+01
                       1.5490549170E+01  1.0295536995E+01  1.0295536995E+01
                       1.0427981795E+01  1.5852268861E+01  1.0104912637E+01
                       1.0427981795E+01  5.1020527800E+00  1.0313645084E+01
                       5.3654144195E+00  1.0295536995E+01  1.0295536995E+01
                      -4.5245985547E-35 -2.0440516598E-01 -2.0440516598E-01
            xcart6     5.2314460705E+00  5.1058342392E+00  5.1058342392E+00
                       1.5603556752E+01  1.5378569492E+01  1.5378569492E+01
                       1.0417501411E+01  1.0303279611E+01  5.0969250888E+00
                       1.0417501411E+01  1.0094756946E+01  1.5836336932E+01
                       1.5474980779E+01  1.0285189722E+01  1.0285189722E+01
                       1.0417501411E+01  1.5836336932E+01  1.0094756946E+01
                       1.0417501411E+01  5.0969250888E+00  1.0303279611E+01
                       5.3600220432E+00  1.0285189722E+01  1.0285189722E+01
                       2.1930176793E-34 -2.0419973366E-01 -2.0419973366E-01
            xcart7     5.2261830463E+00  5.1006975851E+00  5.1006975851E+00
                       1.5587859008E+01  1.5363098094E+01  1.5363098094E+01
                       1.0407021027E+01  1.0292914139E+01  5.0917973976E+00
                       1.0407021027E+01  1.0084601255E+01  1.5820405004E+01
                       1.5459412388E+01  1.0274842448E+01  1.0274842448E+01
                       1.0407021027E+01  1.5820405004E+01  1.0084601255E+01
                       1.0407021027E+01  5.0917973976E+00  1.0292914139E+01
                       5.3546296669E+00  1.0274842449E+01  1.0274842449E+01
                       3.1830450334E-34 -2.0399430133E-01 -2.0399430133E-01
            xcart8     5.2209200221E+00  5.0955609309E+00  5.0955609309E+00
                       1.5572161265E+01  1.5347626696E+01  1.5347626696E+01
                       1.0396540644E+01  1.0282548667E+01  5.0866697063E+00
                       1.0396540644E+01  1.0074445563E+01  1.5804473075E+01
                       1.5443843997E+01  1.0264495175E+01  1.0264495175E+01
                       1.0396540644E+01  1.5804473075E+01  1.0074445563E+01
                       1.0396540644E+01  5.0866697063E+00  1.0282548667E+01
                       5.3492372906E+00  1.0264495175E+01  1.0264495175E+01
                      -1.3194124874E-34 -2.0378886900E-01 -2.0378886900E-01
            xcart9     5.2156569979E+00  5.0904242767E+00  5.0904242767E+00
                       1.5556463522E+01  1.5332155298E+01  1.5332155298E+01
                       1.0386060260E+01  1.0272183194E+01  5.0815420151E+00
                       1.0386060260E+01  1.0064289872E+01  1.5788541147E+01
                       1.5428275606E+01  1.0254147902E+01  1.0254147902E+01
                       1.0386060260E+01  1.5788541147E+01  1.0064289872E+01
                       1.0386060260E+01  5.0815420151E+00  1.0272183194E+01
                       5.3438449143E+00  1.0254147902E+01  1.0254147902E+01
                       7.1734846796E-35 -2.0358343667E-01 -2.0358343667E-01
            xcart10    5.2103939737E+00  5.0852876226E+00  5.0852876226E+00
                       1.5540765779E+01  1.5316683900E+01  1.5316683900E+01
                       1.0375579876E+01  1.0261817722E+01  5.0764143239E+00
                       1.0375579876E+01  1.0054134181E+01  1.5772609218E+01
                       1.5412707214E+01  1.0243800628E+01  1.0243800628E+01
                       1.0375579876E+01  1.5772609218E+01  1.0054134181E+01
                       1.0375579876E+01  5.0764143239E+00  1.0261817722E+01
                       5.3384525380E+00  1.0243800628E+01  1.0243800628E+01
                       4.0524498431E-35 -2.0337800435E-01 -2.0337800435E-01
             xred      2.4593843547E-01  2.5108929023E-01  2.5108929023E-01
                       7.4811701593E-01  7.4891070977E-01  7.4891070977E-01
                       2.4956690317E-01  2.5085964666E-01  7.4914035334E-01
                       7.6213190746E-01  7.7475256638E-01  2.2524743362E-01
                       2.5847282344E-01  7.4273955761E-01  7.4273955761E-01
                       7.6213190746E-01  2.2524743362E-01  7.7475256638E-01
                       2.4956690317E-01  7.4914035334E-01  2.5085964666E-01
                       7.4395193865E-01  2.5726044239E-01  2.5726044239E-01
                      -1.9877834738E-02 -4.7554648334E-19  4.7554648334E-19
            znucl       55.00000   53.00000   40.00000   17.00000

================================================================================

 chkinp: Checking input parameters for consistency, jdtset=   1.

 chkinp: Checking input parameters for consistency, jdtset=   2.

 chkinp: Checking input parameters for consistency, jdtset=   3.

 chkinp: Checking input parameters for consistency, jdtset=   4.

 chkinp: Checking input parameters for consistency, jdtset=   5.

 chkinp: Checking input parameters for consistency, jdtset=   6.

 chkinp: Checking input parameters for consistency, jdtset=   7.

 chkinp: Checking input parameters for consistency, jdtset=   8.

 chkinp: Checking input parameters for consistency, jdtset=   9.

 chkinp: Checking input parameters for consistency, jdtset=  10.

================================================================================
== DATASET  1 ==================================================================
-   mpi_nproc: 4, omp_nthreads: -1 (-1 if OMP is not activated)


--- !DatasetInfo
iteration_state: {dtset: 1, }
dimensions: {natom: 9, nkpt: 40, mband: 42, nsppol: 1, nspinor: 1, nspden: 1, mpw: 10579, }
cutoff_energies: {ecut:  16.0, pawecutdg:  40.0, }
electrons: {nelect:   7.20000000E+01, charge:   0.00000000E+00, occopt:   1.00000000E+00, tsmear:   1.00000000E-02, }
meta: {optdriver: 0, ionmov: 2, optcell: 3, iscf: 17, paral_kgb: 0, }
...

 Real(R)+Recip(G) space primitive vectors, cartesian coordinates (Bohr,Bohr^-1):
 R(1)=  0.0000000 10.3244090 10.3244090  G(1)= -0.0477559  0.0484289  0.0484289
 R(2)= 10.4699033 -0.0883936 10.4128026  G(2)=  0.0477559 -0.0476136  0.0476136
 R(3)= 10.4699033 10.4128026 -0.0883936  G(3)=  0.0477559  0.0476136 -0.0476136
 Unit cell volume ucvol=  2.2702654E+03 bohr^3
 Angles (23,13,12)=  6.03781039E+01  6.03705148E+01  6.03705148E+01 degrees

 Coarse grid specifications (used for wave-functions):

 getcut: wavevector=  0.0000  0.0000  0.0000  ngfft=  64  64  64
         ecut(hartree)=     21.160   => boxcut(ratio)=   2.09321

 Fine grid specifications (used for densities):

 getcut: wavevector=  0.0000  0.0000  0.0000  ngfft= 100 100 100
         ecut(hartree)=     52.900   => boxcut(ratio)=   2.06854

--- Pseudopotential description ------------------------------------------------
- pspini: atom type   1  psp file is ../../../Psps_for_tests/ATOMICDATA/Cs.GGA_PBE-JTH.xml
- pspatm: opening atomic psp file    ../../../Psps_for_tests/ATOMICDATA/Cs.GGA_PBE-JTH.xml
- pspatm : Reading pseudopotential header in XML form from ../../../Psps_for_tests/ATOMICDATA/Cs.GGA_PBE-JTH.xml
 Pseudopotential format is: paw10
 basis_size (lnmax)=  6 (lmn_size= 18), orbitals=   0   0   1   1   2   2
 Spheres core radius: rc_sph= 2.20660278
 1 radial meshes are used:
  - mesh 1: r(i)=AA*[exp(BB*(i-1))-1], size=1500 , AA= 0.15922E-03 BB= 0.87573E-02
 Shapefunction is SIN type: shapef(r)=[sin(pi*r/rshp)/(pi*r/rshp)]**2
 Radius for shape functions =  2.00394208
 mmax= 1500
 Radial grid used for partial waves is grid 1
 Radial grid used for projectors is grid 1
 Radial grid used for (t)core density is grid 1
 Radial grid used for Vloc is grid 1
 Radial grid used for pseudo valence density is grid 1
 Mesh size for Vloc has been set to 1341 to avoid numerical noise.
 Compensation charge density is not taken into account in XC energy/potential
 pspatm: atomic psp has been read  and splines computed

- pspini: atom type   2  psp file is ../../../Psps_for_tests/ATOMICDATA/I.GGA_PBE-JTH.xml
- pspatm: opening atomic psp file    ../../../Psps_for_tests/ATOMICDATA/I.GGA_PBE-JTH.xml
- pspatm : Reading pseudopotential header in XML form from ../../../Psps_for_tests/ATOMICDATA/I.GGA_PBE-JTH.xml
 Pseudopotential format is: paw10
 basis_size (lnmax)=  4 (lmn_size=  8), orbitals=   0   0   1   1
 Spheres core radius: rc_sph= 2.30022271
 1 radial meshes are used:
  - mesh 1: r(i)=AA*[exp(BB*(i-1))-1], size=2000 , AA= 0.12610E-03 BB= 0.66836E-02
 Shapefunction is SIN type: shapef(r)=[sin(pi*r/rshp)/(pi*r/rshp)]**2
 Radius for shape functions =  2.10879093
 mmax= 2000
 Radial grid used for partial waves is grid 1
 Radial grid used for projectors is grid 1
 Radial grid used for (t)core density is grid 1
 Radial grid used for Vloc is grid 1
 Radial grid used for pseudo valence density is grid 1
 Mesh size for Vloc has been set to 1792 to avoid numerical noise.
 Compensation charge density is not taken into account in XC energy/potential
 pspatm: atomic psp has been read  and splines computed

- pspini: atom type   3  psp file is ../../../Psps_for_tests/ATOMICDATA/Zr.GGA_PBE-JTH.xml
- pspatm: opening atomic psp file    ../../../Psps_for_tests/ATOMICDATA/Zr.GGA_PBE-JTH.xml
- pspatm : Reading pseudopotential header in XML form from ../../../Psps_for_tests/ATOMICDATA/Zr.GGA_PBE-JTH.xml
 Pseudopotential format is: paw10
 basis_size (lnmax)=  6 (lmn_size= 18), orbitals=   0   0   1   1   2   2
 Spheres core radius: rc_sph= 2.21000000
 1 radial meshes are used:
  - mesh 1: r(i)=AA*[exp(BB*(i-1))-1], size= 941 , AA= 0.35256E-03 BB= 0.14102E-01
 Shapefunction is BESSEL type: shapef(r,l)=aa(1,l)*jl(q(1,l)*r)+aa(2,l)*jl(q(2,l)*r)
 Radius for shape functions =  2.21000000
 mmax=  941
 Radial grid used for partial waves is grid 1
 Radial grid used for projectors is grid 1
 Radial grid used for (t)core density is grid 1
 Radial grid used for Vloc is grid 1
 Radial grid used for pseudo valence density is grid 1
 Mesh size for Vloc has been set to  777 to avoid numerical noise.
 Compensation charge density is not taken into account in XC energy/potential
 pspatm: atomic psp has been read  and splines computed

- pspini: atom type   4  psp file is ../../../Psps_for_tests/ATOMICDATA/Cl.GGA_PBE-JTH.xml
- pspatm: opening atomic psp file    ../../../Psps_for_tests/ATOMICDATA/Cl.GGA_PBE-JTH.xml
- pspatm : Reading pseudopotential header in XML form from ../../../Psps_for_tests/ATOMICDATA/Cl.GGA_PBE-JTH.xml
 Pseudopotential format is: paw10
 basis_size (lnmax)=  4 (lmn_size=  8), orbitals=   0   0   1   1
 Spheres core radius: rc_sph= 1.80315674
 1 radial meshes are used:
  - mesh 1: r(i)=AA*[exp(BB*(i-1))-1], size=1400 , AA= 0.50355E-03 BB= 0.85603E-02
 Shapefunction is SIN type: shapef(r)=[sin(pi*r/rshp)/(pi*r/rshp)]**2
 Radius for shape functions =  1.61320365
 mmax= 1400
 Radial grid used for partial waves is grid 1
 Radial grid used for projectors is grid 1
 Radial grid used for (t)core density is grid 1
 Radial grid used for Vloc is grid 1
 Radial grid used for pseudo valence density is grid 1
 Mesh size for Vloc has been set to 1238 to avoid numerical noise.
 Compensation charge density is not taken into account in XC energy/potential
 pspatm: atomic psp has been read  and splines computed

   3.31979095E+04                                ecore*ucvol(ha*bohr**3)
--------------------------------------------------------------------------------

_setup2: Arith. and geom. avg. npw (full set) are   10555.172   10555.167

================================================================================

=== [ionmov= 2] Broyden-Fletcher-Goldfard-Shanno method (forces)            
================================================================================

--- Iteration: (   1/1000) Internal Cycle: (1/1)
--------------------------------------------------------------------------------

---SELF-CONSISTENT-FIELD CONVERGENCE--------------------------------------------

--- !BeginCycle
iteration_state: {dtset: 1, itime: 1, icycle: 1, }
solver: {iscf: 17, nstep: 2500, nline: 4, wfoptalg: 10, }
tolerances: {toldff: 1.00E-08, }
...

     iter   Etot(hartree)      deltaE(h)  residm     nres2    diffor    maxfor
 ETOT  1  -165.60977932444    -1.656E+02 2.051E-01 2.517E+01 9.233E-02 9.233E-02
 ETOT  2  -165.81074598027    -2.010E-01 1.359E-02 6.032E+00 1.827E-01 9.042E-02
 ETOT  3  -165.80718385200     3.562E-03 1.849E-03 1.205E+00 8.172E-02 8.700E-03
 ETOT  4  -165.80792237088    -7.385E-04 2.266E-03 9.657E-02 1.637E-02 2.507E-02
 ETOT  5  -165.80759016867     3.322E-04 6.163E-04 8.476E-03 2.305E-02 2.017E-03
 ETOT  6  -165.80764473056    -5.456E-05 1.402E-03 1.586E-03 2.932E-03 9.150E-04
 ETOT  7  -165.80764570745    -9.769E-07 5.981E-04 4.833E-04 5.492E-04 3.658E-04
 ETOT  8  -165.80764749538    -1.788E-06 1.703E-03 7.702E-05 4.096E-04 5.691E-04
 ETOT  9  -165.80764765419    -1.588E-07 2.456E-04 3.062E-05 9.929E-05 4.827E-04
 ETOT 10  -165.80764771802    -6.383E-08 3.273E-04 2.032E-06 5.575E-05 5.384E-04
 ETOT 11  -165.80764773787    -1.984E-08 6.831E-05 1.576E-06 3.488E-05 5.733E-04
 ETOT 12  -165.80764773796    -8.936E-11 6.527E-05 1.168E-07 1.699E-05 5.649E-04
 ETOT 13  -165.80764773897    -1.011E-09 4.741E-05 6.614E-08 5.024E-06 5.699E-04
 ETOT 14  -165.80764773899    -2.774E-11 5.661E-05 3.544E-09 4.747E-06 5.747E-04
 ETOT 15  -165.80764773901    -1.711E-11 5.451E-05 3.604E-09 6.590E-07 5.745E-04
 ETOT 16  -165.80764773900     7.219E-12 5.846E-05 3.448E-10 3.998E-07 5.748E-04
 ETOT 17  -165.80764773901    -1.194E-12 5.696E-05 4.856E-10 3.871E-07 5.747E-04
 ETOT 18  -165.80764773901    -2.672E-12 5.819E-05 2.568E-11 2.149E-07 5.749E-04
 ETOT 19  -165.80764773900     4.036E-12 5.374E-05 2.669E-12 3.901E-08 5.748E-04
 ETOT 20  -165.80764773901    -1.364E-12 5.238E-05 1.541E-12 1.106E-08 5.748E-04
 ETOT 21  -165.80764773901     9.663E-13 4.612E-05 9.175E-14 1.179E-08 5.748E-04
 ETOT 22  -165.80764773900     6.423E-12 4.318E-05 2.037E-13 2.593E-09 5.748E-04
 ETOT 23  -165.80764773901    -6.736E-12 3.656E-05 4.143E-15 4.452E-09 5.748E-04

 At SCF step   23, forces are converged : 
  for the second time, max diff in force=  4.452E-09 < toldff=  1.000E-08

 Cartesian components of stress tensor (hartree/bohr^3)
  sigma(1 1)= -8.07102316E-05  sigma(3 2)=  5.52670888E-09
  sigma(2 2)= -8.09292652E-05  sigma(3 1)=  1.08179205E-13
  sigma(3 3)= -8.09292652E-05  sigma(2 1)=  1.08178836E-13


--- !ResultsGS
iteration_state: {dtset: 1, itime: 1, icycle: 1, }
comment   : Summary of ground state results
lattice_vectors:
- [  0.0000000,  10.3244090,  10.3244090, ]
- [ 10.4699033,  -0.0883936,  10.4128026, ]
- [ 10.4699033,  10.4128026,  -0.0883936, ]
lattice_lengths: [  14.60092,   14.76662,   14.76662, ]
lattice_angles: [ 60.378,  60.371,  60.371, ] # degrees, (23, 13, 12)
lattice_volume:   2.2702654E+03
convergence: {deltae: -6.736E-12, res2:  4.143E-15, residm:  3.656E-05, diffor:  4.452E-09, }
etotal    :  -1.65807648E+02
entropy   :   0.00000000E+00
fermie    :  -4.56518248E-02
cartesian_stress_tensor: # hartree/bohr^3
- [ -8.07102316E-05,   1.08178836E-13,   1.08179205E-13, ]
- [  1.08178836E-13,  -8.09292652E-05,   5.52670888E-09, ]
- [  1.08179205E-13,   5.52670888E-09,  -8.09292652E-05, ]
pressure_GPa:   2.3789E+00
xred      :
- [  2.4594E-01,   2.5109E-01,   2.5109E-01, Cs]
- [  7.4812E-01,   7.4891E-01,   7.4891E-01, Cs]
- [  2.4957E-01,   2.5086E-01,   7.4914E-01,  I]
- [  7.6213E-01,   7.7475E-01,   2.2525E-01, Cl]
- [  2.5847E-01,   7.4274E-01,   7.4274E-01,  I]
- [  7.6213E-01,   2.2525E-01,   7.7475E-01, Cl]
- [  2.4957E-01,   7.4914E-01,   2.5086E-01,  I]
- [  7.4395E-01,   2.5726E-01,   2.5726E-01,  I]
- [ -1.9878E-02,  -4.7555E-19,   4.7555E-19, Zr]
cartesian_forces: # hartree/bohr
- [  1.60260727E-05,  -2.48610221E-06,  -2.48610221E-06, ]
- [ -1.60260727E-05,  -2.48610221E-06,  -2.48610221E-06, ]
- [  6.92594121E-15,   1.65544621E-05,   3.90639289E-04, ]
- [ -9.42296492E-15,   2.08399438E-05,  -5.74841649E-04, ]
- [ -4.05053839E-04,   2.31768821E-05,   2.31768821E-05, ]
- [ -9.42299222E-15,  -5.74841649E-04,   2.08399438E-05, ]
- [  6.92588819E-15,   3.90639289E-04,   1.65544621E-05, ]
- [  4.05053839E-04,   2.31768821E-05,   2.31768821E-05, ]
- [  3.58637384E-15,   1.05426394E-04,   1.05426394E-04, ]
force_length_stats: {min:   1.64072062E-05, max:   5.75219284E-04, mean:   3.25231544E-04, }
...

 Integrated electronic density in atomic spheres:
 ------------------------------------------------
 Atom  Sphere_radius  Integrated_density
    1        2.20660          5.36693543
    2        2.20660          5.36693543
    3        2.30022          4.02681197
    4        1.80316          4.35821901
    5        2.30022          4.02964339
    6        1.80316          4.35821901
    7        2.30022          4.02681197
    8        2.30022          4.02964339
    9        2.21000          8.84301133

 PAW TEST:
 ==== Compensation charge inside spheres ============
 The following values must be close to each other ...
 Compensation charge over spherical meshes =     -5.497207475753655
 Compensation charge over fine fft grid    =     -5.497204158585049

 ==== Results concerning PAW augmentation regions ====

 Total pseudopotential strength Dij (hartree):
 Atom #  1
   0.43021  -0.14252  -0.00000  -0.00000   0.00000   0.00000   0.00000  -0.00001  -0.00000  -0.00000  -0.00000  -0.00000 ...
  -0.14252   0.04287   0.00000   0.00000  -0.00000  -0.00000  -0.00000   0.00000   0.00000   0.00000   0.00000   0.00000 ...
  -0.00000   0.00000  -0.09234  -0.00000  -0.00000  -0.16731   0.00000   0.00000   0.00000  -0.00000   0.00000  -0.00000 ...
  -0.00000   0.00000  -0.00000  -0.09234  -0.00000   0.00000  -0.16731   0.00000  -0.00000  -0.00000   0.00000   0.00000 ...
   0.00000  -0.00000  -0.00000  -0.00000  -0.09234   0.00000   0.00000  -0.16731  -0.00000  -0.00000  -0.00000  -0.00000 ...
   0.00000  -0.00000  -0.16731   0.00000   0.00000   0.40098  -0.00000  -0.00001  -0.00000   0.00000   0.00000   0.00000 ...
   0.00000  -0.00000   0.00000  -0.16731   0.00000  -0.00000   0.40098  -0.00001   0.00000   0.00000   0.00000  -0.00000 ...
  -0.00001   0.00000   0.00000   0.00000  -0.16731  -0.00001  -0.00001   0.40099  -0.00000   0.00000   0.00000  -0.00000 ...
  -0.00000   0.00000   0.00000  -0.00000  -0.00000  -0.00000   0.00000  -0.00000   0.00540  -0.00000   0.00000   0.00000 ...
  -0.00000   0.00000  -0.00000  -0.00000  -0.00000   0.00000   0.00000   0.00000  -0.00000   0.00540  -0.00000  -0.00000 ...
  -0.00000   0.00000   0.00000   0.00000  -0.00000   0.00000   0.00000   0.00000   0.00000  -0.00000   0.00540  -0.00000 ...
  -0.00000   0.00000  -0.00000   0.00000  -0.00000   0.00000  -0.00000  -0.00000   0.00000  -0.00000  -0.00000   0.00540 ...
   ...  only 12  components have been written...
 Atom #  9
   3.07064  -0.89420   0.00001   0.00001   0.00000   0.00000   0.00000   0.00000   0.00000   0.00001   0.00002   0.00000 ...
  -0.89420   0.26718  -0.00001  -0.00001   0.00000   0.00000   0.00000   0.00000   0.00000  -0.00000  -0.00000   0.00000 ...
   0.00001  -0.00001   0.27093   0.00000   0.00000  -0.05517  -0.00000   0.00000   0.00000  -0.00011   0.00006   0.00000 ...
   0.00001  -0.00001   0.00000   0.27093   0.00000  -0.00000  -0.05517   0.00000   0.00000  -0.00011  -0.00013   0.00000 ...
   0.00000   0.00000   0.00000   0.00000   0.27083   0.00000   0.00000  -0.05515  -0.00011   0.00000   0.00000  -0.00011 ...
   0.00000   0.00000  -0.05517  -0.00000   0.00000   0.01510   0.00000   0.00000   0.00000   0.00002  -0.00001   0.00000 ...
   0.00000   0.00000  -0.00000  -0.05517   0.00000   0.00000   0.01510   0.00000   0.00000   0.00002   0.00002   0.00000 ...
   0.00000   0.00000   0.00000   0.00000  -0.05515   0.00000   0.00000   0.01510   0.00002   0.00000   0.00000   0.00002 ...
   0.00000   0.00000   0.00000   0.00000  -0.00011   0.00000   0.00000   0.00002  -0.01209   0.00000   0.00000   0.00001 ...
   0.00001  -0.00000  -0.00011  -0.00011   0.00000   0.00002   0.00002   0.00000   0.00000  -0.01205   0.00001   0.00000 ...
   0.00002  -0.00000   0.00006  -0.00013   0.00000  -0.00001   0.00002   0.00000   0.00000   0.00001  -0.01198   0.00000 ...
   0.00000   0.00000   0.00000   0.00000  -0.00011   0.00000   0.00000   0.00002   0.00001   0.00000   0.00000  -0.01209 ...
   ...  only 12  components have been written...


 Augmentation waves occupancies Rhoij:
 Atom #  1
   1.99786  -0.01424   0.00002   0.00002   0.00000  -0.00000  -0.00000   0.00002  -0.00367  -0.00057  -0.00076  -0.00367 ...
  -0.01424   0.17959  -0.00005  -0.00005   0.00182  -0.00001  -0.00001  -0.00004   0.02264   0.00637   0.00815   0.02264 ...
   0.00002  -0.00005   2.00823   0.00052   0.00221  -0.00509  -0.00007  -0.00037   0.00086   0.00116   0.00119  -0.00158 ...
   0.00002  -0.00005   0.00052   2.00823   0.00221  -0.00007  -0.00509  -0.00037  -0.00158   0.00116   0.00020   0.00086 ...
   0.00000   0.00182   0.00221   0.00221   2.00651  -0.00037  -0.00037  -0.00479  -0.00172  -0.00176  -0.00097  -0.00172 ...
  -0.00000  -0.00001  -0.00509  -0.00007  -0.00037   0.00014   0.00001   0.00002  -0.00002  -0.00008  -0.00007   0.00005 ...
  -0.00000  -0.00001  -0.00007  -0.00509  -0.00037   0.00001   0.00014   0.00002   0.00005  -0.00008  -0.00002  -0.00002 ...
   0.00002  -0.00004  -0.00037  -0.00037  -0.00479   0.00002   0.00002   0.00011   0.00009   0.00006   0.00002   0.00009 ...
  -0.00367   0.02264   0.00086  -0.00158  -0.00172  -0.00002   0.00005   0.00009   0.05319  -0.00033  -0.01837  -0.00209 ...
  -0.00057   0.00637   0.00116   0.00116  -0.00176  -0.00008  -0.00008   0.00006  -0.00033   0.07943   0.00232  -0.00033 ...
  -0.00076   0.00815   0.00119   0.00020  -0.00097  -0.00007  -0.00002   0.00002  -0.01837   0.00232   0.03829   0.00808 ...
  -0.00367   0.02264  -0.00158   0.00086  -0.00172   0.00005  -0.00002   0.00009  -0.00209  -0.00033   0.00808   0.05319 ...
   ...  only 12  components have been written...
 Atom #  9
   1.99338  -0.06433   0.00007   0.00007   0.00000   0.00103   0.00103   0.00000   0.00000   0.00070  -0.00205   0.00000 ...
  -0.06433   1.06246   0.00448   0.00448   0.00000  -0.04651  -0.04651   0.00000   0.00000  -0.00146   0.01909   0.00000 ...
   0.00007   0.00448   1.96715  -0.00001   0.00000  -0.19683   0.00015   0.00000   0.00000  -0.00280  -0.00069   0.00000 ...
   0.00007   0.00448  -0.00001   1.96715   0.00000   0.00015  -0.19683   0.00000   0.00000  -0.00280   0.00156   0.00000 ...
   0.00000   0.00000   0.00000   0.00000   1.96895   0.00000   0.00000  -0.18533  -0.00295   0.00000   0.00000  -0.00295 ...
   0.00103  -0.04651  -0.19683   0.00015   0.00000   1.71418  -0.01155   0.00000   0.00000   0.04085   0.08665   0.00000 ...
   0.00103  -0.04651   0.00015  -0.19683   0.00000  -0.01155   1.71418   0.00000   0.00000   0.04085  -0.17520   0.00000 ...
   0.00000   0.00000   0.00000   0.00000  -0.18533   0.00000   0.00000   1.51455   0.06020   0.00000   0.00000   0.06020 ...
   0.00000   0.00000   0.00000   0.00000  -0.00295   0.00000   0.00000   0.06020   0.49308   0.00000   0.00000   0.00517 ...
   0.00070  -0.00146  -0.00280  -0.00280   0.00000   0.04085   0.04085   0.00000   0.00000   0.51372  -0.00210   0.00000 ...
  -0.00205   0.01909  -0.00069   0.00156   0.00000   0.08665  -0.17520   0.00000   0.00000  -0.00210   1.48108   0.00000 ...
   0.00000   0.00000   0.00000   0.00000  -0.00295   0.00000   0.00000   0.06020   0.00517   0.00000   0.00000   0.49308 ...
   ...  only 12  components have been written...



---OUTPUT-----------------------------------------------------------------------

 Cartesian coordinates (xcart) [bohr]
  5.25776119161898E+00  5.13151751004018E+00  5.13151751004018E+00
  1.56820454676090E+01  1.54559264809135E+01  1.54559264809135E+01
  1.04699033296140E+01  1.03551069736326E+01  5.12256354499323E+00
  1.04699033296140E+01  1.01455354010753E+01  1.59159965746272E+01
  1.55528227345139E+01  1.03369260885235E+01  1.03369260885234E+01
  1.04699033296140E+01  1.59159965746272E+01  1.01455354010753E+01
  1.04699033296140E+01  5.12256354499323E+00  1.03551069736326E+01
  5.38698392471405E+00  1.03369260886964E+01  1.03369260886964E+01
  1.49734519299298E-35 -2.05226895294070E-01 -2.05226895294070E-01
 Reduced coordinates (xred)
  2.45938435475000E-01  2.51089290230000E-01  2.51089290230000E-01
  7.48117015935000E-01  7.48910709770000E-01  7.48910709770000E-01
  2.49566903170000E-01  2.50859646660000E-01  7.49140353340000E-01
  7.62131907460000E-01  7.74752566380000E-01  2.25247433620000E-01
  2.58472823435000E-01  7.42739557610000E-01  7.42739557610000E-01
  7.62131907460000E-01  2.25247433620000E-01  7.74752566380000E-01
  2.49566903170000E-01  7.49140353340000E-01  2.50859646660000E-01
  7.43951938655000E-01  2.57260442390000E-01  2.57260442390000E-01
 -1.98778347380000E-02 -4.75546483343153E-19  4.75546483343153E-19
 Cartesian forces (fcart) [Ha/bohr]; max,rms= 5.74842E-04 2.21155E-04 (free atoms)
  1.60260727181823E-05 -2.48610221453500E-06 -2.48610221453498E-06
 -1.60260727183514E-05 -2.48610221453500E-06 -2.48610221453498E-06
  6.92594121021416E-15  1.65544620809978E-05  3.90639288666296E-04
 -9.42296491703530E-15  2.08399438418686E-05 -5.74841648536628E-04
 -4.05053839277475E-04  2.31768821378283E-05  2.31768821378283E-05
 -9.42299221807482E-15 -5.74841648536628E-04  2.08399438418686E-05
  6.92588819151946E-15  3.90639288666296E-04  1.65544620809979E-05
  4.05053839279052E-04  2.31768821378283E-05  2.31768821378282E-05
  3.58637384202243E-15  1.05426394100880E-04  1.05426394100880E-04
 Reduced forces (fred)
  5.13350720133880E-05 -1.42123896106924E-04 -1.42123896106924E-04
  5.13350720133880E-05  1.93458968120312E-04  1.93458968120312E-04
 -4.20403481317112E-03 -4.06618647319933E-03 -1.37848339971794E-04
  5.71974016992794E-03  5.98755470126126E-03 -2.67814531333321E-04
 -4.78575219729556E-04  4.00158693066764E-03  4.00158693066764E-03
  5.71974016992794E-03 -2.67814531333320E-04  5.98755470126126E-03
 -4.20403481317112E-03 -1.37848339971794E-04 -4.06618647319933E-03
 -4.78575219729556E-04 -4.48016215039720E-03 -4.48016215039720E-03
 -2.17693041808129E-03 -1.08846520904065E-03 -1.08846520904065E-03
 Scale of Primitive Cell (acell) [bohr]
  1.46009191902750E+01  1.47666227048910E+01  1.47666227048910E+01
 Real space primitive translations (rprimd) [bohr]
  0.00000000000000E+00  1.03244089710507E+01  1.03244089710507E+01
  1.04699033296140E+01 -8.83935796504590E-02  1.04128025503450E+01
  1.04699033296140E+01  1.04128025503450E+01 -8.83935796504590E-02
 Unitary Cell Volume (ucvol) [Bohr^3]=  2.27026543380091E+03
 Angles (23,13,12)= [degrees]
  6.03781039162464E+01  6.03705148311125E+01  6.03705148311125E+01
 Lengths [Bohr]
  1.46009191903463E+01  1.47666227048996E+01  1.47666227048996E+01
 Stress tensor in cartesian coordinates (strten) [Ha/bohr^3]
 -8.07102316351688E-05  1.08178835586306E-13  1.08179204663372E-13
  1.08178835586306E-13 -8.09292652319948E-05  5.52670887965491E-09
  1.08179204663372E-13  5.52670887965491E-09 -8.09292652319939E-05
 Total energy (etotal) [Ha]= -1.65807647739005E+02

--- Iteration: (   2/1000) Internal Cycle: (1/1)
--------------------------------------------------------------------------------

---SELF-CONSISTENT-FIELD CONVERGENCE--------------------------------------------

--- !BeginCycle
iteration_state: {dtset: 1, itime: 2, icycle: 1, }
solver: {iscf: 17, nstep: 2500, nline: 4, wfoptalg: 10, }
tolerances: {toldff: 1.00E-08, }
...

     iter   Etot(hartree)      deltaE(h)  residm     nres2    diffor    maxfor
 ETOT  1  -165.80765179317    -1.658E+02 2.684E-05 5.581E-04 2.867E-03 3.442E-03
 ETOT  2  -165.80764931064     2.483E-06 1.937E-05 1.163E-04 3.319E-03 2.538E-04
 ETOT  3  -165.80764898143     3.292E-07 1.882E-05 6.010E-06 6.133E-04 7.366E-04
 ETOT  4  -165.80764896825     1.318E-08 1.333E-05 1.196E-06 1.971E-04 5.395E-04
 ETOT  5  -165.80764897004    -1.787E-09 1.583E-05 4.054E-07 1.241E-05 5.291E-04
 ETOT  6  -165.80764897358    -3.539E-09 9.132E-06 7.998E-08 2.411E-05 5.049E-04
 ETOT  7  -165.80764897517    -1.590E-09 1.290E-05 2.788E-08 2.320E-06 5.041E-04
 ETOT  8  -165.80764897727    -2.103E-09 7.341E-06 2.071E-09 5.994E-06 4.981E-04
 ETOT  9  -165.80764897763    -3.618E-10 1.024E-05 5.023E-10 6.688E-07 4.986E-04
 ETOT 10  -165.80764897792    -2.915E-10 5.771E-06 1.417E-10 6.775E-07 4.980E-04
 ETOT 11  -165.80764897804    -1.135E-10 7.973E-06 2.252E-11 1.048E-07 4.980E-04
 ETOT 12  -165.80764897812    -7.969E-11 4.459E-06 4.569E-12 8.827E-08 4.979E-04
 ETOT 13  -165.80764897816    -4.141E-11 6.112E-06 1.087E-12 3.378E-08 4.979E-04
 ETOT 14  -165.80764897819    -3.359E-11 3.399E-06 1.168E-13 9.641E-09 4.979E-04
 ETOT 15  -165.80764897822    -2.970E-11 4.631E-06 5.434E-14 5.889E-09 4.979E-04

 At SCF step   15, forces are converged : 
  for the second time, max diff in force=  5.889E-09 < toldff=  1.000E-08

 Cartesian components of stress tensor (hartree/bohr^3)
  sigma(1 1)= -8.05585050E-05  sigma(3 2)=  9.28888253E-10
  sigma(2 2)= -8.07178037E-05  sigma(3 1)=  1.08181968E-13
  sigma(3 3)= -8.07178037E-05  sigma(2 1)=  1.08181801E-13


--- !ResultsGS
iteration_state: {dtset: 1, itime: 2, icycle: 1, }
comment   : Summary of ground state results
lattice_vectors:
- [  0.0000000,  10.3244282,  10.3244282, ]
- [ 10.4698575,  -0.0883972,  10.4128254, ]
- [ 10.4698575,  10.4128254,  -0.0883972, ]
lattice_lengths: [  14.60095,   14.76661,   14.76661, ]
lattice_angles: [ 60.378,  60.370,  60.370, ] # degrees, (23, 13, 12)
lattice_volume:   2.2702654E+03
convergence: {deltae: -2.970E-11, res2:  5.434E-14, residm:  4.631E-06, diffor:  5.889E-09, }
etotal    :  -1.65807649E+02
entropy   :   0.00000000E+00
fermie    :  -4.56549105E-02
cartesian_stress_tensor: # hartree/bohr^3
- [ -8.05585050E-05,   1.08181801E-13,   1.08181968E-13, ]
- [  1.08181801E-13,  -8.07178037E-05,   9.28888253E-10, ]
- [  1.08181968E-13,   9.28888253E-10,  -8.07178037E-05, ]
pressure_GPa:   2.3732E+00
xred      :
- [  2.4594E-01,   2.5109E-01,   2.5109E-01, Cs]
- [  7.4812E-01,   7.4891E-01,   7.4891E-01, Cs]
- [  2.4959E-01,   2.5088E-01,   7.4912E-01,  I]
- [  7.6211E-01,   7.7472E-01,   2.2528E-01, Cl]
- [  2.5849E-01,   7.4272E-01,   7.4272E-01,  I]
- [  7.6211E-01,   2.2528E-01,   7.7472E-01, Cl]
- [  2.4959E-01,   7.4912E-01,   2.5088E-01,  I]
- [  7.4393E-01,   2.5728E-01,   2.5728E-01,  I]
- [ -1.9868E-02,   1.7079E-16,   1.7175E-16, Zr]
cartesian_forces: # hartree/bohr
- [  1.59158111E-05,  -2.46506900E-06,  -2.46506900E-06, ]
- [ -1.59158111E-05,  -2.46506900E-06,  -2.46506900E-06, ]
- [  6.17654114E-15,   1.66607510E-05,   3.46479045E-04, ]
- [ -8.13296070E-15,   1.97475257E-05,  -4.97911468E-04, ]
- [ -3.61359894E-04,   2.32691439E-05,   2.32691439E-05, ]
- [ -8.13304528E-15,  -4.97911468E-04,   1.97475257E-05, ]
- [  6.17656234E-15,   3.46479045E-04,   1.66607510E-05, ]
- [  3.61359894E-04,   2.32691439E-05,   2.32691439E-05, ]
- [  2.49743551E-15,   7.34159966E-05,   7.34159966E-05, ]
force_length_stats: {min:   1.62931327E-05, max:   4.98302914E-04, mean:   2.83609680E-04, }
...

 Integrated electronic density in atomic spheres:
 ------------------------------------------------
 Atom  Sphere_radius  Integrated_density
    1        2.20660          5.36693584
    2        2.20660          5.36693584
    3        2.30022          4.02681856
    4        1.80316          4.35817577
    5        2.30022          4.02892209
    6        1.80316          4.35817577
    7        2.30022          4.02681856
    8        2.30022          4.02892209
    9        2.21000          8.84278030

 PAW TEST:
 ==== Compensation charge inside spheres ============
 The following values must be close to each other ...
 Compensation charge over spherical meshes =     -5.497221610383775
 Compensation charge over fine fft grid    =     -5.497218215593577

 ==== Results concerning PAW augmentation regions ====

 Total pseudopotential strength Dij (hartree):
 Atom #  1
   0.43020  -0.14252  -0.00000  -0.00000   0.00000   0.00000   0.00000  -0.00001  -0.00000  -0.00000  -0.00000  -0.00000 ...
  -0.14252   0.04287   0.00000   0.00000  -0.00000  -0.00000  -0.00000   0.00000   0.00000   0.00000   0.00000   0.00000 ...
  -0.00000   0.00000  -0.09234  -0.00000  -0.00000  -0.16731   0.00000   0.00000   0.00000  -0.00000   0.00000  -0.00000 ...
  -0.00000   0.00000  -0.00000  -0.09234  -0.00000   0.00000  -0.16731   0.00000  -0.00000  -0.00000   0.00000   0.00000 ...
   0.00000  -0.00000  -0.00000  -0.00000  -0.09234   0.00000   0.00000  -0.16731  -0.00000  -0.00000  -0.00000  -0.00000 ...
   0.00000  -0.00000  -0.16731   0.00000   0.00000   0.40098  -0.00000  -0.00001  -0.00000   0.00000   0.00000   0.00000 ...
   0.00000  -0.00000   0.00000  -0.16731   0.00000  -0.00000   0.40098  -0.00001   0.00000   0.00000   0.00000  -0.00000 ...
  -0.00001   0.00000   0.00000   0.00000  -0.16731  -0.00001  -0.00001   0.40098  -0.00000   0.00000   0.00000  -0.00000 ...
  -0.00000   0.00000   0.00000  -0.00000  -0.00000  -0.00000   0.00000  -0.00000   0.00540  -0.00000   0.00000   0.00000 ...
  -0.00000   0.00000  -0.00000  -0.00000  -0.00000   0.00000   0.00000   0.00000  -0.00000   0.00540  -0.00000  -0.00000 ...
  -0.00000   0.00000   0.00000   0.00000  -0.00000   0.00000   0.00000   0.00000   0.00000  -0.00000   0.00540  -0.00000 ...
  -0.00000   0.00000  -0.00000   0.00000  -0.00000   0.00000  -0.00000  -0.00000   0.00000  -0.00000  -0.00000   0.00540 ...
   ...  only 12  components have been written...
 Atom #  9
   3.07066  -0.89421   0.00001   0.00001   0.00000   0.00000   0.00000   0.00000   0.00000   0.00001   0.00002   0.00000 ...
  -0.89421   0.26718  -0.00001  -0.00001   0.00000   0.00000   0.00000   0.00000   0.00000  -0.00000  -0.00000   0.00000 ...
   0.00001  -0.00001   0.27092   0.00000   0.00000  -0.05516  -0.00000   0.00000   0.00000  -0.00011   0.00006   0.00000 ...
   0.00001  -0.00001   0.00000   0.27092   0.00000  -0.00000  -0.05516   0.00000   0.00000  -0.00011  -0.00013   0.00000 ...
   0.00000   0.00000   0.00000   0.00000   0.27083   0.00000   0.00000  -0.05515  -0.00011   0.00000   0.00000  -0.00011 ...
   0.00000   0.00000  -0.05516  -0.00000   0.00000   0.01510   0.00000   0.00000   0.00000   0.00002  -0.00001   0.00000 ...
   0.00000   0.00000  -0.00000  -0.05516   0.00000   0.00000   0.01510   0.00000   0.00000   0.00002   0.00002   0.00000 ...
   0.00000   0.00000   0.00000   0.00000  -0.05515   0.00000   0.00000   0.01510   0.00002   0.00000   0.00000   0.00002 ...
   0.00000   0.00000   0.00000   0.00000  -0.00011   0.00000   0.00000   0.00002  -0.01210   0.00000   0.00000   0.00001 ...
   0.00001  -0.00000  -0.00011  -0.00011   0.00000   0.00002   0.00002   0.00000   0.00000  -0.01206   0.00001   0.00000 ...
   0.00002  -0.00000   0.00006  -0.00013   0.00000  -0.00001   0.00002   0.00000   0.00000   0.00001  -0.01199   0.00000 ...
   0.00000   0.00000   0.00000   0.00000  -0.00011   0.00000   0.00000   0.00002   0.00001   0.00000   0.00000  -0.01210 ...
   ...  only 12  components have been written...


 Augmentation waves occupancies Rhoij:
 Atom #  1
   1.99786  -0.01424   0.00002   0.00002   0.00000  -0.00000  -0.00000   0.00002  -0.00367  -0.00057  -0.00076  -0.00367 ...
  -0.01424   0.17959  -0.00004  -0.00004   0.00182  -0.00001  -0.00001  -0.00004   0.02264   0.00637   0.00814   0.02264 ...
   0.00002  -0.00004   2.00823   0.00052   0.00221  -0.00509  -0.00007  -0.00036   0.00086   0.00116   0.00119  -0.00159 ...
   0.00002  -0.00004   0.00052   2.00823   0.00221  -0.00007  -0.00509  -0.00036  -0.00159   0.00116   0.00020   0.00086 ...
   0.00000   0.00182   0.00221   0.00221   2.00651  -0.00036  -0.00036  -0.00479  -0.00172  -0.00176  -0.00097  -0.00172 ...
  -0.00000  -0.00001  -0.00509  -0.00007  -0.00036   0.00014   0.00001   0.00002  -0.00002  -0.00008  -0.00007   0.00005 ...
  -0.00000  -0.00001  -0.00007  -0.00509  -0.00036   0.00001   0.00014   0.00002   0.00005  -0.00008  -0.00002  -0.00002 ...
   0.00002  -0.00004  -0.00036  -0.00036  -0.00479   0.00002   0.00002   0.00011   0.00009   0.00006   0.00002   0.00009 ...
  -0.00367   0.02264   0.00086  -0.00159  -0.00172  -0.00002   0.00005   0.00009   0.05319  -0.00033  -0.01836  -0.00209 ...
  -0.00057   0.00637   0.00116   0.00116  -0.00176  -0.00008  -0.00008   0.00006  -0.00033   0.07943   0.00232  -0.00033 ...
  -0.00076   0.00814   0.00119   0.00020  -0.00097  -0.00007  -0.00002   0.00002  -0.01836   0.00232   0.03829   0.00808 ...
  -0.00367   0.02264  -0.00159   0.00086  -0.00172   0.00005  -0.00002   0.00009  -0.00209  -0.00033   0.00808   0.05319 ...
   ...  only 12  components have been written...
 Atom #  9
   1.99337  -0.06435   0.00006   0.00006   0.00000   0.00102   0.00102   0.00000   0.00000   0.00070  -0.00205   0.00000 ...
  -0.06435   1.06224   0.00447   0.00447   0.00000  -0.04632  -0.04632   0.00000   0.00000  -0.00143   0.01902   0.00000 ...
   0.00006   0.00447   1.96714  -0.00001   0.00000  -0.19692   0.00015   0.00000   0.00000  -0.00280  -0.00070   0.00000 ...
   0.00006   0.00447  -0.00001   1.96714   0.00000   0.00015  -0.19692   0.00000   0.00000  -0.00280   0.00157   0.00000 ...
   0.00000   0.00000   0.00000   0.00000   1.96893   0.00000   0.00000  -0.18541  -0.00295   0.00000   0.00000  -0.00295 ...
   0.00102  -0.04632  -0.19692   0.00015   0.00000   1.71331  -0.01152   0.00000   0.00000   0.04083   0.08642   0.00000 ...
   0.00102  -0.04632   0.00015  -0.19692   0.00000  -0.01152   1.71331   0.00000   0.00000   0.04083  -0.17475   0.00000 ...
   0.00000   0.00000   0.00000   0.00000  -0.18541   0.00000   0.00000   1.51409   0.06020   0.00000   0.00000   0.06020 ...
   0.00000   0.00000   0.00000   0.00000  -0.00295   0.00000   0.00000   0.06020   0.49284   0.00000   0.00000   0.00517 ...
   0.00070  -0.00143  -0.00280  -0.00280   0.00000   0.04083   0.04083   0.00000   0.00000   0.51339  -0.00209   0.00000 ...
  -0.00205   0.01902  -0.00070   0.00157   0.00000   0.08642  -0.17475   0.00000   0.00000  -0.00209   1.48025   0.00000 ...
   0.00000   0.00000   0.00000   0.00000  -0.00295   0.00000   0.00000   0.06020   0.00517   0.00000   0.00000   0.49284 ...
   ...  only 12  components have been written...



---OUTPUT-----------------------------------------------------------------------

 Cartesian coordinates (xcart) [bohr]
  5.25775418512000E+00  5.13152456208132E+00  5.13152456208132E+00
  1.56819607437858E+01  1.54559527233287E+01  1.54559527233287E+01
  1.04698574644529E+01  1.03551445105597E+01  5.12296197151228E+00
  1.04698574644529E+01  1.01455731856507E+01  1.59154532288841E+01
  1.55523495507101E+01  1.03369684790888E+01  1.03369684790888E+01
  1.04698574644529E+01  1.59154532288841E+01  1.01455731856507E+01
  1.04698574644529E+01  5.12296197151228E+00  1.03551445105597E+01
  5.38736537819567E+00  1.03369684792617E+01  1.03369684792617E+01
  3.58635024734145E-15 -2.05121850167093E-01 -2.05121850167093E-01
 Reduced coordinates (xred)
  2.45937429336446E-01  2.51090055570052E-01  2.51090055570052E-01
  7.48117540476550E-01  7.48909944429948E-01  7.48909944429948E-01
  2.49586623124521E-01  2.50877458194132E-01  7.49122541805869E-01
  7.62105077754482E-01  7.74724203820868E-01  2.25275796179131E-01
  2.58494412021784E-01  7.42720213886064E-01  7.42720213886065E-01
  7.62105077754482E-01  2.25275796179131E-01  7.74724203820868E-01
  2.49586623124521E-01  7.49122541805869E-01  2.50877458194132E-01
  7.43934839793914E-01  2.57279786113936E-01  2.57279786113936E-01
 -1.98676233647006E-02  1.70794849508625E-16  1.71745653981301E-16
 Cartesian forces (fcart) [Ha/bohr]; max,rms= 4.97911E-04 1.93592E-04 (free atoms)
  1.59158110534963E-05 -2.46506900208530E-06 -2.46506900208530E-06
 -1.59158110536641E-05 -2.46506900208530E-06 -2.46506900208530E-06
  6.17654114463196E-15  1.66607510470509E-05  3.46479044503922E-04
 -8.13296070204845E-15  1.97475257393368E-05 -4.97911467685914E-04
 -3.61359893715739E-04  2.32691439170855E-05  2.32691439170855E-05
 -8.13304527998122E-15 -4.97911467685914E-04  1.97475257393369E-05
  6.17656234118612E-15  3.46479044503922E-04  1.66607510470508E-05
  3.61359893717322E-04  2.32691439170855E-05  2.32691439170855E-05
  2.49743551363910E-15  7.34159965656038E-05  7.34159965656038E-05
 Reduced forces (fred)
  5.09008556499692E-05 -1.41185845337164E-04 -1.41185845337164E-04
  5.09008556499692E-05  1.92086700987133E-04  1.92086700987133E-04
 -3.74921073172048E-03 -3.60635302664419E-03 -1.42857705076289E-04
  4.93676926801110E-03  5.18641079790351E-03 -2.49641529892415E-04
 -4.80481209499604E-04  3.54314597583212E-03  3.54314597583212E-03
  4.93676926801110E-03 -2.49641529892416E-04  5.18641079790351E-03
 -3.74921073172048E-03 -1.42857705076289E-04 -3.60635302664419E-03
 -4.80481209499604E-04 -4.02362718533172E-03 -4.02362718533172E-03
 -1.51595636488196E-03 -7.57978182440980E-04 -7.57978182440980E-04
 Scale of Primitive Cell (acell) [bohr]
  1.46009463296336E+01  1.47666063108882E+01  1.47666063108882E+01
 Real space primitive translations (rprimd) [bohr]
  0.00000000000000E+00  1.03244281614247E+01  1.03244281614247E+01
  1.04698574644529E+01 -8.83972261742210E-02  1.04128253872428E+01
  1.04698574644529E+01  1.04128253872428E+01 -8.83972261742210E-02
 Unitary Cell Volume (ucvol) [Bohr^3]=  2.27026543380091E+03
 Angles (23,13,12)= [degrees]
  6.03783460524203E+01  6.03704180803142E+01  6.03704180803142E+01
 Lengths [Bohr]
  1.46009463296336E+01  1.47666063108882E+01  1.47666063108882E+01
 Stress tensor in cartesian coordinates (strten) [Ha/bohr^3]
 -8.05585050251091E-05  1.08181801212311E-13  1.08181967794765E-13
  1.08181801212311E-13 -8.07178036870216E-05  9.28888253391600E-10
  1.08181967794765E-13  9.28888253391600E-10 -8.07178036870233E-05
 Total energy (etotal) [Ha]= -1.65807648978222E+02

 Difference of energy with previous step (new-old):
           Absolute (Ha)=-1.23922E-06
           Relative     =-7.47382E-09

--- Iteration: (   3/1000) Internal Cycle: (1/1)
--------------------------------------------------------------------------------

---SELF-CONSISTENT-FIELD CONVERGENCE--------------------------------------------

--- !BeginCycle
iteration_state: {dtset: 1, itime: 3, icycle: 1, }
solver: {iscf: 17, nstep: 2500, nline: 4, wfoptalg: 10, }
tolerances: {toldff: 1.00E-08, }
...

     iter   Etot(hartree)      deltaE(h)  residm     nres2    diffor    maxfor
 ETOT  1  -165.80778910668    -1.658E+02 4.353E-03 2.715E-02 1.995E-02 2.045E-02
 ETOT  2  -165.80766918211     1.199E-04 6.860E-04 5.703E-03 2.292E-02 2.470E-03
 ETOT  3  -165.80765343949     1.574E-05 5.902E-04 2.934E-04 4.115E-03 1.645E-03
 ETOT  4  -165.80765293396     5.055E-07 2.759E-04 5.859E-05 1.385E-03 2.602E-04
 ETOT  5  -165.80765297765    -4.369E-08 1.780E-04 2.012E-05 8.572E-05 2.227E-04
 ETOT  6  -165.80765303095    -5.330E-08 1.023E-04 3.933E-06 1.676E-04 1.320E-04
 ETOT  7  -165.80765305075    -1.980E-08 5.959E-05 1.382E-06 1.643E-05 1.247E-04
 ETOT  8  -165.80765307367    -2.292E-08 3.381E-05 1.015E-07 4.216E-05 1.258E-04
 ETOT  9  -165.80765307673    -3.067E-09 1.924E-05 2.515E-08 4.821E-06 1.267E-04
 ETOT 10  -165.80765307910    -2.365E-09 1.077E-05 7.064E-09 4.731E-06 1.273E-04
 ETOT 11  -165.80765307989    -7.909E-10 6.018E-06 1.099E-09 7.359E-07 1.266E-04
 ETOT 12  -165.80765308045    -5.572E-10 3.352E-06 2.460E-10 6.201E-07 1.265E-04
 ETOT 13  -165.80765308075    -3.018E-10 1.870E-06 4.674E-11 2.387E-07 1.267E-04
 ETOT 14  -165.80765308095    -2.021E-10 1.042E-06 5.580E-12 6.369E-08 1.267E-04
 ETOT 15  -165.80765308116    -2.079E-10 5.861E-07 2.536E-12 4.362E-08 1.267E-04
 ETOT 16  -165.80765308129    -1.311E-10 3.377E-07 6.303E-13 7.850E-09 1.267E-04
 ETOT 17  -165.80765308139    -1.009E-10 3.136E-07 2.374E-13 6.963E-09 1.267E-04

 At SCF step   17, forces are converged : 
  for the second time, max diff in force=  6.963E-09 < toldff=  1.000E-08

 Cartesian components of stress tensor (hartree/bohr^3)
  sigma(1 1)= -7.94694035E-05  sigma(3 2)= -2.48385356E-08
  sigma(2 2)= -7.92481080E-05  sigma(3 1)=  1.08205780E-13
  sigma(3 3)= -7.92481080E-05  sigma(2 1)=  1.08206659E-13


--- !ResultsGS
iteration_state: {dtset: 1, itime: 3, icycle: 1, }
comment   : Summary of ground state results
lattice_vectors:
- [  0.0000000,  10.3245558,  10.3245558, ]
- [ 10.4695890,  -0.0884032,  10.4129589, ]
- [ 10.4695890,  10.4129589,  -0.0884032, ]
lattice_lengths: [  14.60113,   14.76651,   14.76651, ]
lattice_angles: [ 60.380,  60.370,  60.370, ] # degrees, (23, 13, 12)
lattice_volume:   2.2702654E+03
convergence: {deltae: -1.009E-10, res2:  2.374E-13, residm:  3.136E-07, diffor:  6.963E-09, }
etotal    :  -1.65807653E+02
entropy   :   0.00000000E+00
fermie    :  -4.56703810E-02
cartesian_stress_tensor: # hartree/bohr^3
- [ -7.94694035E-05,   1.08206659E-13,   1.08205780E-13, ]
- [  1.08206659E-13,  -7.92481080E-05,  -2.48385356E-08, ]
- [  1.08205780E-13,  -2.48385356E-08,  -7.92481080E-05, ]
pressure_GPa:   2.3337E+00
xred      :
- [  2.4593E-01,   2.5110E-01,   2.5110E-01, Cs]
- [  7.4812E-01,   7.4890E-01,   7.4890E-01, Cs]
- [  2.4973E-01,   2.5100E-01,   7.4900E-01,  I]
- [  7.6192E-01,   7.7453E-01,   2.2547E-01, Cl]
- [  2.5865E-01,   7.4258E-01,   7.4258E-01,  I]
- [  7.6192E-01,   2.2547E-01,   7.7453E-01, Cl]
- [  2.4973E-01,   7.4900E-01,   2.5100E-01,  I]
- [  7.4381E-01,   2.5742E-01,   2.5742E-01,  I]
- [ -1.9810E-02,  -4.7555E-19,   4.7555E-19, Zr]
cartesian_forces: # hartree/bohr
- [  1.52318164E-05,  -2.31630258E-06,  -2.31630258E-06, ]
- [ -1.52318164E-05,  -2.31630258E-06,  -2.31630258E-06, ]
- [  7.67641861E-16,   1.68409549E-05,   2.82908256E-05, ]
- [  6.74994682E-16,   1.18065746E-05,   2.78782783E-05, ]
- [ -4.77026349E-05,   2.32408588E-05,   2.32408588E-05, ]
- [  6.74993296E-16,   2.78782783E-05,   1.18065746E-05, ]
- [  7.67637282E-16,   2.82908256E-05,   1.68409549E-05, ]
- [  4.77026349E-05,   2.32408588E-05,   2.32408588E-05, ]
- [ -4.30887307E-15,  -1.26665746E-04,  -1.26665746E-04, ]
force_length_stats: {min:   1.55800753E-05, max:   1.79132416E-04, mean:   5.02833268E-05, }
...

 Integrated electronic density in atomic spheres:
 ------------------------------------------------
 Atom  Sphere_radius  Integrated_density
    1        2.20660          5.36665093
    2        2.20660          5.36665093
    3        2.30022          4.02870534
    4        1.80316          4.35983397
    5        2.30022          4.02882288
    6        1.80316          4.35983397
    7        2.30022          4.02870534
    8        2.30022          4.02882288
    9        2.21000          8.84107662

 PAW TEST:
 ==== Compensation charge inside spheres ============
 The following values must be close to each other ...
 Compensation charge over spherical meshes =     -5.497323345397866
 Compensation charge over fine fft grid    =     -5.497319392086368

 ==== Results concerning PAW augmentation regions ====

 Total pseudopotential strength Dij (hartree):
 Atom #  1
   0.43020  -0.14251  -0.00000  -0.00000   0.00000   0.00000   0.00000  -0.00001  -0.00000  -0.00000  -0.00000  -0.00000 ...
  -0.14251   0.04287   0.00000   0.00000  -0.00000  -0.00000  -0.00000   0.00000   0.00000   0.00000   0.00000   0.00000 ...
  -0.00000   0.00000  -0.09234  -0.00000  -0.00000  -0.16731   0.00000   0.00000   0.00000  -0.00000   0.00000  -0.00000 ...
  -0.00000   0.00000  -0.00000  -0.09234  -0.00000   0.00000  -0.16731   0.00000  -0.00000  -0.00000   0.00000   0.00000 ...
   0.00000  -0.00000  -0.00000  -0.00000  -0.09234   0.00000   0.00000  -0.16731  -0.00000  -0.00000  -0.00000  -0.00000 ...
   0.00000  -0.00000  -0.16731   0.00000   0.00000   0.40098  -0.00000  -0.00001  -0.00000   0.00000   0.00000   0.00000 ...
   0.00000  -0.00000   0.00000  -0.16731   0.00000  -0.00000   0.40098  -0.00001   0.00000   0.00000   0.00000  -0.00000 ...
  -0.00001   0.00000   0.00000   0.00000  -0.16731  -0.00001  -0.00001   0.40098  -0.00000   0.00000   0.00000  -0.00000 ...
  -0.00000   0.00000   0.00000  -0.00000  -0.00000  -0.00000   0.00000  -0.00000   0.00540  -0.00000   0.00000   0.00000 ...
[...]
                       5.4957466825E+00  2.7030368444E+00  5.4395217316E+00
                       2.8440721350E+00  5.4322959508E+00  5.4322959508E+00
                       3.3934284940E-16 -1.1218861634E-01 -1.1218861634E-01
           xangst10    2.7601608308E+00  2.6937564668E+00  2.6937564668E+00
                       8.2205691513E+00  8.1095234194E+00  8.1095234194E+00
                       5.4903649911E+00  5.4341790380E+00  2.7018335720E+00
                       5.4903649911E+00  5.3244506522E+00  8.3199724813E+00
                       8.1377624269E+00  5.4275489146E+00  5.4275489146E+00
                       5.4903649911E+00  8.3199724813E+00  5.3244506522E+00
                       5.4903649911E+00  2.7018335720E+00  5.4341790380E+00
                       2.8429675553E+00  5.4275489147E+00  5.4275489147E+00
                       1.4376764303E-16 -1.1267783804E-01 -1.1267783804E-01
            xcart1     5.2589846287E+00  5.1316923323E+00  5.1316923323E+00
                       1.5680512810E+01  1.5456423249E+01  1.5456423249E+01
                       1.0469748719E+01  1.0356024878E+01  5.1256817798E+00
                       1.0469748719E+01  1.0146729599E+01  1.5911027772E+01
                       1.5549049795E+01  1.0338182633E+01  1.0338182633E+01
                       1.0469748719E+01  1.5911027772E+01  1.0146729599E+01
                       1.0469748719E+01  5.1256817798E+00  1.0356024878E+01
                       5.3904476440E+00  1.0338182633E+01  1.0338182633E+01
                       9.7491719528E-16 -2.0609754307E-01 -2.0609754307E-01
            xcart2     5.2536541601E+00  5.1270106143E+00  5.1270106143E+00
                       1.5665419597E+01  1.5441713980E+01  1.5441713980E+01
                       1.0459536878E+01  1.0346221920E+01  5.1237113746E+00
                       1.0459536878E+01  1.0137786873E+01  1.5889876379E+01
                       1.5530524747E+01  1.0329070800E+01  1.0329070800E+01
                       1.0459536878E+01  1.5889876379E+01  1.0137786873E+01
                       1.0459536878E+01  5.1237113746E+00  1.0346221920E+01
                       5.3885490098E+00  1.0329070800E+01  1.0329070800E+01
                      -5.1243963073E-16 -2.0683581605E-01 -2.0683581605E-01
            xcart3     5.2544594592E+00  5.1213433317E+00  5.1213433317E+00
                       1.5647644388E+01  1.5424634743E+01  1.5424634743E+01
                       1.0451051924E+01  1.0337373507E+01  5.1209775661E+00
                       1.0451051924E+01  1.0127803219E+01  1.5866620120E+01
                       1.5515196062E+01  1.0317603400E+01  1.0317603400E+01
                       1.0451051924E+01  1.5866620120E+01  1.0127803219E+01
                       1.0451051924E+01  5.1209775661E+00  1.0337373507E+01
                       5.3869077854E+00  1.0317603400E+01  1.0317603400E+01
                       5.6184034529E-17 -2.0762799829E-01 -2.0762799829E-01
            xcart4     5.2495147096E+00  5.1169238204E+00  5.1169238204E+00
                       1.5631676347E+01  1.5410617633E+01  1.5410617633E+01
                       1.0440595528E+01  1.0327878109E+01  5.1191247038E+00
                       1.0440595528E+01  1.0119988063E+01  1.5845932446E+01
                       1.5496240511E+01  1.0308808794E+01  1.0308808794E+01
                       1.0440595528E+01  1.5845932446E+01  1.0119988063E+01
                       1.0440595528E+01  5.1191247038E+00  1.0327878109E+01
                       5.3849505458E+00  1.0308808794E+01  1.0308808794E+01
                       1.4138049174E-16 -2.0853186396E-01 -2.0853186396E-01
            xcart5     5.2442866443E+00  5.1125703463E+00  5.1125703463E+00
                       1.5615355043E+01  1.5396575625E+01  1.5396575625E+01
                       1.0429820844E+01  1.0318443407E+01  5.1171047328E+00
                       1.0429820844E+01  1.0111383232E+01  1.5825285228E+01
                       1.5476742661E+01  1.0300030415E+01  1.0300030415E+01
                       1.0429820844E+01  1.5825285228E+01  1.0111383232E+01
                       1.0429820844E+01  5.1171047328E+00  1.0318443407E+01
                       5.3828990269E+00  1.0300030415E+01  1.0300030415E+01
                       1.9480332228E-34 -2.0938117347E-01 -2.0938117347E-01
            xcart6     5.2383221651E+00  5.1083712871E+00  5.1083712871E+00
                       1.5600369852E+01  1.5382963151E+01  1.5382963151E+01
                       1.0419346009E+01  1.0308725353E+01  5.1154127275E+00
                       1.0419346009E+01  1.0103740944E+01  1.5804717457E+01
                       1.5457815387E+01  1.0291549189E+01  1.0291549189E+01
                       1.0419346009E+01  1.5804717457E+01  1.0103740944E+01
                       1.0419346009E+01  5.1154127275E+00  1.0308725353E+01
                       5.3808766300E+00  1.0291549189E+01  1.0291549189E+01
                       7.8301410415E-35 -2.1029438857E-01 -2.1029438857E-01
            xcart7     5.2304915747E+00  5.1045080587E+00  5.1045080587E+00
                       1.5585017905E+01  1.5370318291E+01  1.5370318291E+01
                       1.0407754740E+01  1.0298275670E+01  5.1138215735E+00
                       1.0407754740E+01  1.0096321212E+01  1.5785567456E+01
                       1.5436681532E+01  1.0284367456E+01  1.0284367456E+01
                       1.0407754740E+01  1.5785567456E+01  1.0096321212E+01
                       1.0407754740E+01  5.1138215735E+00  1.0298275670E+01
                       5.3788279473E+00  1.0284367456E+01  1.0284367456E+01
                      -2.7363746691E-34 -2.1106531287E-01 -2.1106531287E-01
            xcart8     5.2265978135E+00  5.0996884568E+00  5.0996884568E+00
                       1.5568603614E+01  1.5355163211E+01  1.5355163211E+01
                       1.0397600714E+01  1.0289211142E+01  5.1114942642E+00
                       1.0397600714E+01  1.0086708722E+01  1.5764200397E+01
                       1.5418442472E+01  1.0274574905E+01  1.0274574905E+01
                       1.0397600714E+01  1.5764200397E+01  1.0086708722E+01
                       1.0397600714E+01  5.1114942642E+00  1.0289211142E+01
                       5.3767589555E+00  1.0274574905E+01  1.0274574905E+01
                      -1.5489885505E-35 -2.1181797156E-01 -2.1181797156E-01
            xcart9     5.2217393328E+00  5.0948180846E+00  5.0948180846E+00
                       1.5549172918E+01  1.5339219687E+01  1.5339219687E+01
                       1.0385456126E+01  1.0279206367E+01  5.1079993630E+00
                       1.0385456126E+01  1.0071044733E+01  1.5743827104E+01
                       1.5396394814E+01  1.0265551620E+01  1.0265551620E+01
                       1.0385456126E+01  1.5743827104E+01  1.0071044733E+01
                       1.0385456126E+01  5.1079993630E+00  1.0279206367E+01
                       5.3745174374E+00  1.0265551620E+01  1.0265551620E+01
                       6.4126505053E-16 -2.1200576011E-01 -2.1200576011E-01
            xcart10    5.2159480530E+00  5.0904619909E+00  5.0904619909E+00
                       1.5534624352E+01  1.5324778331E+01  1.5324778331E+01
                       1.0375286203E+01  1.0269110139E+01  5.1057255078E+00
                       1.0375286203E+01  1.0061753541E+01  1.5722469423E+01
                       1.5378142321E+01  1.0256581021E+01  1.0256581021E+01
                       1.0375286203E+01  1.5722469423E+01  1.0061753541E+01
                       1.0375286203E+01  5.1057255078E+00  1.0269110139E+01
                       5.3724300841E+00  1.0256581022E+01  1.0256581022E+01
                       2.7168147210E-16 -2.1293025514E-01 -2.1293025514E-01
             xred1     2.4587773438E-01  2.5115142539E-01  2.5115142539E-01
                       7.4818058516E-01  7.4884857461E-01  7.4884857461E-01
                       2.4973898997E-01  2.5096032434E-01  7.4903967566E-01
                       7.6190975733E-01  7.7446362894E-01  2.2553637106E-01
                       2.5873252064E-01  7.4257034297E-01  7.4257034297E-01
                       7.6190975733E-01  2.2553637106E-01  7.7446362894E-01
                       2.4973898997E-01  7.4903967566E-01  2.5096032434E-01
                       7.4387320658E-01  2.5742965703E-01  2.5742965703E-01
                      -1.9961541345E-02  4.6083368183E-17  4.7034167053E-17
             xred2     2.4591664886E-01  2.5114181541E-01  2.5114181541E-01
                       7.4820027968E-01  7.4885818459E-01  7.4885818459E-01
                       2.4989714906E-01  2.5107029298E-01  7.4892970702E-01
                       7.6167773951E-01  7.7417196063E-01  2.2582803937E-01
                       2.5898313765E-01  7.4240977051E-01  7.4240977051E-01
                       7.6167773951E-01  2.2582803937E-01  7.7417196063E-01
                       2.4989714906E-01  7.4892970702E-01  2.5107029298E-01
                       7.4380267867E-01  2.5759022949E-01  2.5759022949E-01
                      -2.0052521989E-02 -2.4344161277E-17 -2.4648412360E-17
             xred3     2.4567472325E-01  2.5138423853E-01  2.5138423853E-01
                       7.4844320030E-01  7.4861576147E-01  7.4861576147E-01
                       2.5016567310E-01  2.5109083383E-01  7.4890916617E-01
                       7.6146210479E-01  7.7383736701E-01  2.2616263299E-01
                       2.5910991077E-01  7.4227915885E-01  7.4227915885E-01
                       7.6146210479E-01  2.2616263299E-01  7.7383736701E-01
                       2.5016567310E-01  7.4890916617E-01  2.5109083383E-01
                       7.4366822847E-01  2.5772084115E-01  2.5772084115E-01
                      -2.0151618546E-02  2.0239547346E-18  3.3519667458E-18
             xred4     2.4569386710E-01  2.5139919918E-01  2.5139919918E-01
                       7.4849226545E-01  7.4860080082E-01  7.4860080082E-01
                       2.5031388608E-01  2.5118753873E-01  7.4881246127E-01
                       7.6125378230E-01  7.7351771227E-01  2.2648228773E-01
                       2.5935359276E-01  7.4211478018E-01  7.4211478018E-01
                       7.6125378230E-01  2.2648228773E-01  7.7351771227E-01
                       2.5031388608E-01  7.4881246127E-01  2.5118753873E-01
                       7.4358315312E-01  2.5788521982E-01  2.5788521982E-01
                      -2.0258215152E-02  6.4498035202E-18  7.0916167326E-18
             xred5     2.4572977126E-01  2.5140828030E-01  2.5140828030E-01
                       7.4854633185E-01  7.4859171970E-01  7.4859171970E-01
                       2.5046383785E-01  2.5128335095E-01  7.4871664905E-01
                       7.6101979520E-01  7.7322630704E-01  2.2677369296E-01
                       2.5961154168E-01  7.4194671665E-01  7.4194671665E-01
                       7.6101979520E-01  2.2677369296E-01  7.7322630704E-01
                       2.5046383785E-01  7.4871664905E-01  2.5128335095E-01
                       7.4350497498E-01  2.5805328335E-01  2.5805328335E-01
                      -2.0359885842E-02 -9.2475040568E-20  9.2475040568E-20
             xred6     2.4581003151E-01  2.5137480609E-01  2.5137480609E-01
                       7.4855964369E-01  7.4862519391E-01  7.4862519391E-01
                       2.5059614463E-01  2.5139481538E-01  7.4860518462E-01
                       7.6080231433E-01  7.7290718289E-01  2.2709281711E-01
                       2.5986607435E-01  7.4178433917E-01  7.4178433917E-01
                       7.6080231433E-01  2.2709281711E-01  7.7290718289E-01
                       2.5059614463E-01  7.4860518462E-01  2.5139481538E-01
                       7.4343475270E-01  2.5821566083E-01  2.5821566083E-01
                      -2.0467420152E-02 -3.4944624977E-19  3.4944624977E-19
             xred7     2.4595524638E-01  2.5127857571E-01  2.5127857571E-01
                       7.4851239780E-01  7.4872142429E-01  7.4872142429E-01
                       2.5065177001E-01  2.5155778230E-01  7.4844221770E-01
                       7.6058674776E-01  7.7263216679E-01  2.2736783321E-01
                       2.6021249096E-01  7.4159518159E-01  7.4159518159E-01
                       7.6058674776E-01  2.2736783321E-01  7.7263216679E-01
                       2.5065177001E-01  7.4844221770E-01  2.5155778230E-01
                       7.4340285413E-01  2.5840481841E-01  2.5840481841E-01
                      -2.0560024789E-02  4.5935491064E-19 -4.5935491064E-19
             xred8     2.4592825625E-01  2.5133672457E-01  2.5133672457E-01
                       7.4860170540E-01  7.4866327543E-01  7.4866327543E-01
                       2.5085287500E-01  2.5162263457E-01  7.4837736543E-01
                       7.6034677766E-01  7.7235178320E-01  2.2764821680E-01
                       2.6042011071E-01  7.4144232387E-01  7.4144232387E-01
                       7.6034677766E-01  2.2764821680E-01  7.7235178320E-01
                       2.5085287500E-01  7.4837736543E-01  2.5162263457E-01
                       7.4330475846E-01  2.5855767613E-01  2.5855767613E-01
                      -2.0654136122E-02  2.2277371141E-19 -2.2277371141E-19
             xred9     2.4593032970E-01  2.5139672585E-01  2.5139672585E-01
                       7.4872378139E-01  7.4860327415E-01  7.4860327415E-01
                       2.5100558955E-01  2.5174216818E-01  7.4825783182E-01
                       7.5995020694E-01  7.7233731909E-01  2.2766268091E-01
                       2.6081665713E-01  7.4124788683E-01  7.4124788683E-01
                       7.5995020694E-01  2.2766268091E-01  7.7233731909E-01
                       2.5100558955E-01  7.4825783182E-01  2.5174216818E-01
                       7.4331243080E-01  2.5875211317E-01  2.5875211317E-01
                      -2.0694791979E-02  3.0610224489E-17  3.1136225813E-17
             xred10    2.4602744700E-01  2.5136405643E-01  2.5136405643E-01
                       7.4875555986E-01  7.4863594357E-01  7.4863594357E-01
                       2.5114131399E-01  2.5185379132E-01  7.4814620868E-01
                       7.5969444891E-01  7.7204736523E-01  2.2795263477E-01
                       2.6108064391E-01  7.4109484890E-01  7.4109484890E-01
                       7.5969444891E-01  2.2795263477E-01  7.7204736523E-01
                       2.5114131399E-01  7.4814620868E-01  2.5185379132E-01
                       7.4327034170E-01  2.5890515110E-01  2.5890515110E-01
                      -2.0805518225E-02  1.2951162443E-17  1.3234281196E-17
            znucl       55.00000   53.00000   40.00000   17.00000

================================================================================


- Timing analysis has been suppressed with timopt=0



================================================================================

 Suggested references for the acknowledgment of ABINIT usage.

 The users of ABINIT have little formal obligations with respect to the ABINIT group
 (those specified in the GNU General Public License, http://www.gnu.org/copyleft/gpl.txt).
 However, it is common practice in the scientific literature,
 to acknowledge the efforts of people that have made the research possible.
 In this spirit, please find below suggested citations of work written by ABINIT developers,
 corresponding to implementations inside of ABINIT that you have used in the present run.
 Note also that it will be of great value to readers of publications presenting these results,
 to read papers enabling them to understand the theoretical formalism and details
 of the ABINIT implementation.
 For information on why they are suggested, see also https://docs.abinit.org/theory/acknowledgments.
-
- [1] Implementation of the Projector Augmented-Wave Method in the ABINIT code.
- M. Torrent, F. Jollet, F. Bottin, G. Zerah, and X. Gonze Comput. Mat. Science 42, 337, (2008).
- Comment: PAW calculations. Strong suggestion to cite this paper.
- DOI and bibtex: see https://docs.abinit.org/theory/bibliography/#torrent2008
-
- [2] Libxc: A library of exchange and correlation functionals for density functional theory.
- M.A.L. Marques, M.J.T. Oliveira, T. Burnus, Computer Physics Communications 183, 2227 (2012).
- Comment: to be cited when LibXC is used (negative value of ixc)
- Strong suggestion to cite this paper.
- DOI and bibtex: see https://docs.abinit.org/theory/bibliography/#marques2012
-
- [3] The Abinit project: Impact, environment and recent developments.
- Computer Phys. Comm. 248, 107042 (2020).
- X.Gonze, B. Amadon, G. Antonius, F.Arnardi, L.Baguet, J.-M.Beuken,
- J.Bieder, F.Bottin, J.Bouchet, E.Bousquet, N.Brouwer, F.Bruneval,
- G.Brunin, T.Cavignac, J.-B. Charraud, Wei Chen, M.Cote, S.Cottenier,
- J.Denier, G.Geneste, Ph.Ghosez, M.Giantomassi, Y.Gillet, O.Gingras,
- D.R.Hamann, G.Hautier, Xu He, N.Helbig, N.Holzwarth, Y.Jia, F.Jollet,
- W.Lafargue-Dit-Hauret, K.Lejaeghere, M.A.L.Marques, A.Martin, C.Martins,
- H.P.C. Miranda, F.Naccarato, K. Persson, G.Petretto, V.Planes, Y.Pouillon,
- S.Prokhorenko, F.Ricci, G.-M.Rignanese, A.H.Romero, M.M.Schmitt, M.Torrent,
- M.J.van Setten, B.Van Troeye, M.J.Verstraete, G.Zerah and J.W.Zwanzig
- Comment: the fifth generic paper describing the ABINIT project.
- Note that a version of this paper, that is not formatted for Computer Phys. Comm. 
- is available at https://www.abinit.org/sites/default/files/ABINIT20.pdf .
- The licence allows the authors to put it on the Web.
- DOI and bibtex: see https://docs.abinit.org/theory/bibliography/#gonze2020
-
- [4] ABINIT: Overview, and focus on selected capabilities
- J. Chem. Phys. 152, 124102 (2020).
- A. Romero, D.C. Allan, B. Amadon, G. Antonius, T. Applencourt, L.Baguet,
- J.Bieder, F.Bottin, J.Bouchet, E.Bousquet, F.Bruneval,
- G.Brunin, D.Caliste, M.Cote,
- J.Denier, C. Dreyer, Ph.Ghosez, M.Giantomassi, Y.Gillet, O.Gingras,
- D.R.Hamann, G.Hautier, F.Jollet, G. Jomard,
- A.Martin, 
- H.P.C. Miranda, F.Naccarato, G.Petretto, N.A. Pike, V.Planes,
- S.Prokhorenko, T. Rangel, F.Ricci, G.-M.Rignanese, M.Royo, M.Stengel, M.Torrent,
- M.J.van Setten, B.Van Troeye, M.J.Verstraete, J.Wiktor, J.W.Zwanziger, and X.Gonze.
- Comment: a global overview of ABINIT, with focus on selected capabilities .
- Note that a version of this paper, that is not formatted for J. Chem. Phys 
- is available at https://www.abinit.org/sites/default/files/ABINIT20_JPC.pdf .
- The licence allows the authors to put it on the Web.
- DOI and bibtex: see https://docs.abinit.org/theory/bibliography/#romero2020
-
- [5] Recent developments in the ABINIT software package.
- Computer Phys. Comm. 205, 106 (2016).
- X.Gonze, F.Jollet, F.Abreu Araujo, D.Adams, B.Amadon, T.Applencourt,
- C.Audouze, J.-M.Beuken, J.Bieder, A.Bokhanchuk, E.Bousquet, F.Bruneval
- D.Caliste, M.Cote, F.Dahm, F.Da Pieve, M.Delaveau, M.Di Gennaro,
- B.Dorado, C.Espejo, G.Geneste, L.Genovese, A.Gerossier, M.Giantomassi,
- Y.Gillet, D.R.Hamann, L.He, G.Jomard, J.Laflamme Janssen, S.Le Roux,
- A.Levitt, A.Lherbier, F.Liu, I.Lukacevic, A.Martin, C.Martins,
- M.J.T.Oliveira, S.Ponce, Y.Pouillon, T.Rangel, G.-M.Rignanese,
- A.H.Romero, B.Rousseau, O.Rubel, A.A.Shukri, M.Stankovski, M.Torrent,
- M.J.Van Setten, B.Van Troeye, M.J.Verstraete, D.Waroquier, J.Wiktor,
- B.Xu, A.Zhou, J.W.Zwanziger.
- Comment: the fourth generic paper describing the ABINIT project.
- Note that a version of this paper, that is not formatted for Computer Phys. Comm. 
- is available at https://www.abinit.org/sites/default/files/ABINIT16.pdf .
- The licence allows the authors to put it on the Web.
- DOI and bibtex: see https://docs.abinit.org/theory/bibliography/#gonze2016
-
- Proc.   0 individual time (sec): cpu=     113342.2  wall=     113538.2

================================================================================

 Calculation completed.
.Delivered   0 WARNINGs and 249 COMMENTs to log file.
+Overall time at end (sec) : cpu=     453371.2  wall=     454152.9
