
.Version 9.2.2 of ABINIT 
.(MPI version, prepared for a x86_64_linux_gnu9.3 computer) 

.Copyright (C) 1998-2020 ABINIT group . 
 ABINIT comes with ABSOLUTELY NO WARRANTY.
 It is free software, and you are welcome to redistribute it
 under certain conditions (GNU General Public License,
 see ~abinit/COPYING or http://www.gnu.org/copyleft/gpl.txt).

 ABINIT is a project of the Universite Catholique de Louvain,
 Corning Inc. and other collaborators, see ~abinit/doc/developers/contributors.txt .
 Please read https://docs.abinit.org/theory/acknowledgments for suggested
 acknowledgments of the ABINIT effort.
 For more information, see https://www.abinit.org .

.Starting date : Wed 26 Oct 2022.
- ( at 23h37 )
  
- input  file    -> Cs2TiI6.in
- output file    -> Cs2TiI6.out
- root for input  files -> Cs2TiI6i
- root for output files -> Cs2TiI6o

- inpspheads : Reading pseudopotential header in XML form from 
-   ../../../Psps_for_tests/ATOMICDATA/Cs.GGA_PBE-JTH.xml
- inpspheads : Reading pseudopotential header in XML form from 
-   ../../../Psps_for_tests/ATOMICDATA/I.GGA_PBE-JTH.xml
- inpspheads : Reading pseudopotential header in XML form from 
-   ../../../Psps_for_tests/ATOMICDATA/Hf.GGA_PBE-JTH.xml
- inpspheads : Reading pseudopotential header in XML form from 
-   ../../../Psps_for_tests/ATOMICDATA/Br.GGA_PBE-JTH.xml

 DATASET    1 : space group Fm m 2 (# 42); Bravais oF (face-center ortho.)
================================================================================
 Values of the parameters that define the memory need for DATASET  1.
     intxc =       0    ionmov =       0      iscf =      17    lmnmax =      18
     lnmax =       6     mgfft =      60  mpssoang =       3    mqgrid =    3591
     natom =       9  nloc_mem =       2    nspden =       1   nspinor =       1
    nsppol =       1      nsym =       4    n1xccc =       1    ntypat =       4
    occopt =       1   xclevel =       2
-    mband =          42        mffmem =           1         mkmem =          47
       mpw =        7995          nfft =      216000          nkpt =         280
Pmy_natom=         2
 PAW method is used; the additional fine FFT grid is defined by:
   mgfftf=        90    nfftf =    729000
================================================================================
P This job should need less than                     481.711 Mbytes of memory.
  Rough estimation (10% accuracy) of disk space for files :
_ WF disk file :   1434.652 Mbytes ; DEN or POT disk file :      5.564 Mbytes.
================================================================================


 DATASET    2 : space group Fm m 2 (# 42); Bravais oF (face-center ortho.)
================================================================================
 Values of the parameters that define the memory need for DATASET  2.
     intxc =       0    ionmov =       0      iscf =      17    lmnmax =      18
     lnmax =       6     mgfft =      60  mpssoang =       3    mqgrid =    3555
     natom =       9  nloc_mem =       2    nspden =       1   nspinor =       1
    nsppol =       1      nsym =       4    n1xccc =       1    ntypat =       4
    occopt =       1   xclevel =       2
-    mband =          42        mffmem =           1         mkmem =          47
       mpw =        7772          nfft =      216000          nkpt =         280
Pmy_natom=         2
 PAW method is used; the additional fine FFT grid is defined by:
   mgfftf=        90    nfftf =    729000
================================================================================
P This job should need less than                     474.261 Mbytes of memory.
  Rough estimation (10% accuracy) of disk space for files :
_ WF disk file :   1394.636 Mbytes ; DEN or POT disk file :      5.564 Mbytes.
================================================================================


 DATASET    3 : space group Fm m 2 (# 42); Bravais oF (face-center ortho.)
================================================================================
 Values of the parameters that define the memory need for DATASET  3.
     intxc =       0    ionmov =       0      iscf =      17    lmnmax =      18
     lnmax =       6     mgfft =      60  mpssoang =       3    mqgrid =    3518
     natom =       9  nloc_mem =       2    nspden =       1   nspinor =       1
    nsppol =       1      nsym =       4    n1xccc =       1    ntypat =       4
    occopt =       1   xclevel =       2
-    mband =          42        mffmem =           1         mkmem =          47
       mpw =        7536          nfft =      216000          nkpt =         280
Pmy_natom=         2
 PAW method is used; the additional fine FFT grid is defined by:
   mgfftf=        90    nfftf =    729000
================================================================================
P This job should need less than                     466.375 Mbytes of memory.
  Rough estimation (10% accuracy) of disk space for files :
_ WF disk file :   1352.287 Mbytes ; DEN or POT disk file :      5.564 Mbytes.
================================================================================


 DATASET    4 : space group Fm m 2 (# 42); Bravais oF (face-center ortho.)
================================================================================
 Values of the parameters that define the memory need for DATASET  4.
     intxc =       0    ionmov =       0      iscf =      17    lmnmax =      18
     lnmax =       6     mgfft =      60  mpssoang =       3    mqgrid =    3482
     natom =       9  nloc_mem =       2    nspden =       1   nspinor =       1
    nsppol =       1      nsym =       4    n1xccc =       1    ntypat =       4
    occopt =       1   xclevel =       2
-    mband =          42        mffmem =           1         mkmem =          47
       mpw =        7309          nfft =      216000          nkpt =         280
Pmy_natom=         2
 PAW method is used; the additional fine FFT grid is defined by:
   mgfftf=        90    nfftf =    729000
================================================================================
P This job should need less than                     458.799 Mbytes of memory.
  Rough estimation (10% accuracy) of disk space for files :
_ WF disk file :   1311.554 Mbytes ; DEN or POT disk file :      5.564 Mbytes.
================================================================================


 DATASET    5 : space group Fm m 2 (# 42); Bravais oF (face-center ortho.)
================================================================================
 Values of the parameters that define the memory need for DATASET  5.
     intxc =       0    ionmov =       0      iscf =      17    lmnmax =      18
     lnmax =       6     mgfft =      54  mpssoang =       3    mqgrid =    3446
     natom =       9  nloc_mem =       2    nspden =       1   nspinor =       1
    nsppol =       1      nsym =       4    n1xccc =       1    ntypat =       4
    occopt =       1   xclevel =       2
-    mband =          42        mffmem =           1         mkmem =          47
       mpw =        7071          nfft =      157464          nkpt =         280
Pmy_natom=         2
 PAW method is used; the additional fine FFT grid is defined by:
   mgfftf=        90    nfftf =    729000
================================================================================
P This job should need less than                     442.142 Mbytes of memory.
  Rough estimation (10% accuracy) of disk space for files :
_ WF disk file :   1268.846 Mbytes ; DEN or POT disk file :      5.564 Mbytes.
================================================================================


 DATASET    6 : space group Fm m 2 (# 42); Bravais oF (face-center ortho.)
================================================================================
 Values of the parameters that define the memory need for DATASET  6.
     intxc =       0    ionmov =       0      iscf =      17    lmnmax =      18
     lnmax =       6     mgfft =      54  mpssoang =       3    mqgrid =    3410
     natom =       9  nloc_mem =       2    nspden =       1   nspinor =       1
    nsppol =       1      nsym =       4    n1xccc =       1    ntypat =       4
    occopt =       1   xclevel =       2
-    mband =          42        mffmem =           1         mkmem =          47
       mpw =        6860          nfft =      157464          nkpt =         280
Pmy_natom=         2
 PAW method is used; the additional fine FFT grid is defined by:
   mgfftf=        90    nfftf =    729000
================================================================================
P This job should need less than                     435.120 Mbytes of memory.
  Rough estimation (10% accuracy) of disk space for files :
_ WF disk file :   1230.983 Mbytes ; DEN or POT disk file :      5.564 Mbytes.
================================================================================


 DATASET    7 : space group Fm m 2 (# 42); Bravais oF (face-center ortho.)
================================================================================
 Values of the parameters that define the memory need for DATASET  7.
     intxc =       0    ionmov =       0      iscf =      17    lmnmax =      18
     lnmax =       6     mgfft =      54  mpssoang =       3    mqgrid =    3373
     natom =       9  nloc_mem =       2    nspden =       1   nspinor =       1
    nsppol =       1      nsym =       4    n1xccc =       1    ntypat =       4
    occopt =       1   xclevel =       2
-    mband =          42        mffmem =           1         mkmem =          47
       mpw =        6640          nfft =      157464          nkpt =         280
Pmy_natom=         2
 PAW method is used; the additional fine FFT grid is defined by:
   mgfftf=        90    nfftf =    729000
================================================================================
P This job should need less than                     427.797 Mbytes of memory.
  Rough estimation (10% accuracy) of disk space for files :
_ WF disk file :   1191.506 Mbytes ; DEN or POT disk file :      5.564 Mbytes.
================================================================================


 DATASET    8 : space group Fm m 2 (# 42); Bravais oF (face-center ortho.)
================================================================================
 Values of the parameters that define the memory need for DATASET  8.
     intxc =       0    ionmov =       0      iscf =      17    lmnmax =      18
     lnmax =       6     mgfft =      54  mpssoang =       3    mqgrid =    3337
     natom =       9  nloc_mem =       2    nspden =       1   nspinor =       1
    nsppol =       1      nsym =       4    n1xccc =       1    ntypat =       4
    occopt =       1   xclevel =       2
-    mband =          42        mffmem =           1         mkmem =          47
       mpw =        6432          nfft =      157464          nkpt =         280
Pmy_natom=         2
 PAW method is used; the additional fine FFT grid is defined by:
   mgfftf=        90    nfftf =    729000
================================================================================
P This job should need less than                     420.888 Mbytes of memory.
  Rough estimation (10% accuracy) of disk space for files :
_ WF disk file :   1154.182 Mbytes ; DEN or POT disk file :      5.564 Mbytes.
================================================================================


 DATASET    9 : space group Fm m 2 (# 42); Bravais oF (face-center ortho.)
================================================================================
 Values of the parameters that define the memory need for DATASET  9.
     intxc =       0    ionmov =       0      iscf =      17    lmnmax =      18
     lnmax =       6     mgfft =      54  mpssoang =       3    mqgrid =    3301
     natom =       9  nloc_mem =       2    nspden =       1   nspinor =       1
    nsppol =       1      nsym =       4    n1xccc =       1    ntypat =       4
    occopt =       1   xclevel =       2
-    mband =          42        mffmem =           1         mkmem =          47
       mpw =        6214          nfft =      157464          nkpt =         280
Pmy_natom=         2
 PAW method is used; the additional fine FFT grid is defined by:
   mgfftf=        90    nfftf =    729000
================================================================================
P This job should need less than                     413.647 Mbytes of memory.
  Rough estimation (10% accuracy) of disk space for files :
_ WF disk file :   1115.063 Mbytes ; DEN or POT disk file :      5.564 Mbytes.
================================================================================


 DATASET   10 : space group Fm m 2 (# 42); Bravais oF (face-center ortho.)
================================================================================
 Values of the parameters that define the memory need for DATASET 10.
     intxc =       0    ionmov =       0      iscf =      17    lmnmax =      18
     lnmax =       6     mgfft =      54  mpssoang =       3    mqgrid =    3264
     natom =       9  nloc_mem =       2    nspden =       1   nspinor =       1
    nsppol =       1      nsym =       4    n1xccc =       1    ntypat =       4
    occopt =       1   xclevel =       2
-    mband =          42        mffmem =           1         mkmem =          47
       mpw =        6015          nfft =      157464          nkpt =         280
Pmy_natom=         2
 PAW method is used; the additional fine FFT grid is defined by:
   mgfftf=        90    nfftf =    729000
================================================================================
P This job should need less than                     407.055 Mbytes of memory.
  Rough estimation (10% accuracy) of disk space for files :
_ WF disk file :   1079.354 Mbytes ; DEN or POT disk file :      5.564 Mbytes.
================================================================================

--------------------------------------------------------------------------------
------------- Echo of variables that govern the present computation ------------
--------------------------------------------------------------------------------
-
- outvars: echo of selected default values                                      
-   iomode0 =  0 , fftalg0 =112 , wfoptalg0 = 10
-
- outvars: echo of global parameters not present in the input file              
-  max_nthreads =    0
-
 -outvars: echo values of preprocessed input variables --------
            acell1     1.5398283277E+01  1.5556389011E+01  1.5390759905E+01 Bohr
            acell2     1.5249283443E+01  1.5397457240E+01  1.5230457434E+01 Bohr
            acell3     1.5096291126E+01  1.5243627306E+01  1.5069425502E+01 Bohr
            acell4     1.4941198252E+01  1.5088135899E+01  1.4912011930E+01 Bohr
            acell5     1.4783773163E+01  1.4935320923E+01  1.4754449863E+01 Bohr
            acell6     1.4622934536E+01  1.4784857993E+01  1.4598127832E+01 Bohr
            acell7     1.4458864212E+01  1.4636297494E+01  1.4443320762E+01 Bohr
            acell8     1.4296307655E+01  1.4486298150E+01  1.4288378004E+01 Bohr
            acell9     1.4131867807E+01  1.4337547117E+01  1.4134247637E+01 Bohr
            acell10    1.3967045244E+01  1.4188492485E+01  1.3980853427E+01 Bohr
              amu      1.32905430E+02  1.26904470E+02  1.78490000E+02
                       7.99040000E+01
           diemac      1.20000000E+01
             ecut      1.60000000E+01 Hartree
-          fftalg         112
           istwfk        2    0    0    0    0    0    3    0    0    0
                         0    0    0    0    0    0    0    0    0    0
                         0    0    0    0    0    0    0    0    0    0
                         0    0    0    0    0    0    0    0    0    0
                         0    0    7    0    0    0    0    0    0    0
                       outvar_i_n : Printing only first  50 k-points.
              ixc     -101130
           jdtset        1    2    3    4    5    6    7    8    9   10
              kpt      0.00000000E+00  0.00000000E+00  0.00000000E+00
                       8.33333333E-02  0.00000000E+00  0.00000000E+00
                       1.66666667E-01  0.00000000E+00  0.00000000E+00
                       2.50000000E-01  0.00000000E+00  0.00000000E+00
                       3.33333333E-01  0.00000000E+00  0.00000000E+00
                       4.16666667E-01  0.00000000E+00  0.00000000E+00
                       5.00000000E-01  0.00000000E+00  0.00000000E+00
                       8.33333333E-02  8.33333333E-02  0.00000000E+00
                       1.66666667E-01  8.33333333E-02  0.00000000E+00
                       2.50000000E-01  8.33333333E-02  0.00000000E+00
                       3.33333333E-01  8.33333333E-02  0.00000000E+00
                       4.16666667E-01  8.33333333E-02  0.00000000E+00
                       5.00000000E-01  8.33333333E-02  0.00000000E+00
                      -4.16666667E-01  8.33333333E-02  0.00000000E+00
                      -3.33333333E-01  8.33333333E-02  0.00000000E+00
                      -2.50000000E-01  8.33333333E-02  0.00000000E+00
                      -1.66666667E-01  8.33333333E-02  0.00000000E+00
                      -8.33333333E-02  8.33333333E-02  0.00000000E+00
                       1.66666667E-01  1.66666667E-01  0.00000000E+00
                       2.50000000E-01  1.66666667E-01  0.00000000E+00
                       3.33333333E-01  1.66666667E-01  0.00000000E+00
                       4.16666667E-01  1.66666667E-01  0.00000000E+00
                       5.00000000E-01  1.66666667E-01  0.00000000E+00
                      -4.16666667E-01  1.66666667E-01  0.00000000E+00
                      -3.33333333E-01  1.66666667E-01  0.00000000E+00
                      -2.50000000E-01  1.66666667E-01  0.00000000E+00
                      -1.66666667E-01  1.66666667E-01  0.00000000E+00
                       2.50000000E-01  2.50000000E-01  0.00000000E+00
                       3.33333333E-01  2.50000000E-01  0.00000000E+00
                       4.16666667E-01  2.50000000E-01  0.00000000E+00
                       5.00000000E-01  2.50000000E-01  0.00000000E+00
                      -4.16666667E-01  2.50000000E-01  0.00000000E+00
                      -3.33333333E-01  2.50000000E-01  0.00000000E+00
                      -2.50000000E-01  2.50000000E-01  0.00000000E+00
                       3.33333333E-01  3.33333333E-01  0.00000000E+00
                       4.16666667E-01  3.33333333E-01  0.00000000E+00
                       5.00000000E-01  3.33333333E-01  0.00000000E+00
                      -4.16666667E-01  3.33333333E-01  0.00000000E+00
                      -3.33333333E-01  3.33333333E-01  0.00000000E+00
                       4.16666667E-01  4.16666667E-01  0.00000000E+00
                       5.00000000E-01  4.16666667E-01  0.00000000E+00
                      -4.16666667E-01  4.16666667E-01  0.00000000E+00
                       5.00000000E-01  5.00000000E-01  0.00000000E+00
                       8.33333333E-02  0.00000000E+00  8.33333333E-02
                       1.66666667E-01  0.00000000E+00  8.33333333E-02
                       2.50000000E-01  0.00000000E+00  8.33333333E-02
                       3.33333333E-01  0.00000000E+00  8.33333333E-02
                       4.16666667E-01  0.00000000E+00  8.33333333E-02
                       5.00000000E-01  0.00000000E+00  8.33333333E-02
                      -4.16666667E-01  0.00000000E+00  8.33333333E-02
                       outvar_i_n : Printing only first  50 k-points.
         kptrlatt       12    0    0      0   12    0      0    0   12
          kptrlen1     1.84689119E+02
          kptrlen2     1.82765489E+02
          kptrlen3     1.80833106E+02
          kptrlen4     1.78944143E+02
          kptrlen5     1.77053398E+02
          kptrlen6     1.75177534E+02
          kptrlen7     1.73319849E+02
          kptrlen8     1.71460536E+02
          kptrlen9     1.69582414E+02
          kptrlen10    1.67604543E+02
P           mkmem          47
            natom           9
            nband          42
           ndtset          10
            ngfft1         60      60      60
            ngfft2         60      60      60
            ngfft3         60      60      60
            ngfft4         60      60      60
            ngfft5         54      54      54
            ngfft6         54      54      54
            ngfft7         54      54      54
            ngfft8         54      54      54
            ngfft9         54      54      54
            ngfft10        54      54      54
          ngfftdg          90      90      90
             nkpt         280
            nstep        2500
             nsym           4
           ntypat           4
              occ      2.000000  2.000000  2.000000  2.000000  2.000000  2.000000
                       2.000000  2.000000  2.000000  2.000000  2.000000  2.000000
                       2.000000  2.000000  2.000000  2.000000  2.000000  2.000000
                       2.000000  2.000000  2.000000  2.000000  2.000000  2.000000
                       2.000000  2.000000  2.000000  2.000000  2.000000  2.000000
                       2.000000  2.000000  2.000000  2.000000  2.000000  2.000000
                       0.000000  0.000000  0.000000  0.000000  0.000000  0.000000
        pawecutdg      4.00000000E+01 Hartree
            prtwf           0
            rprim1     0.0000000000E+00  6.9942195435E-01  7.1470898257E-01
                       7.0676828787E-01  0.0000000000E+00  7.0744511255E-01
                       7.1437424105E-01  6.9976384854E-01  0.0000000000E+00
            rprim2     0.0000000000E+00  6.9928694589E-01  7.1484107835E-01
                       7.0625055293E-01  0.0000000000E+00  7.0796197390E-01
                       7.1399449011E-01  7.0015131800E-01  0.0000000000E+00
            rprim3     0.0000000000E+00  6.9886663921E-01  7.1525199797E-01
                       7.0587263072E-01  0.0000000000E+00  7.0833878138E-01
                       7.1403248300E-01  7.0011257182E-01  0.0000000000E+00
            rprim4     0.0000000000E+00  6.9868858782E-01  7.1542592715E-01
                       7.0575230808E-01  0.0000000000E+00  7.0845866474E-01
                       7.1408786320E-01  7.0005608606E-01  0.0000000000E+00
            rprim5     0.0000000000E+00  6.9836594606E-01  7.1574087866E-01
                       7.0573259586E-01  0.0000000000E+00  7.0847830111E-01
                       7.1438399280E-01  6.9975389304E-01  0.0000000000E+00
            rprim6     0.0000000000E+00  6.9797596861E-01  7.1612118196E-01
                       7.0593338073E-01  0.0000000000E+00  7.0827823768E-01
                       7.1496324097E-01  6.9916204421E-01  0.0000000000E+00
            rprim7     0.0000000000E+00  6.9755191781E-01  7.1653424339E-01
                       7.0636496122E-01  0.0000000000E+00  7.0784782373E-01
                       7.1580268016E-01  6.9830260137E-01  0.0000000000E+00
            rprim8     0.0000000000E+00  6.9718555947E-01  7.1689071389E-01
                       7.0672479733E-01  0.0000000000E+00  7.0748855881E-01
                       7.1651422729E-01  6.9757247802E-01  0.0000000000E+00
            rprim9     0.0000000000E+00  6.9678419304E-01  7.1728082947E-01
                       7.0722246746E-01  0.0000000000E+00  7.0699107598E-01
                       7.1739477822E-01  6.9666687318E-01  0.0000000000E+00
            rprim10    0.0000000000E+00  6.9642547560E-01  7.1762912213E-01
                       7.0778420457E-01  0.0000000000E+00  7.0642870819E-01
                       7.1829598390E-01  6.9573765136E-01  0.0000000000E+00
          spgroup          42
           symrel1     1  0  0   0  1  0   0  0  1       0  1 -1   1  0 -1   0  0 -1
                       1  0  0   1  0 -1   1 -1  0       0  1 -1   0  1  0  -1  1  0
           symrel2     1  0  0   0  1  0   0  0  1       0  1 -1   1  0 -1   0  0 -1
                       1  0  0   1  0 -1   1 -1  0       0  1 -1   0  1  0  -1  1  0
           symrel3     1  0  0   0  1  0   0  0  1       0  1 -1   1  0 -1   0  0 -1
                       1  0  0   1  0 -1   1 -1  0       0  1 -1   0  1  0  -1  1  0
           symrel4     1  0  0   0  1  0   0  0  1       0  1 -1   1  0 -1   0  0 -1
                       1  0  0   1  0 -1   1 -1  0       0  1 -1   0  1  0  -1  1  0
           symrel5     1  0  0   0  1  0   0  0  1       0  1 -1   1  0 -1   0  0 -1
                       1  0  0   1  0 -1   1 -1  0       0  1 -1   0  1  0  -1  1  0
           symrel6     1  0  0   0  1  0   0  0  1       0  1 -1   1  0 -1   0  0 -1
                       1  0  0   1  0 -1   1 -1  0       0  1 -1   0  1  0  -1  1  0
           symrel7     1  0  0   0  1  0   0  0  1       0  1 -1   1  0 -1   0  0 -1
                       1  0  0   1  0 -1   1 -1  0       0  1 -1   0  1  0  -1  1  0
           symrel8     1  0  0   0  1  0   0  0  1       0  1 -1   1  0 -1   0  0 -1
                       1  0  0   1  0 -1   1 -1  0       0  1 -1   0  1  0  -1  1  0
           symrel9     1  0  0   0  1  0   0  0  1       1  0  0   1  0 -1   1 -1  0
                       0  1 -1   1  0 -1   0  0 -1       0  1 -1   0  1  0  -1  1  0
           symrel10    1  0  0   0  1  0   0  0  1       1  0  0   1  0 -1   1 -1  0
                       0  1 -1   1  0 -1   0  0 -1       0  1 -1   0  1  0  -1  1  0
           toldfe      1.00000000E-08 Hartree
            typat      1  1  4  4  2  4  2  2  3
           useylm           1
              wtk        0.00058    0.00463    0.00463    0.00463    0.00463    0.00463
                         0.00231    0.00116    0.00463    0.00463    0.00463    0.00463
                         0.00463    0.00463    0.00463    0.00463    0.00463    0.00231
                         0.00116    0.00463    0.00463    0.00463    0.00463    0.00463
                         0.00463    0.00463    0.00231    0.00116    0.00463    0.00463
                         0.00463    0.00463    0.00463    0.00231    0.00116    0.00463
                         0.00463    0.00463    0.00231    0.00116    0.00463    0.00231
                         0.00058    0.00116    0.00463    0.00463    0.00463    0.00463
                         0.00463    0.00463
                       outvars : Printing only first  50 k-points.
           xangst1     2.9090888450E+00  2.8495921170E+00  2.9225831564E+00
                       8.7272665350E+00  8.5487763510E+00  8.7463325257E+00
                       5.8181776899E+00  8.7905453070E+00  5.8516619922E+00
                       5.8181776899E+00  5.6991842340E+00  2.6697744195E+00
                       5.8181776900E+00  5.6991842340E+00  8.8236033541E+00
                       5.8181776900E+00  2.6078231610E+00  5.8516619924E+00
                       8.7592602466E+00  5.6991842340E+00  5.8313432588E+00
                       2.8770951333E+00  5.6991842340E+00  5.8313432587E+00
                       1.1968107907E-12  4.3818578835E-13  6.1690996331E-02
           xangst2     2.8772589055E+00  2.8214736147E+00  2.8959665604E+00
                       8.6317767165E+00  8.4644208442E+00  8.6644290010E+00
                       5.7545178110E+00  8.6795693684E+00  5.7958291022E+00
                       5.7545178110E+00  5.6429472295E+00  2.6690042325E+00
                       5.7545178110E+00  5.6429472294E+00  8.7192904687E+00
                       5.7545178110E+00  2.6063250905E+00  5.7958291023E+00
                       8.6376320095E+00  5.6429472295E+00  5.7728212025E+00
                       2.8714036125E+00  5.6429472294E+00  5.7728212025E+00
                      -7.4966050566E-13 -8.2531570532E-13  6.1708652408E-02
           xangst3     2.8469890745E+00  2.7914876289E+00  2.8687642343E+00
                       8.5409672236E+00  8.3744628867E+00  8.5826357853E+00
                       5.6939781491E+00  8.5616435148E+00  5.7402922298E+00
                       5.6939781491E+00  5.5829752578E+00  2.6683451314E+00
                       5.6939781490E+00  5.5829752578E+00  8.6177380773E+00
                       5.6939781490E+00  2.6043070008E+00  5.7402922298E+00
                       8.5230033662E+00  5.5829752578E+00  5.7151780666E+00
                       2.8649529320E+00  5.5829752578E+00  5.7151780667E+00
                      -1.0865325799E-12 -8.4500857512E-13  6.2548586468E-02
           xangst4     2.8174682431E+00  2.7621051869E+00  2.8385502371E+00
                       8.4524047294E+00  8.2863155608E+00  8.4950950804E+00
                       5.6349364862E+00  8.4467480975E+00  5.6824318467E+00
                       5.6349364862E+00  5.5242103738E+00  2.6680699724E+00
                       5.6349364863E+00  5.5242103738E+00  8.5124655634E+00
                       5.6349364863E+00  2.6016726502E+00  5.6824318468E+00
                       8.4124735899E+00  5.5242103738E+00  5.6545007662E+00
                       2.8573993826E+00  5.5242103738E+00  5.6545007661E+00
                       7.1400626162E-13  9.8385178380E-14  6.4312667721E-02
           xangst5     2.7888545915E+00  2.7317407405E+00  2.8088279988E+00
                       8.3665637746E+00  8.1952222216E+00  8.4082376750E+00
                       5.5777091830E+00  8.3286925234E+00  5.6240896907E+00
                       5.5777091830E+00  5.4634814811E+00  2.6671751401E+00
                       5.5777091831E+00  5.4634814811E+00  8.4086048102E+00
                       5.5777091831E+00  2.5982704387E+00  5.6240896908E+00
                       8.3065341811E+00  5.4634814811E+00  5.5940593205E+00
                       2.8488841850E+00  5.4634814811E+00  5.5940593204E+00
                       9.1753109396E-13  5.3714188675E-14  6.6133762922E-02
           xangst6     2.7615442802E+00  2.7005121851E+00  2.7794158824E+00
                       8.2846328405E+00  8.1015365553E+00  8.3208501577E+00
                       5.5230885604E+00  8.2079881155E+00  5.5638622651E+00
                       5.5230885604E+00  5.4010243702E+00  2.6653425391E+00
                       5.5230885603E+00  5.4010243702E+00  8.3040887372E+00
                       5.5230885603E+00  2.5940606249E+00  5.5638622651E+00
                       8.2067384715E+00  5.4010243702E+00  5.5332073294E+00
                       2.8394386492E+00  5.4010243702E+00  5.5332073294E+00
                      -8.0616990168E-13  8.1395026222E-14  6.7637696514E-02
           xangst7     2.7354672013E+00  2.6685899837E+00  2.7487366419E+00
                       8.2064016038E+00  8.0057699512E+00  8.2311561037E+00
                       5.4709344026E+00  8.0854763885E+00  5.5019502658E+00
                       5.4709344026E+00  5.3371799675E+00  2.6631052091E+00
                       5.4709344025E+00  5.3371799675E+00  8.1988532146E+00
                       5.4709344025E+00  2.5888835465E+00  5.5019502659E+00
                       8.1132154145E+00  5.3371799675E+00  5.4719655738E+00
                       2.8286533906E+00  5.3371799675E+00  5.4719655738E+00
                      -3.2442097346E-13 -3.0583200889E-13  6.9672846140E-02
           xangst8     2.7088121253E+00  2.6372020468E+00  2.7166723836E+00
                       8.1264363758E+00  7.9116061403E+00  8.1401514912E+00
                       5.4176242506E+00  7.9661597941E+00  5.4402022099E+00
                       5.4176242506E+00  5.2744040936E+00  2.6610011946E+00
                       5.4176242505E+00  5.2744040935E+00  8.0960118972E+00
                       5.4176242505E+00  2.5826483930E+00  5.4402022098E+00
                       8.0186095162E+00  5.2744040936E+00  5.4102096305E+00
                       2.8166389849E+00  5.2744040935E+00  5.4102096305E+00
                      -2.2945992227E-12 -1.1791687815E-12  7.3172212952E-02
           xangst9     2.6828849093E+00  2.6053675013E+00  2.6857204722E+00
                       8.0486547278E+00  7.8161025040E+00  8.0497346997E+00
                       5.3657698185E+00  7.8462111745E+00  5.3765513486E+00
                       5.3657698185E+00  5.2107350026E+00  2.6572101638E+00
                       5.3657698186E+00  5.2107350026E+00  7.9928081577E+00
                       5.3657698186E+00  2.5752588308E+00  5.3765513487E+00
                       7.9282180151E+00  5.2107350026E+00  5.3487115754E+00
                       2.8033216220E+00  5.2107350026E+00  5.3487115753E+00
                       2.0896478256E-12  1.0460142639E-13  7.6114478435E-02
           xangst10    2.6571021835E+00  2.5736549751E+00  2.6540832441E+00
                       7.9713065505E+00  7.7209649254E+00  7.9581102366E+00
                       5.3142043671E+00  7.7279683308E+00  5.3124441885E+00
                       5.3142043671E+00  5.1473099503E+00  2.6525382161E+00
                       5.3142043669E+00  5.1473099502E+00  7.8899454975E+00
                       5.3142043669E+00  2.5666515697E+00  5.3124441886E+00
                       7.8397535471E+00  5.1473099503E+00  5.2865446546E+00
                       2.7886551869E+00  5.1473099502E+00  5.2865446546E+00
                      -2.2444160534E-12 -2.1033756897E-12  7.9561059371E-02
            xcart1     5.4973812133E+00  5.3849486916E+00  5.5228817662E+00
                       1.6492143640E+01  1.6154846075E+01  1.6528173141E+01
                       1.0994762426E+01  1.6611723189E+01  1.1058038588E+01
                       1.0994762426E+01  1.0769897383E+01  5.0451424894E+00
                       1.0994762427E+01  1.0769897383E+01  1.6674193844E+01
                       1.0994762427E+01  4.9280715773E+00  1.1058038588E+01
                       1.6552602993E+01  1.0769897383E+01  1.1019641746E+01
                       5.4369218603E+00  1.0769897383E+01  1.1019641746E+01
                       2.2616446274E-12  8.2805113530E-13  1.1657908793E-01
            xcart2     5.4372313448E+00  5.3318124230E+00  5.4725836892E+00
                       1.6311694034E+01  1.5995437269E+01  1.6373397910E+01
                       1.0874462690E+01  1.6402009058E+01  1.0952529716E+01
                       1.0874462690E+01  1.0663624846E+01  5.0436870470E+00
                       1.0874462690E+01  1.0663624846E+01  1.6477071059E+01
                       1.0874462690E+01  4.9252406344E+00  1.0952529716E+01
                       1.6322758935E+01  1.0663624846E+01  1.0909051087E+01
                       5.4261664446E+00  1.0663624846E+01  1.0909051087E+01
                      -1.4166530483E-12 -1.5596206562E-12  1.1661245308E-01
            xcart3     5.3800296542E+00  5.2751471220E+00  5.4211787427E+00
                       1.6140088963E+01  1.5825441366E+01  1.6218831132E+01
                       1.0760059308E+01  1.6179161490E+01  1.0847580237E+01
                       1.0760059308E+01  1.0550294244E+01  5.0424415264E+00
                       1.0760059308E+01  1.0550294244E+01  1.6285164851E+01
                       1.0760059308E+01  4.9214269974E+00  1.0847580237E+01
                       1.6106142192E+01  1.0550294244E+01  1.0800121347E+01
                       5.4139764250E+00  1.0550294244E+01  1.0800121347E+01
                      -2.0532490104E-12 -1.5968347869E-12  1.1819969842E-01
            xcart4     5.3242433676E+00  5.2196223535E+00  5.3640825625E+00
                       1.5972730103E+01  1.5658867061E+01  1.6053403175E+01
                       1.0648486735E+01  1.5962040618E+01  1.0738239959E+01
                       1.0648486735E+01  1.0439244707E+01  5.0419215511E+00
                       1.0648486735E+01  1.0439244707E+01  1.6086228630E+01
                       1.0648486735E+01  4.9164487963E+00  1.0738239959E+01
                       1.5897271185E+01  1.0439244707E+01  1.0685457866E+01
                       5.3997022854E+00  1.0439244707E+01  1.0685457866E+01
                       1.3492762916E-12  1.8592104267E-13  1.2153332887E-01
            xcart5     5.2701714024E+00  5.1622418657E+00  5.3079156722E+00
                       1.5810514207E+01  1.5486725597E+01  1.5889266466E+01
                       1.0540342805E+01  1.5738947914E+01  1.0627989262E+01
                       1.0540342805E+01  1.0324483731E+01  5.0402305632E+00
                       1.0540342805E+01  1.0324483731E+01  1.5889960251E+01
                       1.0540342805E+01  4.9100195484E+00  1.0627989262E+01
                       1.5697074716E+01  1.0324483731E+01  1.0571240087E+01
                       5.3836108940E+00  1.0324483731E+01  1.0571240087E+01
                       1.7338824860E-12  1.0150510605E-13  1.2497470006E-01
            xcart6     5.2185623934E+00  5.1032284483E+00  5.2523348272E+00
                       1.5655687180E+01  1.5309685345E+01  1.5724127991E+01
                       1.0437124787E+01  1.5510849640E+01  1.0514175922E+01
                       1.0437124787E+01  1.0206456897E+01  5.0367674492E+00
                       1.0437124787E+01  1.0206456897E+01  1.5692453496E+01
                       1.0437124787E+01  4.9020641531E+00  1.0514175922E+01
                       1.5508488155E+01  1.0206456897E+01  1.0456246489E+01
                       5.3657614181E+00  1.0206456897E+01  1.0456246489E+01
                      -1.5234403307E-12  1.5381430814E-13  1.2781672267E-01
            xcart7     5.1692838559E+00  5.0429042302E+00  5.1943594646E+00
                       1.5507851568E+01  1.5128712691E+01  1.5554630793E+01
                       1.0338567712E+01  1.5279336028E+01  1.0397179199E+01
                       1.0338567712E+01  1.0085808461E+01  5.0325395082E+00
                       1.0338567712E+01  1.0085808460E+01  1.5493587179E+01
                       1.0338567712E+01  4.8922808927E+00  1.0397179199E+01
                       1.5331755190E+01  1.0085808461E+01  1.0340516343E+01
                       5.3453802331E+00  1.0085808460E+01  1.0340516343E+01
                      -6.1306679161E-13 -5.7793873948E-13  1.3166259810E-01
            xcart8     5.1189130622E+00  4.9835896255E+00  5.1337667979E+00
                       1.5356739187E+01  1.4950768876E+01  1.5382656999E+01
                       1.0237826125E+01  1.5053860342E+01  1.0280492284E+01
                       1.0237826125E+01  9.9671792511E+00  5.0285634972E+00
                       1.0237826124E+01  9.9671792509E+00  1.5299245254E+01
                       1.0237826124E+01  4.8804981603E+00  1.0280492284E+01
                       1.5152975952E+01  9.9671792511E+00  1.0223814523E+01
                       5.3226762967E+00  9.9671792509E+00  1.0223814523E+01
                      -4.3361641156E-12 -2.2283060614E-12  1.3827544302E-01
            xcart9     5.0699177246E+00  4.9234310530E+00  5.0752761620E+00
                       1.5209753174E+01  1.4770293159E+01  1.5211794025E+01
                       1.0139835449E+01  1.4827190301E+01  1.0160209588E+01
                       1.0139835449E+01  9.8468621060E+00  5.0213994871E+00
                       1.0139835449E+01  9.8468621060E+00  1.5104218451E+01
                       1.0139835449E+01  4.8665339115E+00  1.0160209588E+01
                       1.4982160770E+01  9.8468621060E+00  1.0107600041E+01
                       5.2975101280E+00  9.8468621060E+00  1.0107600041E+01
                       3.9488621045E-12  1.9766804898E-13  1.4383551899E-01
            xcart10    5.0211954339E+00  4.8635030635E+00  5.0154904652E+00
                       1.5063586302E+01  1.4590509191E+01  1.5038648882E+01
                       1.0042390868E+01  1.4603743709E+01  1.0039064613E+01
                       1.0042390868E+01  9.7270061272E+00  5.0125707855E+00
                       1.0042390868E+01  9.7270061269E+00  1.4909836194E+01
                       1.0042390868E+01  4.8502685453E+00  1.0039064613E+01
                       1.4814987153E+01  9.7270061272E+00  9.9901215865E+00
                       5.2697945823E+00  9.7270061269E+00  9.9901215864E+00
                      -4.2413316692E-12 -3.9748040081E-12  1.5034861305E-01
             xred1     2.5091937952E-01  2.5091937952E-01  2.4908062048E-01
                       7.5091937952E-01  7.5091937952E-01  7.4908062048E-01
                       7.7360728661E-01  2.3118560904E-01  7.6881439096E-01
                       2.2921439868E-01  2.2921439868E-01  7.7078560132E-01
                       7.5755349300E-01  7.5755349300E-01  2.4244650700E-01
                       2.3118560904E-01  7.7360728661E-01  2.2639271339E-01
                       2.4790251444E-01  7.5340143753E-01  7.5209748556E-01
                       7.5340143753E-01  2.4790251444E-01  2.4659856247E-01
                       5.2965016538E-03  5.2965016538E-03 -5.2965016538E-03
             xred2     2.5101719828E-01  2.5101719828E-01  2.4898280172E-01
                       7.5101719828E-01  7.5101719828E-01  7.4898280172E-01
                       7.7143558219E-01  2.3330860431E-01  7.6669139569E-01
                       2.3134450991E-01  2.3134450991E-01  7.6865549009E-01
                       7.5577249211E-01  7.5577249211E-01  2.4422750789E-01
                       2.3330860431E-01  7.7143558219E-01  2.2856441781E-01
                       2.4986905350E-01  7.5088656586E-01  7.5013094650E-01
                       7.5088656586E-01  2.4986905350E-01  2.4911343414E-01
                       5.3487955450E-03  5.3487955450E-03 -5.3487955450E-03
             xred3     2.5103506517E-01  2.5103506517E-01  2.4896493483E-01
                       7.5103506517E-01  7.5103506517E-01  7.4896493483E-01
                       7.6907549637E-01  2.3554845756E-01  7.6445154244E-01
                       2.3349712254E-01  2.3349712254E-01  7.6650287746E-01
                       7.5410673835E-01  7.5410673835E-01  2.4589326165E-01
                       2.3554845756E-01  7.6907549637E-01  2.3092450363E-01
                       2.5169177189E-01  7.4853688493E-01  7.4830822811E-01
                       7.4853688493E-01  2.5169177189E-01  2.5146311507E-01
                       5.4733980201E-03  5.4733980201E-03 -5.4733980201E-03
             xred4     2.5090848881E-01  2.5090848881E-01  2.4909151119E-01
                       7.5090848881E-01  7.5090848881E-01  7.4909151119E-01
                       7.6680909152E-01  2.3776737771E-01  7.6223262229E-01
                       2.3583919568E-01  2.3583919568E-01  7.6416080432E-01
                       7.5244392108E-01  7.5244392108E-01  2.4755607892E-01
                       2.3776737771E-01  7.6680909152E-01  2.3319090848E-01
                       2.5336249316E-01  7.4627614186E-01  7.4663750684E-01
                       7.4627614186E-01  2.5336249316E-01  2.5372385814E-01
                       5.6848013675E-03  5.6848013675E-03 -5.6848013675E-03
             xred5     2.5081465380E-01  2.5081465380E-01  2.4918534620E-01
                       7.5081465380E-01  7.5081465380E-01  7.4918534620E-01
                       7.6441857160E-01  2.3998903848E-01  7.6001096152E-01
                       2.3816574374E-01  2.3816574374E-01  7.6183425626E-01
                       7.5084743718E-01  7.5084743718E-01  2.4915256282E-01
                       2.3998903848E-01  7.6441857160E-01  2.3558142840E-01
                       2.5490344434E-01  7.4414103427E-01  7.4509655566E-01
                       7.4414103427E-01  2.5490344434E-01  2.5585896573E-01
                       5.9054227808E-03  5.9054227808E-03 -5.9054227808E-03
             xred6     2.5078488207E-01  2.5078488207E-01  2.4921511793E-01
                       7.5078488207E-01  7.5078488207E-01  7.4921511793E-01
                       7.6187841941E-01  2.4216890638E-01  7.5783109362E-01
                       2.4049211871E-01  2.4049211871E-01  7.5950788129E-01
                       7.4927251003E-01  7.4927251003E-01  2.5072748997E-01
                       2.4216890638E-01  7.6187841941E-01  2.3812158059E-01
                       2.5630939183E-01  7.4220598426E-01  7.4369060817E-01
                       7.4220598426E-01  2.5630939183E-01  2.5779401574E-01
                       6.1029052366E-03  6.1029052366E-03 -6.1029052366E-03
             xred7     2.5068645887E-01  2.5068645887E-01  2.4931354113E-01
                       7.5068645887E-01  7.5068645887E-01  7.4931354113E-01
                       7.5924831414E-01  2.4431412834E-01  7.5568587166E-01
                       2.4287681995E-01  2.4287681995E-01  7.5712318005E-01
                       7.4774041567E-01  7.4774041567E-01  2.5225958433E-01
                       2.4431412834E-01  7.5924831414E-01  2.4075168586E-01
                       2.5756307743E-01  7.4053012063E-01  7.4243692257E-01
                       7.4053012063E-01  2.5756307743E-01  2.5946987937E-01
                       6.3542060786E-03  6.3542060786E-03 -6.3542060786E-03
             xred8     2.5045476619E-01  2.5045476619E-01  2.4954523381E-01
                       7.5045476619E-01  7.5045476619E-01  7.4954523381E-01
                       7.5671327864E-01  2.4637018531E-01  7.5362981469E-01
                       2.4532234216E-01  2.4532234216E-01  7.5467765784E-01
                       7.4638546002E-01  7.4638546002E-01  2.5361453998E-01
                       2.4637018531E-01  7.5671327864E-01  2.4328672136E-01
                       2.5872815307E-01  7.3882517445E-01  7.4127184693E-01
                       7.3882517445E-01  2.5872815307E-01  2.6117482555E-01
                       6.7458739585E-03  6.7458739585E-03 -6.7458739585E-03
             xred9     2.5034613615E-01  2.5034613615E-01  2.4965386385E-01
                       7.5034613615E-01  7.5034613615E-01  7.4965386385E-01
                       7.5405773250E-01  2.4827953221E-01  7.5172046779E-01
                       2.4768858276E-01  2.4768858276E-01  7.5231141724E-01
                       7.4503979843E-01  7.4503979843E-01  2.5496020157E-01
                       2.4827953221E-01  7.5405773250E-01  2.4594226750E-01
                       2.5979626929E-01  7.3735089485E-01  7.4020373071E-01
                       7.3735089485E-01  2.5979626929E-01  2.6264910515E-01
                       7.0949176500E-03  7.0949176500E-03 -7.0949176500E-03
             xred10    2.5019511098E-01  2.5019511098E-01  2.4980488902E-01
                       7.5019511098E-01  7.5019511098E-01  7.4980488902E-01
                       7.5147376983E-01  2.5011317459E-01  7.4988682541E-01
                       2.5004946429E-01  2.5004946429E-01  7.4995053571E-01
                       7.4376935757E-01  7.4376935757E-01  2.5623064243E-01
                       2.5011317459E-01  7.5147376983E-01  2.4852623017E-01
                       2.6072946320E-01  7.3597448685E-01  7.3927053680E-01
                       7.3597448685E-01  2.6072946320E-01  2.6402551315E-01
                       7.5000616968E-03  7.5000616968E-03 -7.5000616968E-03
            znucl       55.00000   53.00000   72.00000   35.00000

================================================================================

 chkinp: Checking input parameters for consistency, jdtset=   1.

 chkinp: Checking input parameters for consistency, jdtset=   2.

 chkinp: Checking input parameters for consistency, jdtset=   3.

 chkinp: Checking input parameters for consistency, jdtset=   4.

 chkinp: Checking input parameters for consistency, jdtset=   5.

 chkinp: Checking input parameters for consistency, jdtset=   6.

 chkinp: Checking input parameters for consistency, jdtset=   7.

 chkinp: Checking input parameters for consistency, jdtset=   8.

 chkinp: Checking input parameters for consistency, jdtset=   9.

 chkinp: Checking input parameters for consistency, jdtset=  10.

================================================================================
== DATASET  1 ==================================================================
-   mpi_nproc: 6, omp_nthreads: -1 (-1 if OMP is not activated)


--- !DatasetInfo
iteration_state: {dtset: 1, }
dimensions: {natom: 9, nkpt: 280, mband: 42, nsppol: 1, nspinor: 1, nspden: 1, mpw: 7995, }
cutoff_energies: {ecut:  16.0, pawecutdg:  40.0, }
electrons: {nelect:   7.20000000E+01, charge:   0.00000000E+00, occopt:   1.00000000E+00, tsmear:   1.00000000E-02, }
meta: {optdriver: 0, ionmov: 0, optcell: 0, iscf: 17, paral_kgb: 0, }
...

 Real(R)+Recip(G) space primitive vectors, cartesian coordinates (Bohr,Bohr^-1):
 R(1)=  0.0000000 10.7698974 11.0052914  G(1)= -0.0454762  0.0464257  0.0454327
 R(2)= 10.9947624  0.0000000 11.0052914  G(2)=  0.0454762 -0.0464257  0.0454327
 R(3)= 10.9947624 10.7698974  0.0000000  G(3)=  0.0454762  0.0464257 -0.0454327
 Unit cell volume ucvol=  2.6063273E+03 bohr^3
 Angles (23,13,12)=  5.96754808E+01  6.06968629E+01  5.96276562E+01 degrees

 Coarse grid specifications (used for wave-functions):

 getcut: wavevector=  0.0000  0.0000  0.0000  ngfft=  60  60  60
         ecut(hartree)=     16.000   => boxcut(ratio)=   2.14199

 Fine grid specifications (used for densities):

 getcut: wavevector=  0.0000  0.0000  0.0000  ngfft=  90  90  90
         ecut(hartree)=     40.000   => boxcut(ratio)=   2.03233

--- Pseudopotential description ------------------------------------------------
- pspini: atom type   1  psp file is ../../../Psps_for_tests/ATOMICDATA/Cs.GGA_PBE-JTH.xml
- pspatm: opening atomic psp file    ../../../Psps_for_tests/ATOMICDATA/Cs.GGA_PBE-JTH.xml
- pspatm : Reading pseudopotential header in XML form from ../../../Psps_for_tests/ATOMICDATA/Cs.GGA_PBE-JTH.xml
 Pseudopotential format is: paw10
 basis_size (lnmax)=  6 (lmn_size= 18), orbitals=   0   0   1   1   2   2
 Spheres core radius: rc_sph= 2.20660278
 1 radial meshes are used:
  - mesh 1: r(i)=AA*[exp(BB*(i-1))-1], size=1500 , AA= 0.15922E-03 BB= 0.87573E-02
 Shapefunction is SIN type: shapef(r)=[sin(pi*r/rshp)/(pi*r/rshp)]**2
 Radius for shape functions =  2.00394208
 mmax= 1500
 Radial grid used for partial waves is grid 1
 Radial grid used for projectors is grid 1
 Radial grid used for (t)core density is grid 1
 Radial grid used for Vloc is grid 1
 Radial grid used for pseudo valence density is grid 1
 Mesh size for Vloc has been set to 1341 to avoid numerical noise.
 Compensation charge density is not taken into account in XC energy/potential
 pspatm: atomic psp has been read  and splines computed

- pspini: atom type   2  psp file is ../../../Psps_for_tests/ATOMICDATA/I.GGA_PBE-JTH.xml
- pspatm: opening atomic psp file    ../../../Psps_for_tests/ATOMICDATA/I.GGA_PBE-JTH.xml
- pspatm : Reading pseudopotential header in XML form from ../../../Psps_for_tests/ATOMICDATA/I.GGA_PBE-JTH.xml
 Pseudopotential format is: paw10
 basis_size (lnmax)=  4 (lmn_size=  8), orbitals=   0   0   1   1
 Spheres core radius: rc_sph= 2.30022271
 1 radial meshes are used:
  - mesh 1: r(i)=AA*[exp(BB*(i-1))-1], size=2000 , AA= 0.12610E-03 BB= 0.66836E-02
 Shapefunction is SIN type: shapef(r)=[sin(pi*r/rshp)/(pi*r/rshp)]**2
 Radius for shape functions =  2.10879093
 mmax= 2000
 Radial grid used for partial waves is grid 1
 Radial grid used for projectors is grid 1
 Radial grid used for (t)core density is grid 1
 Radial grid used for Vloc is grid 1
 Radial grid used for pseudo valence density is grid 1
 Mesh size for Vloc has been set to 1792 to avoid numerical noise.
 Compensation charge density is not taken into account in XC energy/potential
 pspatm: atomic psp has been read  and splines computed

- pspini: atom type   3  psp file is ../../../Psps_for_tests/ATOMICDATA/Hf.GGA_PBE-JTH.xml
- pspatm: opening atomic psp file    ../../../Psps_for_tests/ATOMICDATA/Hf.GGA_PBE-JTH.xml
- pspatm : Reading pseudopotential header in XML form from ../../../Psps_for_tests/ATOMICDATA/Hf.GGA_PBE-JTH.xml
 Pseudopotential format is: paw10
 basis_size (lnmax)=  6 (lmn_size= 18), orbitals=   0   0   1   1   2   2
 Spheres core radius: rc_sph= 2.41000000
 1 radial meshes are used:
  - mesh 1: r(i)=AA*[exp(BB*(i-1))-1], size= 972 , AA= 0.19796E-03 BB= 0.14253E-01
 Shapefunction is SIN type: shapef(r)=[sin(pi*r/rshp)/(pi*r/rshp)]**2
 Radius for shape functions =  2.41000000
 mmax=  972
 Radial grid used for partial waves is grid 1
 Radial grid used for projectors is grid 1
 Radial grid used for (t)core density is grid 1
 Radial grid used for Vloc is grid 1
 Radial grid used for pseudo valence density is grid 1
 Mesh size for Vloc has been set to  809 to avoid numerical noise.
 Compensation charge density is not taken into account in XC energy/potential
 pspatm: atomic psp has been read  and splines computed

- pspini: atom type   4  psp file is ../../../Psps_for_tests/ATOMICDATA/Br.GGA_PBE-JTH.xml
- pspatm: opening atomic psp file    ../../../Psps_for_tests/ATOMICDATA/Br.GGA_PBE-JTH.xml
- pspatm : Reading pseudopotential header in XML form from ../../../Psps_for_tests/ATOMICDATA/Br.GGA_PBE-JTH.xml
 Pseudopotential format is: paw10
 basis_size (lnmax)=  4 (lmn_size=  8), orbitals=   0   0   1   1
 Spheres core radius: rc_sph= 2.20000000
 1 radial meshes are used:
  - mesh 1: r(i)=AA*[exp(BB*(i-1))-1], size= 927 , AA= 0.40483E-03 BB= 0.14169E-01
 Shapefunction is BESSEL type: shapef(r,l)=aa(1,l)*jl(q(1,l)*r)+aa(2,l)*jl(q(2,l)*r)
 Radius for shape functions =  2.02066386
 mmax=  927
 Radial grid used for partial waves is grid 1
 Radial grid used for projectors is grid 1
 Radial grid used for (t)core density is grid 1
 Radial grid used for Vloc is grid 1
 Radial grid used for pseudo valence density is grid 1
 Mesh size for Vloc has been set to  763 to avoid numerical noise.
 Compensation charge density is not taken into account in XC energy/potential
 pspatm: atomic psp has been read  and splines computed

   3.85741523E+04                                ecore*ucvol(ha*bohr**3)
--------------------------------------------------------------------------------

_setup2: Arith. and geom. avg. npw (full set) are    7967.098    7967.090

================================================================================

--- !BeginCycle
iteration_state: {dtset: 1, }
solver: {iscf: 17, nstep: 2500, nline: 4, wfoptalg: 10, }
tolerances: {toldfe: 1.00E-08, }
...

     iter   Etot(hartree)      deltaE(h)  residm     nres2
 ETOT  1  -165.78094678160    -1.658E+02 6.405E+00 5.289E+00
 ETOT  2  -167.23468622060    -1.454E+00 2.567E-02 1.854E+00
 ETOT  3  -167.22635805938     8.328E-03 2.176E-02 3.428E-01
 ETOT  4  -167.22702482985    -6.668E-04 6.300E-03 9.071E-02
 ETOT  5  -167.22692720581     9.762E-05 3.613E-03 8.294E-03
 ETOT  6  -167.22700006429    -7.286E-05 3.413E-03 1.336E-03
 ETOT  7  -167.22701439352    -1.433E-05 1.739E-03 3.113E-04
 ETOT  8  -167.22701701214    -2.619E-06 1.930E-03 3.110E-05
 ETOT  9  -167.22701742414    -4.120E-07 1.211E-03 1.562E-05
 ETOT 10  -167.22701739111     3.303E-08 1.119E-03 1.383E-06
 ETOT 11  -167.22701741543    -2.432E-08 1.087E-03 1.458E-06
 ETOT 12  -167.22701740992     5.513E-09 7.182E-04 3.136E-07
 ETOT 13  -167.22701741056    -6.397E-10 7.637E-04 6.815E-08

 At SCF step   13, etot is converged : 
  for the second time, diff in etot=  6.397E-10 < toldfe=  1.000E-08

 Cartesian components of stress tensor (hartree/bohr^3)
  sigma(1 1)= -4.18045163E-06  sigma(3 2)=  9.90971849E-14
  sigma(2 2)= -4.23826830E-06  sigma(3 1)= -2.46634067E-13
  sigma(3 3)= -4.15546727E-06  sigma(2 1)=  1.52832832E-13


--- !ResultsGS
iteration_state: {dtset: 1, }
comment   : Summary of ground state results
lattice_vectors:
- [  0.0000000,  10.7698974,  11.0052914, ]
- [ 10.9947624,   0.0000000,  11.0052914, ]
- [ 10.9947624,  10.7698974,   0.0000000, ]
lattice_lengths: [  15.39828,   15.55639,   15.39076, ]
lattice_angles: [ 59.675,  60.697,  59.628, ] # degrees, (23, 13, 12)
lattice_volume:   2.6063273E+03
convergence: {deltae: -6.397E-10, res2:  6.815E-08, residm:  7.637E-04, diffor: null, }
etotal    :  -1.67227017E+02
entropy   :   0.00000000E+00
fermie    :  -1.00319549E-01
cartesian_stress_tensor: # hartree/bohr^3
- [ -4.18045163E-06,   1.52832832E-13,  -2.46634067E-13, ]
- [  1.52832832E-13,  -4.23826830E-06,   9.90971849E-14, ]
- [ -2.46634067E-13,   9.90971849E-14,  -4.15546727E-06, ]
pressure_GPa:   1.2332E-01
xred      :
- [  2.5092E-01,   2.5092E-01,   2.4908E-01, Cs]
- [  7.5092E-01,   7.5092E-01,   7.4908E-01, Cs]
- [  7.7361E-01,   2.3119E-01,   7.6881E-01, Br]
- [  2.2921E-01,   2.2921E-01,   7.7079E-01, Br]
- [  7.5755E-01,   7.5755E-01,   2.4245E-01,  I]
- [  2.3119E-01,   7.7361E-01,   2.2639E-01, Br]
- [  2.4790E-01,   7.5340E-01,   7.5210E-01,  I]
- [  7.5340E-01,   2.4790E-01,   2.4660E-01,  I]
- [  5.2965E-03,   5.2965E-03,  -5.2965E-03, Hf]
cartesian_forces: # hartree/bohr
- [  1.19777264E-16,  -1.22278303E-16,  -4.97744318E-06, ]
- [  1.19777687E-16,  -1.22278515E-16,  -4.97744318E-06, ]
- [  1.21766102E-16,  -1.93227907E-06,  -5.63095909E-06, ]
- [  4.77272093E-17,  -4.87238629E-17,  -1.98335329E-06, ]
- [ -7.11875198E-16,   7.26734526E-16,   2.95822162E-05, ]
- [  1.49241512E-16,   1.93227907E-06,  -5.63095909E-06, ]
- [ -4.35945163E-05,  -8.24378860E-16,   1.62189508E-06, ]
- [  4.35945163E-05,   9.04065737E-16,   1.62189508E-06, ]
- [  2.31637870E-16,  -2.36474352E-16,  -9.62584849E-06, ]
force_length_stats: {min:   1.98335329E-06, max:   4.36246764E-05, mean:   1.67002437E-05, }
...

 Integrated electronic density in atomic spheres:
 ------------------------------------------------
 Atom  Sphere_radius  Integrated_density
    1        2.20660          5.36085605
    2        2.20660          5.36085605
    3        2.20000          4.93040489
    4        2.20000          4.92429172
    5        2.30022          4.01684588
    6        2.20000          4.93040489
    7        2.30022          4.01791967
    8        2.30022          4.01791967
    9        2.41000          9.27300636

 PAW TEST:
 ==== Compensation charge inside spheres ============
 The following values must be close to each other ...
 Compensation charge over spherical meshes =     -0.427930873783761
 Compensation charge over fine fft grid    =     -0.427938792716422

 ==== Results concerning PAW augmentation regions ====

 Total pseudopotential strength Dij (hartree):
 Atom #  1
   0.44359  -0.14687   0.00000   0.00000   0.00000   0.00000  -0.00001   0.00000   0.00000   0.00000  -0.00000   0.00000 ...
  -0.14687   0.04428   0.00000  -0.00000   0.00000   0.00000   0.00000   0.00000  -0.00000   0.00000   0.00000   0.00000 ...
   0.00000   0.00000  -0.09399   0.00000   0.00000  -0.16630   0.00000  -0.00000   0.00000   0.00000   0.00000  -0.00000 ...
   0.00000  -0.00000   0.00000  -0.09399   0.00000   0.00000  -0.16630   0.00000  -0.00000   0.00000   0.00000   0.00000 ...
   0.00000   0.00000   0.00000   0.00000  -0.09399  -0.00000   0.00000  -0.16630   0.00000  -0.00000   0.00000   0.00000 ...
   0.00000   0.00000  -0.16630   0.00000  -0.00000   0.40500   0.00000   0.00001   0.00000  -0.00000   0.00000   0.00000 ...
  -0.00001   0.00000   0.00000  -0.16630   0.00000   0.00000   0.40500   0.00000   0.00000   0.00000  -0.00000   0.00000 ...
   0.00000   0.00000  -0.00000   0.00000  -0.16630   0.00001   0.00000   0.40501   0.00000   0.00000   0.00000  -0.00000 ...
   0.00000  -0.00000   0.00000  -0.00000   0.00000   0.00000   0.00000   0.00000   0.00517   0.00000  -0.00000   0.00000 ...
   0.00000   0.00000   0.00000   0.00000  -0.00000  -0.00000   0.00000   0.00000   0.00000   0.00517   0.00000   0.00000 ...
  -0.00000   0.00000   0.00000   0.00000   0.00000   0.00000  -0.00000   0.00000  -0.00000   0.00000   0.00517   0.00000 ...
   0.00000   0.00000  -0.00000   0.00000   0.00000   0.00000   0.00000  -0.00000   0.00000   0.00000   0.00000   0.00517 ...
   ...  only 12  components have been written...
 Atom #  9
  -3.52375   0.43017   0.00000   0.00015   0.00000   0.00000  -0.00003   0.00000   0.00000   0.00000  -0.00003   0.00000 ...
   0.43017   0.00245   0.00000  -0.00001   0.00000   0.00000   0.00000   0.00000   0.00000   0.00000   0.00000   0.00000 ...
   0.00000   0.00000  -1.46420   0.00000   0.00000   0.12506   0.00000   0.00000   0.00000   0.00007   0.00000   0.00000 ...
   0.00015  -0.00001   0.00000  -1.46469   0.00000   0.00000   0.12515   0.00000   0.00000   0.00000   0.00008   0.00000 ...
   0.00000   0.00000   0.00000   0.00000  -1.46498   0.00000   0.00000   0.12520   0.00000   0.00000   0.00000   0.00007 ...
   0.00000   0.00000   0.12506   0.00000   0.00000   0.01311   0.00000   0.00000   0.00000  -0.00001   0.00000   0.00000 ...
  -0.00003   0.00000   0.00000   0.12515   0.00000   0.00000   0.01309   0.00000   0.00000   0.00000  -0.00001   0.00000 ...
   0.00000   0.00000   0.00000   0.00000   0.12520   0.00000   0.00000   0.01308   0.00000   0.00000   0.00000  -0.00001 ...
   0.00000   0.00000   0.00000   0.00000   0.00000   0.00000   0.00000   0.00000  -0.39567   0.00000   0.00000   0.00000 ...
   0.00000   0.00000   0.00007   0.00000   0.00000  -0.00001   0.00000   0.00000   0.00000  -0.39561   0.00000   0.00000 ...
  -0.00003   0.00000   0.00000   0.00008   0.00000   0.00000  -0.00001   0.00000   0.00000   0.00000  -0.39501   0.00000 ...
   0.00000   0.00000   0.00000   0.00000   0.00007   0.00000   0.00000  -0.00001   0.00000   0.00000   0.00000  -0.39576 ...
   ...  only 12  components have been written...


 Augmentation waves occupancies Rhoij:
 Atom #  1
   1.99710  -0.01616   0.00000   0.00000   0.00000   0.00000   0.00002   0.00000   0.00241   0.00000  -0.00022   0.00000 ...
  -0.01616   0.12783   0.00000   0.00136   0.00000   0.00000  -0.00004   0.00000  -0.01353   0.00000   0.00022   0.00000 ...
   0.00000   0.00000   2.00955   0.00000  -0.00156  -0.00514   0.00000   0.00024   0.00000   0.00068   0.00000   0.00056 ...
   0.00000   0.00136   0.00000   2.00886   0.00000   0.00000  -0.00499   0.00000   0.00044   0.00000   0.00021   0.00000 ...
   0.00000   0.00000  -0.00156   0.00000   2.00746   0.00024   0.00000  -0.00478   0.00000   0.00038   0.00000   0.00154 ...
   0.00000   0.00000  -0.00514   0.00000   0.00024   0.00010   0.00000  -0.00001   0.00000  -0.00001   0.00000  -0.00003 ...
   0.00002  -0.00004   0.00000  -0.00499   0.00000   0.00000   0.00009   0.00000  -0.00002   0.00000   0.00001   0.00000 ...
   0.00000   0.00000   0.00024   0.00000  -0.00478  -0.00001   0.00000   0.00008   0.00000  -0.00002   0.00000  -0.00005 ...
   0.00241  -0.01353   0.00000   0.00044   0.00000   0.00000  -0.00002   0.00000   0.03982   0.00000   0.00906   0.00000 ...
   0.00000   0.00000   0.00068   0.00000   0.00038  -0.00001   0.00000  -0.00002   0.00000   0.05236   0.00000  -0.00014 ...
  -0.00022   0.00022   0.00000   0.00021   0.00000   0.00000   0.00001   0.00000   0.00906   0.00000   0.02606   0.00000 ...
   0.00000   0.00000   0.00056   0.00000   0.00154  -0.00003   0.00000  -0.00005   0.00000  -0.00014   0.00000   0.02403 ...
   ...  only 12  components have been written...
 Atom #  9
   1.99780  -0.02200   0.00000  -0.00002   0.00000   0.00000  -0.00022   0.00000   0.00000   0.00000  -0.00027   0.00000 ...
  -0.02200   1.00078   0.00000  -0.00142   0.00000   0.00000   0.02939   0.00000   0.00000   0.00000  -0.00327   0.00000 ...
   0.00000   0.00000   1.99192   0.00000   0.00000  -0.07032   0.00000   0.00000   0.00000   0.00085   0.00000   0.00000 ...
  -0.00002  -0.00142   0.00000   1.99211   0.00000   0.00000  -0.06767   0.00000   0.00000   0.00000   0.00091   0.00000 ...
   0.00000   0.00000   0.00000   0.00000   1.99225   0.00000   0.00000  -0.06537   0.00000   0.00000   0.00000   0.00094 ...
   0.00000   0.00000  -0.07032   0.00000   0.00000   1.34726   0.00000   0.00000   0.00000  -0.01608   0.00000   0.00000 ...
  -0.00022   0.02939   0.00000  -0.06767   0.00000   0.00000   1.22607   0.00000   0.00000   0.00000   0.10391   0.00000 ...
   0.00000   0.00000   0.00000   0.00000  -0.06537   0.00000   0.00000   1.12611   0.00000   0.00000   0.00000  -0.02026 ...
   0.00000   0.00000   0.00000   0.00000   0.00000   0.00000   0.00000   0.00000   0.46038   0.00000   0.00000   0.00000 ...
   0.00000   0.00000   0.00085   0.00000   0.00000  -0.01608   0.00000   0.00000   0.00000   0.48035   0.00000   0.00000 ...
  -0.00027  -0.00327   0.00000   0.00091   0.00000   0.00000   0.10391   0.00000   0.00000   0.00000   1.39950   0.00000 ...
   0.00000   0.00000   0.00000   0.00000   0.00094   0.00000   0.00000  -0.02026   0.00000   0.00000   0.00000   0.43456 ...
   ...  only 12  components have been written...


================================================================================

 ----iterations are completed or convergence reached----

 Mean square residual over all n,k,spin=   12.874E-07; max=  76.372E-05
 reduced coordinates (array xred) for    9 atoms
       0.250919379520      0.250919379520      0.249080620480
       0.750919379520      0.750919379520      0.749080620480
       0.773607286610      0.231185609040      0.768814390960
       0.229214398680      0.229214398680      0.770785601320
       0.757553493000      0.757553493000      0.242446507000
       0.231185609040      0.773607286610      0.226392713390
       0.247902514440      0.753401437530      0.752097485560
       0.753401437530      0.247902514440      0.246598562470
       0.005296501654      0.005296501654     -0.005296501654
 rms dE/dt=  2.1029E-04; max dE/dt=  4.7931E-04; dE/dt below (all hartree)
    1       0.000032074229      0.000032074229      0.000000000000
    2       0.000032074229      0.000032074229      0.000000000000
    3       0.000060076810      0.000039266362      0.000020810447
    4      -0.000000876602     -0.000000876602      0.000000000000
    5      -0.000348264892     -0.000348264892      0.000000000000
    6       0.000018455915      0.000039266362     -0.000020810447
    7      -0.000040553411      0.000438757938      0.000479311349
    8      -0.000040553411     -0.000519864761     -0.000479311349
    9       0.000083231284      0.000083231284      0.000000000000

 cartesian coordinates (angstrom) at end:
    1      2.90908884499106     2.84959211700972     2.92258315643659
    2      8.72726653497276     8.54877635102900     8.74633252571087
    3      5.81817768992096     8.79054530701672     5.85166199221702
    4      5.81817768992051     5.69918423399688     2.66977441948247
    5      5.81817769003990     5.69918423404059     8.82360335410056
    6      5.81817769004353     2.60782316102225     5.85166199236891
    7      8.75926024661386     5.69918423399843     5.83134325880791
    8      2.87709513334983     5.69918423404025     5.83134325866636
    9      0.00000000000120     0.00000000000044     0.06169099633136

 cartesian forces (hartree/bohr) at end:
    1      0.00000000000000    -0.00000000000000    -0.00000497744318
    2      0.00000000000000    -0.00000000000000    -0.00000497744318
    3      0.00000000000000    -0.00000193227907    -0.00000563095909
    4      0.00000000000000    -0.00000000000000    -0.00000198335329
    5     -0.00000000000000     0.00000000000000     0.00002958221616
    6      0.00000000000000     0.00000193227907    -0.00000563095909
    7     -0.00004359451626    -0.00000000000000     0.00000162189508
    8      0.00004359451626     0.00000000000000     0.00000162189508
    9      0.00000000000000    -0.00000000000000    -0.00000962584849
 frms,max,avg= 1.3469246E-05 4.3594516E-05   0.000E+00  0.000E+00  2.063E-06 h/b

 cartesian forces (eV/Angstrom) at end:
    1      0.00000000000001    -0.00000000000001    -0.00025595039770
    2      0.00000000000001    -0.00000000000001    -0.00025595039770
    3      0.00000000000001    -0.00009936177637    -0.00028955553428
    4      0.00000000000000    -0.00000000000000    -0.00010198811846
    5     -0.00000000000004     0.00000000000004     0.00152117858884
    6      0.00000000000001     0.00009936177636    -0.00028955553428
    7     -0.00224171996993    -0.00000000000004     0.00008340119138
    8      0.00224171996992     0.00000000000005     0.00008340119130
    9      0.00000000000001    -0.00000000000001    -0.00049498098912
 frms,max,avg= 6.9261640E-04 2.2417200E-03   0.000E+00  0.000E+00  1.061E-04 e/A
 length scales= 15.398283277000 15.556389011000 15.390759905000 bohr
              =  8.148420561601  8.232086512581  8.144439364607 angstroms
 prteigrs : about to open file Cs2TiI6o_DS1_EIG
 Fermi (or HOMO) energy (hartree) =  -0.10032   Average Vxc (hartree)=  -0.28520
 Eigenvalues (hartree) for nkpt= 280  k points:
 kpt#   1, nband= 42, wtk=  0.00058, kpt=  0.0000  0.0000  0.0000 (reduced coord)
  -2.40038   -1.24427   -1.24420   -1.24407   -0.85327   -0.85313   -0.61345   -0.60475
  -0.60218   -0.51874   -0.51087   -0.50649   -0.37125   -0.37053   -0.37033   -0.36875
  -0.36874   -0.36866   -0.24972   -0.20064   -0.19877   -0.19281   -0.19273   -0.19149
  -0.18833   -0.18558   -0.17261   -0.14774   -0.14299   -0.14214   -0.12369   -0.12009
  -0.11572   -0.11431   -0.11201   -0.10032   -0.01476   -0.01024   -0.00647    0.04733
   0.06225    0.06981
 prteigrs : prtvol=0 or 1, do not print more k-points.


--- !EnergyTerms
iteration_state     : {dtset: 1, }
comment             : Components of total free energy in Hartree
kinetic             :  4.03152722645271E+01
hartree             :  3.85397650650356E+01
xc                  : -6.40633776334086E+01
Ewald energy        : -1.15775624950746E+02
psp_core            :  1.48001949007883E+01
local_psp           : -8.16674896501019E+01
spherical_terms     :  6.24201206424111E-01
total_energy        : -1.67227058797481E+02
total_energy_eV     : -4.55047968871706E+03
...


--- !EnergyTermsDC
iteration_state     : {dtset: 1, }
comment             : '"Double-counting" decomposition of free energy'
band_energy         : -3.27397202780320E+01
Ewald energy        : -1.15775624950746E+02
psp_core            :  1.48001949007883E+01
xc_dc               : -6.39329676675186E+01
spherical_terms     :  3.04211005849497E+01
total_energy_dc     : -1.67227017410559E+02
total_energy_dc_eV  : -4.55047856252162E+03
...


 Cartesian components of stress tensor (hartree/bohr^3)
  sigma(1 1)= -4.18045163E-06  sigma(3 2)=  9.90971849E-14
  sigma(2 2)= -4.23826830E-06  sigma(3 1)= -2.46634067E-13
  sigma(3 3)= -4.15546727E-06  sigma(2 1)=  1.52832832E-13

-Cartesian components of stress tensor (GPa)         [Pressure=  1.2332E-01 GPa]
- sigma(1 1)= -1.22993113E-01  sigma(3 2)=  2.91553935E-09
- sigma(2 2)= -1.24694137E-01  sigma(3 1)= -7.25622354E-09
- sigma(3 3)= -1.22258048E-01  sigma(2 1)=  4.49649641E-09

================================================================================
== DATASET  2 ==================================================================
-   mpi_nproc: 6, omp_nthreads: -1 (-1 if OMP is not activated)


--- !DatasetInfo
iteration_state: {dtset: 2, }
dimensions: {natom: 9, nkpt: 280, mband: 42, nsppol: 1, nspinor: 1, nspden: 1, mpw: 7772, }
cutoff_energies: {ecut:  16.0, pawecutdg:  40.0, }
electrons: {nelect:   7.20000000E+01, charge:   0.00000000E+00, occopt:   1.00000000E+00, tsmear:   1.00000000E-02, }
meta: {optdriver: 0, ionmov: 0, optcell: 0, iscf: 17, paral_kgb: 0, }
...

 Real(R)+Recip(G) space primitive vectors, cartesian coordinates (Bohr,Bohr^-1):
 R(1)=  0.0000000 10.6636248 10.9008142  G(1)= -0.0459793  0.0468884  0.0458681
 R(2)= 10.8744627  0.0000000 10.9008142  G(2)=  0.0459793 -0.0468884  0.0458681
 R(3)= 10.8744627 10.6636248  0.0000000  G(3)=  0.0459793  0.0468884 -0.0458681
 Unit cell volume ucvol=  2.5281428E+03 bohr^3
 Angles (23,13,12)=  5.97178243E+01  6.06852671E+01  5.95969086E+01 degrees

 Coarse grid specifications (used for wave-functions):

 getcut: wavevector=  0.0000  0.0000  0.0000  ngfft=  60  60  60
         ecut(hartree)=     16.000   => boxcut(ratio)=   2.16411

 Fine grid specifications (used for densities):

 getcut: wavevector=  0.0000  0.0000  0.0000  ngfft=  90  90  90
         ecut(hartree)=     40.000   => boxcut(ratio)=   2.05331

--- Pseudopotential description ------------------------------------------------
- pspini: atom type   1  psp file is ../../../Psps_for_tests/ATOMICDATA/Cs.GGA_PBE-JTH.xml
- pspatm: opening atomic psp file    ../../../Psps_for_tests/ATOMICDATA/Cs.GGA_PBE-JTH.xml
- pspatm : Reading pseudopotential header in XML form from ../../../Psps_for_tests/ATOMICDATA/Cs.GGA_PBE-JTH.xml
 Pseudopotential format is: paw10
 basis_size (lnmax)=  6 (lmn_size= 18), orbitals=   0   0   1   1   2   2
 Spheres core radius: rc_sph= 2.20660278
 1 radial meshes are used:
  - mesh 1: r(i)=AA*[exp(BB*(i-1))-1], size=1500 , AA= 0.15922E-03 BB= 0.87573E-02
 Shapefunction is SIN type: shapef(r)=[sin(pi*r/rshp)/(pi*r/rshp)]**2
 Radius for shape functions =  2.00394208
 mmax= 1500
 Radial grid used for partial waves is grid 1
 Radial grid used for projectors is grid 1
 Radial grid used for (t)core density is grid 1
 Radial grid used for Vloc is grid 1
 Radial grid used for pseudo valence density is grid 1
 Mesh size for Vloc has been set to 1341 to avoid numerical noise.
 Compensation charge density is not taken into account in XC energy/potential
 pspatm: atomic psp has been read  and splines computed

- pspini: atom type   2  psp file is ../../../Psps_for_tests/ATOMICDATA/I.GGA_PBE-JTH.xml
- pspatm: opening atomic psp file    ../../../Psps_for_tests/ATOMICDATA/I.GGA_PBE-JTH.xml
- pspatm : Reading pseudopotential header in XML form from ../../../Psps_for_tests/ATOMICDATA/I.GGA_PBE-JTH.xml
 Pseudopotential format is: paw10
 basis_size (lnmax)=  4 (lmn_size=  8), orbitals=   0   0   1   1
 Spheres core radius: rc_sph= 2.30022271
 1 radial meshes are used:
  - mesh 1: r(i)=AA*[exp(BB*(i-1))-1], size=2000 , AA= 0.12610E-03 BB= 0.66836E-02
 Shapefunction is SIN type: shapef(r)=[sin(pi*r/rshp)/(pi*r/rshp)]**2
 Radius for shape functions =  2.10879093
 mmax= 2000
 Radial grid used for partial waves is grid 1
 Radial grid used for projectors is grid 1
 Radial grid used for (t)core density is grid 1
 Radial grid used for Vloc is grid 1
 Radial grid used for pseudo valence density is grid 1
 Mesh size for Vloc has been set to 1792 to avoid numerical noise.
 Compensation charge density is not taken into account in XC energy/potential
 pspatm: atomic psp has been read  and splines computed

- pspini: atom type   3  psp file is ../../../Psps_for_tests/ATOMICDATA/Hf.GGA_PBE-JTH.xml
- pspatm: opening atomic psp file    ../../../Psps_for_tests/ATOMICDATA/Hf.GGA_PBE-JTH.xml
- pspatm : Reading pseudopotential header in XML form from ../../../Psps_for_tests/ATOMICDATA/Hf.GGA_PBE-JTH.xml
 Pseudopotential format is: paw10
 basis_size (lnmax)=  6 (lmn_size= 18), orbitals=   0   0   1   1   2   2
 Spheres core radius: rc_sph= 2.41000000
 1 radial meshes are used:
  - mesh 1: r(i)=AA*[exp(BB*(i-1))-1], size= 972 , AA= 0.19796E-03 BB= 0.14253E-01
 Shapefunction is SIN type: shapef(r)=[sin(pi*r/rshp)/(pi*r/rshp)]**2
 Radius for shape functions =  2.41000000
 mmax=  972
 Radial grid used for partial waves is grid 1
 Radial grid used for projectors is grid 1
 Radial grid used for (t)core density is grid 1
 Radial grid used for Vloc is grid 1
 Radial grid used for pseudo valence density is grid 1
 Mesh size for Vloc has been set to  809 to avoid numerical noise.
 Compensation charge density is not taken into account in XC energy/potential
 pspatm: atomic psp has been read  and splines computed

- pspini: atom type   4  psp file is ../../../Psps_for_tests/ATOMICDATA/Br.GGA_PBE-JTH.xml
- pspatm: opening atomic psp file    ../../../Psps_for_tests/ATOMICDATA/Br.GGA_PBE-JTH.xml
- pspatm : Reading pseudopotential header in XML form from ../../../Psps_for_tests/ATOMICDATA/Br.GGA_PBE-JTH.xml
 Pseudopotential format is: paw10
 basis_size (lnmax)=  4 (lmn_size=  8), orbitals=   0   0   1   1
 Spheres core radius: rc_sph= 2.20000000
 1 radial meshes are used:
  - mesh 1: r(i)=AA*[exp(BB*(i-1))-1], size= 927 , AA= 0.40483E-03 BB= 0.14169E-01
 Shapefunction is BESSEL type: shapef(r,l)=aa(1,l)*jl(q(1,l)*r)+aa(2,l)*jl(q(2,l)*r)
 Radius for shape functions =  2.02066386
 mmax=  927
 Radial grid used for partial waves is grid 1
 Radial grid used for projectors is grid 1
 Radial grid used for (t)core density is grid 1
 Radial grid used for Vloc is grid 1
 Radial grid used for pseudo valence density is grid 1
 Mesh size for Vloc has been set to  763 to avoid numerical noise.
 Compensation charge density is not taken into account in XC energy/potential
 pspatm: atomic psp has been read  and splines computed

--------------------------------------------------------------------------------

_setup2: Arith. and geom. avg. npw (full set) are    7728.127    7728.121

================================================================================

--- !BeginCycle
iteration_state: {dtset: 2, }
solver: {iscf: 17, nstep: 2500, nline: 4, wfoptalg: 10, }
tolerances: {toldfe: 1.00E-08, }
...

     iter   Etot(hartree)      deltaE(h)  residm     nres2
 ETOT  1  -165.61615457731    -1.656E+02 1.043E+01 5.246E+00
 ETOT  2  -167.23556329394    -1.619E+00 2.557E-02 2.198E+00
 ETOT  3  -167.22520895351     1.035E-02 2.111E-02 3.926E-01
 ETOT  4  -167.22599690295    -7.879E-04 9.037E-03 1.034E-01
 ETOT  5  -167.22589538996     1.015E-04 5.173E-03 8.952E-03
 ETOT  6  -167.22597602784    -8.064E-05 3.400E-03 1.260E-03
 ETOT  7  -167.22599034228    -1.431E-05 1.681E-03 3.289E-04
 ETOT  8  -167.22599362699    -3.285E-06 1.463E-03 3.208E-05
 ETOT  9  -167.22599416213    -5.351E-07 8.671E-04 1.525E-05
 ETOT 10  -167.22599415476     7.376E-09 9.066E-04 1.271E-06
 ETOT 11  -167.22599417727    -2.251E-08 8.604E-04 1.265E-06
 ETOT 12  -167.22599417304     4.230E-09 6.033E-04 2.603E-07
 ETOT 13  -167.22599417377    -7.296E-10 7.882E-04 5.498E-08

 At SCF step   13, etot is converged : 
  for the second time, diff in etot=  7.296E-10 < toldfe=  1.000E-08

 Cartesian components of stress tensor (hartree/bohr^3)
  sigma(1 1)= -1.36916266E-05  sigma(3 2)=  1.40480931E-13
  sigma(2 2)= -1.38633676E-05  sigma(3 1)=  1.43667132E-14
  sigma(3 3)= -1.37145523E-05  sigma(2 1)= -1.55507477E-13


--- !ResultsGS
iteration_state: {dtset: 2, }
comment   : Summary of ground state results
lattice_vectors:
- [  0.0000000,  10.6636248,  10.9008142, ]
- [ 10.8744627,   0.0000000,  10.9008142, ]
- [ 10.8744627,  10.6636248,   0.0000000, ]
lattice_lengths: [  15.24928,   15.39746,   15.23046, ]
lattice_angles: [ 59.718,  60.685,  59.597, ] # degrees, (23, 13, 12)
lattice_volume:   2.5281428E+03
convergence: {deltae: -7.296E-10, res2:  5.498E-08, residm:  7.882E-04, diffor: null, }
etotal    :  -1.67225994E+02
entropy   :   0.00000000E+00
fermie    :  -9.60295926E-02
cartesian_stress_tensor: # hartree/bohr^3
- [ -1.36916266E-05,  -1.55507477E-13,   1.43667132E-14, ]
- [ -1.55507477E-13,  -1.38633676E-05,   1.40480931E-13, ]
- [  1.43667132E-14,   1.40480931E-13,  -1.37145523E-05, ]
pressure_GPa:   4.0473E-01
xred      :
- [  2.5102E-01,   2.5102E-01,   2.4898E-01, Cs]
- [  7.5102E-01,   7.5102E-01,   7.4898E-01, Cs]
- [  7.7144E-01,   2.3331E-01,   7.6669E-01, Br]
- [  2.3134E-01,   2.3134E-01,   7.6866E-01, Br]
- [  7.5577E-01,   7.5577E-01,   2.4423E-01,  I]
- [  2.3331E-01,   7.7144E-01,   2.2856E-01, Br]
- [  2.4987E-01,   7.5089E-01,   7.5013E-01,  I]
- [  7.5089E-01,   2.4987E-01,   2.4911E-01,  I]
- [  5.3488E-03,   5.3488E-03,  -5.3488E-03, Hf]
cartesian_forces: # hartree/bohr
- [ -6.38156919E-17,   6.50768198E-17,   6.53676883E-06, ]
- [ -6.38156919E-17,   6.50768198E-17,   6.53676883E-06, ]
- [  4.84438878E-18,   2.67030702E-07,  -8.62948463E-07, ]
- [ -1.49377081E-17,   1.52326880E-17,   1.53005708E-06, ]
- [ -1.63648030E-17,   1.66879459E-17,   1.67624232E-06, ]
- [  1.20044403E-17,  -2.67030702E-07,  -8.62948463E-07, ]
- [ -8.07761762E-06,   3.99571047E-17,  -6.06273741E-06, ]
- [  8.07761762E-06,  -1.60672044E-16,  -6.06273741E-06, ]
- [  2.37080534E-17,  -2.41769165E-17,  -2.42846530E-06, ]
force_length_stats: {min:   9.03319127E-07, max:   1.00997372E-05, mean:   4.52382389E-06, }
...

 Integrated electronic density in atomic spheres:
[...]
                       7.9282180151E+00  5.2107350026E+00  5.3487115754E+00
                       2.8033216220E+00  5.2107350026E+00  5.3487115753E+00
                       2.0896478256E-12  1.0460142639E-13  7.6114478435E-02
           xangst10    2.6571021835E+00  2.5736549751E+00  2.6540832441E+00
                       7.9713065505E+00  7.7209649254E+00  7.9581102366E+00
                       5.3142043671E+00  7.7279683308E+00  5.3124441885E+00
                       5.3142043671E+00  5.1473099503E+00  2.6525382161E+00
                       5.3142043669E+00  5.1473099502E+00  7.8899454975E+00
                       5.3142043669E+00  2.5666515697E+00  5.3124441886E+00
                       7.8397535471E+00  5.1473099503E+00  5.2865446546E+00
                       2.7886551869E+00  5.1473099502E+00  5.2865446546E+00
                      -2.2444160534E-12 -2.1033756897E-12  7.9561059371E-02
            xcart1     5.4973812133E+00  5.3849486916E+00  5.5228817662E+00
                       1.6492143640E+01  1.6154846075E+01  1.6528173141E+01
                       1.0994762426E+01  1.6611723189E+01  1.1058038588E+01
                       1.0994762426E+01  1.0769897383E+01  5.0451424894E+00
                       1.0994762427E+01  1.0769897383E+01  1.6674193844E+01
                       1.0994762427E+01  4.9280715773E+00  1.1058038588E+01
                       1.6552602993E+01  1.0769897383E+01  1.1019641746E+01
                       5.4369218603E+00  1.0769897383E+01  1.1019641746E+01
                       2.2616446274E-12  8.2805113530E-13  1.1657908793E-01
            xcart2     5.4372313448E+00  5.3318124230E+00  5.4725836892E+00
                       1.6311694034E+01  1.5995437269E+01  1.6373397910E+01
                       1.0874462690E+01  1.6402009058E+01  1.0952529716E+01
                       1.0874462690E+01  1.0663624846E+01  5.0436870470E+00
                       1.0874462690E+01  1.0663624846E+01  1.6477071059E+01
                       1.0874462690E+01  4.9252406344E+00  1.0952529716E+01
                       1.6322758935E+01  1.0663624846E+01  1.0909051087E+01
                       5.4261664446E+00  1.0663624846E+01  1.0909051087E+01
                      -1.4166530483E-12 -1.5596206562E-12  1.1661245308E-01
            xcart3     5.3800296542E+00  5.2751471220E+00  5.4211787427E+00
                       1.6140088963E+01  1.5825441366E+01  1.6218831132E+01
                       1.0760059308E+01  1.6179161490E+01  1.0847580237E+01
                       1.0760059308E+01  1.0550294244E+01  5.0424415264E+00
                       1.0760059308E+01  1.0550294244E+01  1.6285164851E+01
                       1.0760059308E+01  4.9214269974E+00  1.0847580237E+01
                       1.6106142192E+01  1.0550294244E+01  1.0800121347E+01
                       5.4139764250E+00  1.0550294244E+01  1.0800121347E+01
                      -2.0532490104E-12 -1.5968347869E-12  1.1819969842E-01
            xcart4     5.3242433676E+00  5.2196223535E+00  5.3640825625E+00
                       1.5972730103E+01  1.5658867061E+01  1.6053403175E+01
                       1.0648486735E+01  1.5962040618E+01  1.0738239959E+01
                       1.0648486735E+01  1.0439244707E+01  5.0419215511E+00
                       1.0648486735E+01  1.0439244707E+01  1.6086228630E+01
                       1.0648486735E+01  4.9164487963E+00  1.0738239959E+01
                       1.5897271185E+01  1.0439244707E+01  1.0685457866E+01
                       5.3997022854E+00  1.0439244707E+01  1.0685457866E+01
                       1.3492762916E-12  1.8592104267E-13  1.2153332887E-01
            xcart5     5.2701714024E+00  5.1622418657E+00  5.3079156722E+00
                       1.5810514207E+01  1.5486725597E+01  1.5889266466E+01
                       1.0540342805E+01  1.5738947914E+01  1.0627989262E+01
                       1.0540342805E+01  1.0324483731E+01  5.0402305632E+00
                       1.0540342805E+01  1.0324483731E+01  1.5889960251E+01
                       1.0540342805E+01  4.9100195484E+00  1.0627989262E+01
                       1.5697074716E+01  1.0324483731E+01  1.0571240087E+01
                       5.3836108940E+00  1.0324483731E+01  1.0571240087E+01
                       1.7338824860E-12  1.0150510605E-13  1.2497470006E-01
            xcart6     5.2185623934E+00  5.1032284483E+00  5.2523348272E+00
                       1.5655687180E+01  1.5309685345E+01  1.5724127991E+01
                       1.0437124787E+01  1.5510849640E+01  1.0514175922E+01
                       1.0437124787E+01  1.0206456897E+01  5.0367674492E+00
                       1.0437124787E+01  1.0206456897E+01  1.5692453496E+01
                       1.0437124787E+01  4.9020641531E+00  1.0514175922E+01
                       1.5508488155E+01  1.0206456897E+01  1.0456246489E+01
                       5.3657614181E+00  1.0206456897E+01  1.0456246489E+01
                      -1.5234403307E-12  1.5381430814E-13  1.2781672267E-01
            xcart7     5.1692838559E+00  5.0429042302E+00  5.1943594646E+00
                       1.5507851568E+01  1.5128712691E+01  1.5554630793E+01
                       1.0338567712E+01  1.5279336028E+01  1.0397179199E+01
                       1.0338567712E+01  1.0085808461E+01  5.0325395082E+00
                       1.0338567712E+01  1.0085808460E+01  1.5493587179E+01
                       1.0338567712E+01  4.8922808927E+00  1.0397179199E+01
                       1.5331755190E+01  1.0085808461E+01  1.0340516343E+01
                       5.3453802331E+00  1.0085808460E+01  1.0340516343E+01
                      -6.1306679161E-13 -5.7793873948E-13  1.3166259810E-01
            xcart8     5.1189130622E+00  4.9835896255E+00  5.1337667979E+00
                       1.5356739187E+01  1.4950768876E+01  1.5382656999E+01
                       1.0237826125E+01  1.5053860342E+01  1.0280492284E+01
                       1.0237826125E+01  9.9671792511E+00  5.0285634972E+00
                       1.0237826124E+01  9.9671792509E+00  1.5299245254E+01
                       1.0237826124E+01  4.8804981603E+00  1.0280492284E+01
                       1.5152975952E+01  9.9671792511E+00  1.0223814523E+01
                       5.3226762967E+00  9.9671792509E+00  1.0223814523E+01
                      -4.3361641156E-12 -2.2283060614E-12  1.3827544302E-01
            xcart9     5.0699177246E+00  4.9234310530E+00  5.0752761620E+00
                       1.5209753174E+01  1.4770293159E+01  1.5211794025E+01
                       1.0139835449E+01  1.4827190301E+01  1.0160209588E+01
                       1.0139835449E+01  9.8468621060E+00  5.0213994871E+00
                       1.0139835449E+01  9.8468621060E+00  1.5104218451E+01
                       1.0139835449E+01  4.8665339115E+00  1.0160209588E+01
                       1.4982160770E+01  9.8468621060E+00  1.0107600041E+01
                       5.2975101280E+00  9.8468621060E+00  1.0107600041E+01
                       3.9488621045E-12  1.9766804898E-13  1.4383551899E-01
            xcart10    5.0211954339E+00  4.8635030635E+00  5.0154904652E+00
                       1.5063586302E+01  1.4590509191E+01  1.5038648882E+01
                       1.0042390868E+01  1.4603743709E+01  1.0039064613E+01
                       1.0042390868E+01  9.7270061272E+00  5.0125707855E+00
                       1.0042390868E+01  9.7270061269E+00  1.4909836194E+01
                       1.0042390868E+01  4.8502685453E+00  1.0039064613E+01
                       1.4814987153E+01  9.7270061272E+00  9.9901215865E+00
                       5.2697945823E+00  9.7270061269E+00  9.9901215864E+00
                      -4.2413316692E-12 -3.9748040081E-12  1.5034861305E-01
             xred1     2.5091937952E-01  2.5091937952E-01  2.4908062048E-01
                       7.5091937952E-01  7.5091937952E-01  7.4908062048E-01
                       7.7360728661E-01  2.3118560904E-01  7.6881439096E-01
                       2.2921439868E-01  2.2921439868E-01  7.7078560132E-01
                       7.5755349300E-01  7.5755349300E-01  2.4244650700E-01
                       2.3118560904E-01  7.7360728661E-01  2.2639271339E-01
                       2.4790251444E-01  7.5340143753E-01  7.5209748556E-01
                       7.5340143753E-01  2.4790251444E-01  2.4659856247E-01
                       5.2965016538E-03  5.2965016538E-03 -5.2965016538E-03
             xred2     2.5101719828E-01  2.5101719828E-01  2.4898280172E-01
                       7.5101719828E-01  7.5101719828E-01  7.4898280172E-01
                       7.7143558219E-01  2.3330860431E-01  7.6669139569E-01
                       2.3134450991E-01  2.3134450991E-01  7.6865549009E-01
                       7.5577249211E-01  7.5577249211E-01  2.4422750789E-01
                       2.3330860431E-01  7.7143558219E-01  2.2856441781E-01
                       2.4986905350E-01  7.5088656586E-01  7.5013094650E-01
                       7.5088656586E-01  2.4986905350E-01  2.4911343414E-01
                       5.3487955450E-03  5.3487955450E-03 -5.3487955450E-03
             xred3     2.5103506517E-01  2.5103506517E-01  2.4896493483E-01
                       7.5103506517E-01  7.5103506517E-01  7.4896493483E-01
                       7.6907549637E-01  2.3554845756E-01  7.6445154244E-01
                       2.3349712254E-01  2.3349712254E-01  7.6650287746E-01
                       7.5410673835E-01  7.5410673835E-01  2.4589326165E-01
                       2.3554845756E-01  7.6907549637E-01  2.3092450363E-01
                       2.5169177189E-01  7.4853688493E-01  7.4830822811E-01
                       7.4853688493E-01  2.5169177189E-01  2.5146311507E-01
                       5.4733980201E-03  5.4733980201E-03 -5.4733980201E-03
             xred4     2.5090848881E-01  2.5090848881E-01  2.4909151119E-01
                       7.5090848881E-01  7.5090848881E-01  7.4909151119E-01
                       7.6680909152E-01  2.3776737771E-01  7.6223262229E-01
                       2.3583919568E-01  2.3583919568E-01  7.6416080432E-01
                       7.5244392108E-01  7.5244392108E-01  2.4755607892E-01
                       2.3776737771E-01  7.6680909152E-01  2.3319090848E-01
                       2.5336249316E-01  7.4627614186E-01  7.4663750684E-01
                       7.4627614186E-01  2.5336249316E-01  2.5372385814E-01
                       5.6848013675E-03  5.6848013675E-03 -5.6848013675E-03
             xred5     2.5081465380E-01  2.5081465380E-01  2.4918534620E-01
                       7.5081465380E-01  7.5081465380E-01  7.4918534620E-01
                       7.6441857160E-01  2.3998903848E-01  7.6001096152E-01
                       2.3816574374E-01  2.3816574374E-01  7.6183425626E-01
                       7.5084743718E-01  7.5084743718E-01  2.4915256282E-01
                       2.3998903848E-01  7.6441857160E-01  2.3558142840E-01
                       2.5490344434E-01  7.4414103427E-01  7.4509655566E-01
                       7.4414103427E-01  2.5490344434E-01  2.5585896573E-01
                       5.9054227808E-03  5.9054227808E-03 -5.9054227808E-03
             xred6     2.5078488207E-01  2.5078488207E-01  2.4921511793E-01
                       7.5078488207E-01  7.5078488207E-01  7.4921511793E-01
                       7.6187841941E-01  2.4216890638E-01  7.5783109362E-01
                       2.4049211871E-01  2.4049211871E-01  7.5950788129E-01
                       7.4927251003E-01  7.4927251003E-01  2.5072748997E-01
                       2.4216890638E-01  7.6187841941E-01  2.3812158059E-01
                       2.5630939183E-01  7.4220598426E-01  7.4369060817E-01
                       7.4220598426E-01  2.5630939183E-01  2.5779401574E-01
                       6.1029052366E-03  6.1029052366E-03 -6.1029052366E-03
             xred7     2.5068645887E-01  2.5068645887E-01  2.4931354113E-01
                       7.5068645887E-01  7.5068645887E-01  7.4931354113E-01
                       7.5924831414E-01  2.4431412834E-01  7.5568587166E-01
                       2.4287681995E-01  2.4287681995E-01  7.5712318005E-01
                       7.4774041567E-01  7.4774041567E-01  2.5225958433E-01
                       2.4431412834E-01  7.5924831414E-01  2.4075168586E-01
                       2.5756307743E-01  7.4053012063E-01  7.4243692257E-01
                       7.4053012063E-01  2.5756307743E-01  2.5946987937E-01
                       6.3542060786E-03  6.3542060786E-03 -6.3542060786E-03
             xred8     2.5045476619E-01  2.5045476619E-01  2.4954523381E-01
                       7.5045476619E-01  7.5045476619E-01  7.4954523381E-01
                       7.5671327864E-01  2.4637018531E-01  7.5362981469E-01
                       2.4532234216E-01  2.4532234216E-01  7.5467765784E-01
                       7.4638546002E-01  7.4638546002E-01  2.5361453998E-01
                       2.4637018531E-01  7.5671327864E-01  2.4328672136E-01
                       2.5872815307E-01  7.3882517445E-01  7.4127184693E-01
                       7.3882517445E-01  2.5872815307E-01  2.6117482555E-01
                       6.7458739585E-03  6.7458739585E-03 -6.7458739585E-03
             xred9     2.5034613615E-01  2.5034613615E-01  2.4965386385E-01
                       7.5034613615E-01  7.5034613615E-01  7.4965386385E-01
                       7.5405773250E-01  2.4827953221E-01  7.5172046779E-01
                       2.4768858276E-01  2.4768858276E-01  7.5231141724E-01
                       7.4503979843E-01  7.4503979843E-01  2.5496020157E-01
                       2.4827953221E-01  7.5405773250E-01  2.4594226750E-01
                       2.5979626929E-01  7.3735089485E-01  7.4020373071E-01
                       7.3735089485E-01  2.5979626929E-01  2.6264910515E-01
                       7.0949176500E-03  7.0949176500E-03 -7.0949176500E-03
             xred10    2.5019511098E-01  2.5019511098E-01  2.4980488902E-01
                       7.5019511098E-01  7.5019511098E-01  7.4980488902E-01
                       7.5147376983E-01  2.5011317459E-01  7.4988682541E-01
                       2.5004946429E-01  2.5004946429E-01  7.4995053571E-01
                       7.4376935757E-01  7.4376935757E-01  2.5623064243E-01
                       2.5011317459E-01  7.5147376983E-01  2.4852623017E-01
                       2.6072946320E-01  7.3597448685E-01  7.3927053680E-01
                       7.3597448685E-01  2.6072946320E-01  2.6402551315E-01
                       7.5000616968E-03  7.5000616968E-03 -7.5000616968E-03
            znucl       55.00000   53.00000   72.00000   35.00000

================================================================================


- Timing analysis has been suppressed with timopt=0



================================================================================

 Suggested references for the acknowledgment of ABINIT usage.

 The users of ABINIT have little formal obligations with respect to the ABINIT group
 (those specified in the GNU General Public License, http://www.gnu.org/copyleft/gpl.txt).
 However, it is common practice in the scientific literature,
 to acknowledge the efforts of people that have made the research possible.
 In this spirit, please find below suggested citations of work written by ABINIT developers,
 corresponding to implementations inside of ABINIT that you have used in the present run.
 Note also that it will be of great value to readers of publications presenting these results,
 to read papers enabling them to understand the theoretical formalism and details
 of the ABINIT implementation.
 For information on why they are suggested, see also https://docs.abinit.org/theory/acknowledgments.
-
- [1] Implementation of the Projector Augmented-Wave Method in the ABINIT code.
- M. Torrent, F. Jollet, F. Bottin, G. Zerah, and X. Gonze Comput. Mat. Science 42, 337, (2008).
- Comment: PAW calculations. Strong suggestion to cite this paper.
- DOI and bibtex: see https://docs.abinit.org/theory/bibliography/#torrent2008
-
- [2] Libxc: A library of exchange and correlation functionals for density functional theory.
- M.A.L. Marques, M.J.T. Oliveira, T. Burnus, Computer Physics Communications 183, 2227 (2012).
- Comment: to be cited when LibXC is used (negative value of ixc)
- Strong suggestion to cite this paper.
- DOI and bibtex: see https://docs.abinit.org/theory/bibliography/#marques2012
-
- [3] The Abinit project: Impact, environment and recent developments.
- Computer Phys. Comm. 248, 107042 (2020).
- X.Gonze, B. Amadon, G. Antonius, F.Arnardi, L.Baguet, J.-M.Beuken,
- J.Bieder, F.Bottin, J.Bouchet, E.Bousquet, N.Brouwer, F.Bruneval,
- G.Brunin, T.Cavignac, J.-B. Charraud, Wei Chen, M.Cote, S.Cottenier,
- J.Denier, G.Geneste, Ph.Ghosez, M.Giantomassi, Y.Gillet, O.Gingras,
- D.R.Hamann, G.Hautier, Xu He, N.Helbig, N.Holzwarth, Y.Jia, F.Jollet,
- W.Lafargue-Dit-Hauret, K.Lejaeghere, M.A.L.Marques, A.Martin, C.Martins,
- H.P.C. Miranda, F.Naccarato, K. Persson, G.Petretto, V.Planes, Y.Pouillon,
- S.Prokhorenko, F.Ricci, G.-M.Rignanese, A.H.Romero, M.M.Schmitt, M.Torrent,
- M.J.van Setten, B.Van Troeye, M.J.Verstraete, G.Zerah and J.W.Zwanzig
- Comment: the fifth generic paper describing the ABINIT project.
- Note that a version of this paper, that is not formatted for Computer Phys. Comm. 
- is available at https://www.abinit.org/sites/default/files/ABINIT20.pdf .
- The licence allows the authors to put it on the Web.
- DOI and bibtex: see https://docs.abinit.org/theory/bibliography/#gonze2020
-
- [4] ABINIT: Overview, and focus on selected capabilities
- J. Chem. Phys. 152, 124102 (2020).
- A. Romero, D.C. Allan, B. Amadon, G. Antonius, T. Applencourt, L.Baguet,
- J.Bieder, F.Bottin, J.Bouchet, E.Bousquet, F.Bruneval,
- G.Brunin, D.Caliste, M.Cote,
- J.Denier, C. Dreyer, Ph.Ghosez, M.Giantomassi, Y.Gillet, O.Gingras,
- D.R.Hamann, G.Hautier, F.Jollet, G. Jomard,
- A.Martin, 
- H.P.C. Miranda, F.Naccarato, G.Petretto, N.A. Pike, V.Planes,
- S.Prokhorenko, T. Rangel, F.Ricci, G.-M.Rignanese, M.Royo, M.Stengel, M.Torrent,
- M.J.van Setten, B.Van Troeye, M.J.Verstraete, J.Wiktor, J.W.Zwanziger, and X.Gonze.
- Comment: a global overview of ABINIT, with focus on selected capabilities .
- Note that a version of this paper, that is not formatted for J. Chem. Phys 
- is available at https://www.abinit.org/sites/default/files/ABINIT20_JPC.pdf .
- The licence allows the authors to put it on the Web.
- DOI and bibtex: see https://docs.abinit.org/theory/bibliography/#romero2020
-
- [5] Recent developments in the ABINIT software package.
- Computer Phys. Comm. 205, 106 (2016).
- X.Gonze, F.Jollet, F.Abreu Araujo, D.Adams, B.Amadon, T.Applencourt,
- C.Audouze, J.-M.Beuken, J.Bieder, A.Bokhanchuk, E.Bousquet, F.Bruneval
- D.Caliste, M.Cote, F.Dahm, F.Da Pieve, M.Delaveau, M.Di Gennaro,
- B.Dorado, C.Espejo, G.Geneste, L.Genovese, A.Gerossier, M.Giantomassi,
- Y.Gillet, D.R.Hamann, L.He, G.Jomard, J.Laflamme Janssen, S.Le Roux,
- A.Levitt, A.Lherbier, F.Liu, I.Lukacevic, A.Martin, C.Martins,
- M.J.T.Oliveira, S.Ponce, Y.Pouillon, T.Rangel, G.-M.Rignanese,
- A.H.Romero, B.Rousseau, O.Rubel, A.A.Shukri, M.Stankovski, M.Torrent,
- M.J.Van Setten, B.Van Troeye, M.J.Verstraete, D.Waroquier, J.Wiktor,
- B.Xu, A.Zhou, J.W.Zwanziger.
- Comment: the fourth generic paper describing the ABINIT project.
- Note that a version of this paper, that is not formatted for Computer Phys. Comm. 
- is available at https://www.abinit.org/sites/default/files/ABINIT16.pdf .
- The licence allows the authors to put it on the Web.
- DOI and bibtex: see https://docs.abinit.org/theory/bibliography/#gonze2016
-
- Proc.   0 individual time (sec): cpu=      12281.3  wall=      12281.3

================================================================================

 Calculation completed.
.Delivered   0 WARNINGs and   5 COMMENTs to log file.
+Overall time at end (sec) : cpu=      73687.4  wall=      73687.9
