
.Version 9.2.2 of ABINIT 
.(MPI version, prepared for a x86_64_linux_gnu9.3 computer) 

.Copyright (C) 1998-2020 ABINIT group . 
 ABINIT comes with ABSOLUTELY NO WARRANTY.
 It is free software, and you are welcome to redistribute it
 under certain conditions (GNU General Public License,
 see ~abinit/COPYING or http://www.gnu.org/copyleft/gpl.txt).

 ABINIT is a project of the Universite Catholique de Louvain,
 Corning Inc. and other collaborators, see ~abinit/doc/developers/contributors.txt .
 Please read https://docs.abinit.org/theory/acknowledgments for suggested
 acknowledgments of the ABINIT effort.
 For more information, see https://www.abinit.org .

.Starting date : Sun 20 Nov 2022.
- ( at 09h05 )
  
- input  file    -> Cs2TiI6.in
- output file    -> Cs2TiI6.out
- root for input  files -> Cs2TiI6i
- root for output files -> Cs2TiI6o

- inpspheads : Reading pseudopotential header in XML form from 
-   ../../../Psps_for_tests/ATOMICDATA/Cs.GGA_PBE-JTH.xml
- inpspheads : Reading pseudopotential header in XML form from 
-   ../../../Psps_for_tests/ATOMICDATA/I.GGA_PBE-JTH.xml
- inpspheads : Reading pseudopotential header in XML form from 
-   ../../../Psps_for_tests/ATOMICDATA/Hf.GGA_PBE-JTH.xml
- inpspheads : Reading pseudopotential header in XML form from 
-   ../../../Psps_for_tests/ATOMICDATA/Br.GGA_PBE-JTH.xml

 DATASET    1 : space group Fm m 2 (# 42); Bravais oF (face-center ortho.)
================================================================================
 Values of the parameters that define the memory need for DATASET  1.
     intxc =       0    ionmov =       2      iscf =      17    lmnmax =      18
     lnmax =       6     mgfft =      64  mpssoang =       3    mqgrid =    3959
     natom =       9  nloc_mem =       2    nspden =       1   nspinor =       1
    nsppol =       1      nsym =       4    n1xccc =       1    ntypat =       4
    occopt =       1   xclevel =       2
-    mband =          42        mffmem =           1         mkmem =           6
       mpw =       10710          nfft =      262144          nkpt =          32
Pmy_natom=         2
 PAW method is used; the additional fine FFT grid is defined by:
   mgfftf=       100    nfftf =   1000000
================================================================================
P This job should need less than                     346.472 Mbytes of memory.
  Rough estimation (10% accuracy) of disk space for files :
_ WF disk file :    219.641 Mbytes ; DEN or POT disk file :      7.631 Mbytes.
================================================================================


 DATASET    2 : space group Fm m 2 (# 42); Bravais oF (face-center ortho.)
================================================================================
 Values of the parameters that define the memory need for DATASET  2.
     intxc =       0    ionmov =       2      iscf =      17    lmnmax =      18
     lnmax =       6     mgfft =      64  mpssoang =       3    mqgrid =    3955
     natom =       9  nloc_mem =       2    nspden =       1   nspinor =       1
    nsppol =       1      nsym =       4    n1xccc =       1    ntypat =       4
    occopt =       1   xclevel =       2
-    mband =          42        mffmem =           1         mkmem =           6
       mpw =       10678          nfft =      262144          nkpt =          32
Pmy_natom=         2
 PAW method is used; the additional fine FFT grid is defined by:
   mgfftf=       100    nfftf =   1000000
================================================================================
P This job should need less than                     346.404 Mbytes of memory.
  Rough estimation (10% accuracy) of disk space for files :
_ WF disk file :    218.984 Mbytes ; DEN or POT disk file :      7.631 Mbytes.
================================================================================


 DATASET    3 : space group Fm m 2 (# 42); Bravais oF (face-center ortho.)
================================================================================
 Values of the parameters that define the memory need for DATASET  3.
     intxc =       0    ionmov =       2      iscf =      17    lmnmax =      18
     lnmax =       6     mgfft =      64  mpssoang =       3    mqgrid =    3951
     natom =       9  nloc_mem =       2    nspden =       1   nspinor =       1
    nsppol =       1      nsym =       4    n1xccc =       1    ntypat =       4
    occopt =       1   xclevel =       2
-    mband =          42        mffmem =           1         mkmem =           6
       mpw =       10628          nfft =      262144          nkpt =          32
Pmy_natom=         2
 PAW method is used; the additional fine FFT grid is defined by:
   mgfftf=       100    nfftf =   1000000
================================================================================
P This job should need less than                     346.257 Mbytes of memory.
  Rough estimation (10% accuracy) of disk space for files :
_ WF disk file :    217.959 Mbytes ; DEN or POT disk file :      7.631 Mbytes.
================================================================================


 DATASET    4 : space group Fm m 2 (# 42); Bravais oF (face-center ortho.)
================================================================================
 Values of the parameters that define the memory need for DATASET  4.
     intxc =       0    ionmov =       2      iscf =      17    lmnmax =      18
     lnmax =       6     mgfft =      64  mpssoang =       3    mqgrid =    3947
     natom =       9  nloc_mem =       2    nspden =       1   nspinor =       1
    nsppol =       1      nsym =       4    n1xccc =       1    ntypat =       4
    occopt =       1   xclevel =       2
-    mband =          42        mffmem =           1         mkmem =           6
       mpw =       10596          nfft =      262144          nkpt =          32
Pmy_natom=         2
 PAW method is used; the additional fine FFT grid is defined by:
   mgfftf=       100    nfftf =   1000000
================================================================================
P This job should need less than                     346.187 Mbytes of memory.
  Rough estimation (10% accuracy) of disk space for files :
_ WF disk file :    217.303 Mbytes ; DEN or POT disk file :      7.631 Mbytes.
================================================================================


 DATASET    5 : space group Fm m 2 (# 42); Bravais oF (face-center ortho.)
================================================================================
 Values of the parameters that define the memory need for DATASET  5.
     intxc =       0    ionmov =       2      iscf =      17    lmnmax =      18
     lnmax =       6     mgfft =      64  mpssoang =       3    mqgrid =    3943
     natom =       9  nloc_mem =       2    nspden =       1   nspinor =       1
    nsppol =       1      nsym =       4    n1xccc =       1    ntypat =       4
    occopt =       1   xclevel =       2
-    mband =          42        mffmem =           1         mkmem =           6
       mpw =       10569          nfft =      262144          nkpt =          32
Pmy_natom=         2
 PAW method is used; the additional fine FFT grid is defined by:
   mgfftf=       100    nfftf =   1000000
================================================================================
P This job should need less than                     346.140 Mbytes of memory.
  Rough estimation (10% accuracy) of disk space for files :
_ WF disk file :    216.749 Mbytes ; DEN or POT disk file :      7.631 Mbytes.
================================================================================


 DATASET    6 : space group Fm m 2 (# 42); Bravais oF (face-center ortho.)
================================================================================
 Values of the parameters that define the memory need for DATASET  6.
     intxc =       0    ionmov =       2      iscf =      17    lmnmax =      18
     lnmax =       6     mgfft =      64  mpssoang =       3    mqgrid =    3939
     natom =       9  nloc_mem =       2    nspden =       1   nspinor =       1
    nsppol =       1      nsym =       4    n1xccc =       1    ntypat =       4
    occopt =       1   xclevel =       2
-    mband =          42        mffmem =           1         mkmem =           6
       mpw =       10535          nfft =      262144          nkpt =          32
Pmy_natom=         2
 PAW method is used; the additional fine FFT grid is defined by:
   mgfftf=       100    nfftf =   1000000
================================================================================
P This job should need less than                     346.064 Mbytes of memory.
  Rough estimation (10% accuracy) of disk space for files :
_ WF disk file :    216.052 Mbytes ; DEN or POT disk file :      7.631 Mbytes.
================================================================================


 DATASET    7 : space group Fm m 2 (# 42); Bravais oF (face-center ortho.)
================================================================================
 Values of the parameters that define the memory need for DATASET  7.
     intxc =       0    ionmov =       2      iscf =      17    lmnmax =      18
     lnmax =       6     mgfft =      64  mpssoang =       3    mqgrid =    3935
     natom =       9  nloc_mem =       2    nspden =       1   nspinor =       1
    nsppol =       1      nsym =       4    n1xccc =       1    ntypat =       4
    occopt =       1   xclevel =       2
-    mband =          42        mffmem =           1         mkmem =           6
       mpw =       10504          nfft =      262144          nkpt =          32
Pmy_natom=         2
 PAW method is used; the additional fine FFT grid is defined by:
   mgfftf=       100    nfftf =   1000000
================================================================================
P This job should need less than                     346.000 Mbytes of memory.
  Rough estimation (10% accuracy) of disk space for files :
_ WF disk file :    215.416 Mbytes ; DEN or POT disk file :      7.631 Mbytes.
================================================================================


 DATASET    8 : space group Fm m 2 (# 42); Bravais oF (face-center ortho.)
================================================================================
 Values of the parameters that define the memory need for DATASET  8.
     intxc =       0    ionmov =       2      iscf =      17    lmnmax =      18
     lnmax =       6     mgfft =      64  mpssoang =       3    mqgrid =    3931
     natom =       9  nloc_mem =       2    nspden =       1   nspinor =       1
    nsppol =       1      nsym =       4    n1xccc =       1    ntypat =       4
    occopt =       1   xclevel =       2
-    mband =          42        mffmem =           1         mkmem =           6
       mpw =       10473          nfft =      262144          nkpt =          32
Pmy_natom=         2
 PAW method is used; the additional fine FFT grid is defined by:
   mgfftf=       100    nfftf =   1000000
================================================================================
P This job should need less than                     345.936 Mbytes of memory.
  Rough estimation (10% accuracy) of disk space for files :
_ WF disk file :    214.780 Mbytes ; DEN or POT disk file :      7.631 Mbytes.
================================================================================


 DATASET    9 : space group Fm m 2 (# 42); Bravais oF (face-center ortho.)
================================================================================
 Values of the parameters that define the memory need for DATASET  9.
     intxc =       0    ionmov =       2      iscf =      17    lmnmax =      18
     lnmax =       6     mgfft =      64  mpssoang =       3    mqgrid =    3927
     natom =       9  nloc_mem =       2    nspden =       1   nspinor =       1
    nsppol =       1      nsym =       4    n1xccc =       1    ntypat =       4
    occopt =       1   xclevel =       2
-    mband =          42        mffmem =           1         mkmem =           6
       mpw =       10437          nfft =      262144          nkpt =          32
Pmy_natom=         2
 PAW method is used; the additional fine FFT grid is defined by:
   mgfftf=       100    nfftf =   1000000
================================================================================
P This job should need less than                     345.852 Mbytes of memory.
  Rough estimation (10% accuracy) of disk space for files :
_ WF disk file :    214.042 Mbytes ; DEN or POT disk file :      7.631 Mbytes.
================================================================================


 DATASET   10 : space group Fm m 2 (# 42); Bravais oF (face-center ortho.)
================================================================================
 Values of the parameters that define the memory need for DATASET 10.
     intxc =       0    ionmov =       2      iscf =      17    lmnmax =      18
     lnmax =       6     mgfft =      64  mpssoang =       3    mqgrid =    3923
     natom =       9  nloc_mem =       2    nspden =       1   nspinor =       1
    nsppol =       1      nsym =       4    n1xccc =       1    ntypat =       4
    occopt =       1   xclevel =       2
-    mband =          42        mffmem =           1         mkmem =           6
       mpw =       10412          nfft =      262144          nkpt =          32
Pmy_natom=         2
 PAW method is used; the additional fine FFT grid is defined by:
   mgfftf=       100    nfftf =   1000000
================================================================================
P This job should need less than                     345.814 Mbytes of memory.
  Rough estimation (10% accuracy) of disk space for files :
_ WF disk file :    213.529 Mbytes ; DEN or POT disk file :      7.631 Mbytes.
================================================================================

--------------------------------------------------------------------------------
------------- Echo of variables that govern the present computation ------------
--------------------------------------------------------------------------------
-
- outvars: echo of selected default values                                      
-   iomode0 =  0 , fftalg0 =112 , wfoptalg0 = 10
-
- outvars: echo of global parameters not present in the input file              
-  max_nthreads =    0
-
 -outvars: echo values of preprocessed input variables --------
            acell1     1.4768989390E+01  1.4920385602E+01  1.4739695413E+01 Bohr
            acell2     1.4754205617E+01  1.4905450281E+01  1.4724940963E+01 Bohr
            acell3     1.4739421844E+01  1.4890514960E+01  1.4710186513E+01 Bohr
            acell4     1.4724638070E+01  1.4875579639E+01  1.4695432064E+01 Bohr
            acell5     1.4709854297E+01  1.4860644318E+01  1.4680677614E+01 Bohr
            acell6     1.4695070524E+01  1.4845708997E+01  1.4665923164E+01 Bohr
            acell7     1.4680286751E+01  1.4830773677E+01  1.4651168714E+01 Bohr
            acell8     1.4665502978E+01  1.4815838356E+01  1.4636414264E+01 Bohr
            acell9     1.4650719205E+01  1.4800903035E+01  1.4621659814E+01 Bohr
            acell10    1.4635935431E+01  1.4785967714E+01  1.4606905364E+01 Bohr
              amu      1.32905430E+02  1.26904470E+02  1.78490000E+02
                       7.99040000E+01
           diemac      1.20000000E+01
          dilatmx      1.15000000E+00
             ecut      1.60000000E+01 Hartree
           ecutsm      5.00000000E-01 Hartree
-          fftalg         112
          getxred1          0
          getxred2         -1
          getxred3         -1
          getxred4         -1
          getxred5         -1
          getxred6         -1
          getxred7         -1
          getxred8         -1
          getxred9         -1
          getxred10        -1
           ionmov           2
              ixc     -101130
           jdtset        1    2    3    4    5    6    7    8    9   10
              kpt      0.00000000E+00 -1.25000000E-01  0.00000000E+00
                       0.00000000E+00 -3.75000000E-01  0.00000000E+00
                       1.25000000E-01 -2.50000000E-01  0.00000000E+00
                       0.00000000E+00 -2.50000000E-01  1.25000000E-01
                       1.25000000E-01 -1.25000000E-01  1.25000000E-01
                       1.25000000E-01  5.00000000E-01  0.00000000E+00
                       2.50000000E-01 -3.75000000E-01  0.00000000E+00
                       0.00000000E+00  5.00000000E-01  1.25000000E-01
                       1.25000000E-01 -3.75000000E-01  1.25000000E-01
                       2.50000000E-01 -2.50000000E-01  1.25000000E-01
                       0.00000000E+00 -3.75000000E-01  2.50000000E-01
                       1.25000000E-01 -2.50000000E-01  2.50000000E-01
                       2.50000000E-01 -1.25000000E-01  2.50000000E-01
                       1.25000000E-01  2.50000000E-01  0.00000000E+00
                       2.50000000E-01  3.75000000E-01  0.00000000E+00
                       3.75000000E-01  5.00000000E-01  0.00000000E+00
                       0.00000000E+00  2.50000000E-01  1.25000000E-01
                       1.25000000E-01  3.75000000E-01  1.25000000E-01
                       2.50000000E-01  5.00000000E-01  1.25000000E-01
                       3.75000000E-01 -3.75000000E-01  1.25000000E-01
                       0.00000000E+00  3.75000000E-01  2.50000000E-01
                       1.25000000E-01  5.00000000E-01  2.50000000E-01
                       2.50000000E-01 -3.75000000E-01  2.50000000E-01
                       3.75000000E-01 -2.50000000E-01  2.50000000E-01
                       0.00000000E+00  5.00000000E-01  3.75000000E-01
                       1.25000000E-01 -3.75000000E-01  3.75000000E-01
                       2.50000000E-01 -2.50000000E-01  3.75000000E-01
                       3.75000000E-01 -1.25000000E-01  3.75000000E-01
                       5.00000000E-01  2.50000000E-01  1.25000000E-01
                      -3.75000000E-01  3.75000000E-01  1.25000000E-01
                       1.25000000E-01  2.50000000E-01  5.00000000E-01
                       1.25000000E-01  3.75000000E-01 -3.75000000E-01
         kptrlatt        4    4   -4     -4    4    4      4   -4    4
          kptrlen1     8.25132740E+01
          kptrlen2     8.24306781E+01
          kptrlen3     8.23480822E+01
          kptrlen4     8.22654864E+01
          kptrlen5     8.21828905E+01
          kptrlen6     8.21002946E+01
          kptrlen7     8.20176988E+01
          kptrlen8     8.19351029E+01
          kptrlen9     8.18525070E+01
          kptrlen10    8.17699112E+01
P           mkmem           6
            natom           9
            nband          42
           ndtset          10
            ngfft          64      64      64
          ngfftdg         100     100     100
             nkpt          32
            nstep          50
             nsym           4
            ntime        1000
           ntypat           4
              occ      2.000000  2.000000  2.000000  2.000000  2.000000  2.000000
                       2.000000  2.000000  2.000000  2.000000  2.000000  2.000000
                       2.000000  2.000000  2.000000  2.000000  2.000000  2.000000
                       2.000000  2.000000  2.000000  2.000000  2.000000  2.000000
                       2.000000  2.000000  2.000000  2.000000  2.000000  2.000000
                       2.000000  2.000000  2.000000  2.000000  2.000000  2.000000
                       0.000000  0.000000  0.000000  0.000000  0.000000  0.000000
          optcell           3
        optforces           1
        pawecutdg      4.00000000E+01 Hartree
            prtwf           0
            rprim      0.0000000000E+00  6.9836594606E-01  7.1574087866E-01
                       7.0573259586E-01  0.0000000000E+00  7.0847830111E-01
                       7.1438399280E-01  6.9975389304E-01  0.0000000000E+00
           shiftk     -5.00000000E-01  5.00000000E-01  5.00000000E-01
          spgroup          42
           symrel      1  0  0   0  1  0   0  0  1       0  1 -1   1  0 -1   0  0 -1
                       1  0  0   1  0 -1   1 -1  0       0  1 -1   0  1  0  -1  1  0
           toldff      1.00000000E-08
           tolmxf      1.00000000E-05
            typat      1  1  4  4  2  4  2  2  3
           useylm           1
              wtk        0.03125    0.03125    0.03125    0.03125    0.03125    0.03125
                         0.03125    0.03125    0.03125    0.03125    0.03125    0.03125
                         0.03125    0.03125    0.03125    0.03125    0.03125    0.03125
                         0.03125    0.03125    0.03125    0.03125    0.03125    0.03125
                         0.03125    0.03125    0.03125    0.03125    0.03125    0.03125
                         0.03125    0.03125
           xangst1     2.7860657369E+00  2.7290089998E+00  2.8060191708E+00
                       8.3581972108E+00  8.1870269994E+00  8.3998294373E+00
                       5.5721314738E+00  8.3203638309E+00  5.6184656010E+00
                       5.5721314738E+00  5.4580179996E+00  2.6645079649E+00
                       5.5721314739E+00  5.4580179996E+00  8.4001962054E+00
                       5.5721314739E+00  2.5956721683E+00  5.6184656011E+00
                       8.2982276469E+00  5.4580179996E+00  5.5884652612E+00
                       2.8460353008E+00  5.4580179996E+00  5.5884652611E+00
                       9.1660680133E-13  5.3657902779E-14  6.6067629159E-02
           xangst2     2.7832768823E+00  2.7262772591E+00  2.8032103428E+00
                       8.3498306470E+00  8.1788317772E+00  8.3914211997E+00
                       5.5665537646E+00  8.3120351383E+00  5.6128415113E+00
                       5.5665537646E+00  5.4525545181E+00  2.6618407898E+00
                       5.5665537647E+00  5.4525545181E+00  8.3917876006E+00
                       5.5665537647E+00  2.5930738979E+00  5.6128415114E+00
                       8.2899211127E+00  5.4525545181E+00  5.5828712019E+00
                       2.8431864166E+00  5.4525545181E+00  5.5828712018E+00
                       9.1569907556E-13  5.3614511834E-14  6.6001495396E-02
           xangst3     2.7804880278E+00  2.7235455183E+00  2.8004015148E+00
                       8.3414640833E+00  8.1706365549E+00  8.3830129620E+00
                       5.5609760555E+00  8.3037064458E+00  5.6072174216E+00
                       5.5609760555E+00  5.4470910366E+00  2.6591736146E+00
                       5.5609760555E+00  5.4470910366E+00  8.3833789957E+00
                       5.5609760555E+00  2.5904756274E+00  5.6072174217E+00
                       8.2816145786E+00  5.4470910366E+00  5.5772771426E+00
                       2.8403375324E+00  5.4470910366E+00  5.5772771425E+00
                       9.1477730336E-13  5.3560845148E-14  6.5935361633E-02
           xangst4     2.7776991732E+00  2.7208137776E+00  2.7975926868E+00
                       8.3330975195E+00  8.1624413327E+00  8.3746047243E+00
                       5.5553983463E+00  8.2953777533E+00  5.6015933319E+00
                       5.5553983463E+00  5.4416275551E+00  2.6565064395E+00
                       5.5553983464E+00  5.4416275551E+00  8.3749703909E+00
                       5.5553983464E+00  2.5878773570E+00  5.6015933320E+00
                       8.2733080444E+00  5.4416275551E+00  5.5716830833E+00
                       2.8374886483E+00  5.4416275551E+00  5.5716830831E+00
                       9.1386150601E-13  5.3498268136E-14  6.5869227870E-02
           xangst5     2.7749103186E+00  2.7180820368E+00  2.7947838588E+00
                       8.3247309557E+00  8.1542461105E+00  8.3661964866E+00
                       5.5498206371E+00  8.2870490608E+00  5.5959692422E+00
                       5.5498206371E+00  5.4361640737E+00  2.6538392644E+00
                       5.5498206372E+00  5.4361640737E+00  8.3665617861E+00
                       5.5498206372E+00  2.5852790865E+00  5.5959692423E+00
                       8.2650015102E+00  5.4361640737E+00  5.5660890239E+00
                       2.8346397641E+00  5.4361640737E+00  5.5660890238E+00
                       9.1294634986E-13  5.3440103003E-14  6.5803094107E-02
           xangst6     2.7721214640E+00  2.7153502961E+00  2.7919750308E+00
                       8.3163643919E+00  8.1460508883E+00  8.3577882490E+00
                       5.5442429279E+00  8.2787203683E+00  5.5903451525E+00
                       5.5442429279E+00  5.4307005922E+00  2.6511720892E+00
                       5.5442429280E+00  5.4307005922E+00  8.3581531813E+00
                       5.5442429280E+00  2.5826808161E+00  5.5903451526E+00
                       8.2566949760E+00  5.4307005922E+00  5.5604949646E+00
                       2.8317908799E+00  5.4307005922E+00  5.5604949645E+00
                       9.1201838533E-13  5.3393040153E-14  6.5736960344E-02
           xangst7     2.7693326094E+00  2.7126185553E+00  2.7891662028E+00
                       8.3079978282E+00  8.1378556660E+00  8.3493800113E+00
                       5.5386652187E+00  8.2703916757E+00  5.5847210628E+00
                       5.5386652187E+00  5.4252371107E+00  2.6485049141E+00
                       5.5386652188E+00  5.4252371107E+00  8.3497445765E+00
                       5.5386652188E+00  2.5800825457E+00  5.5847210629E+00
                       8.2483884418E+00  5.4252371107E+00  5.5549009053E+00
                       2.8289419957E+00  5.4252371107E+00  5.5549009052E+00
                       9.1110878032E-13  5.3340426161E-14  6.5670826581E-02
           xangst8     2.7665437548E+00  2.7098868146E+00  2.7863573748E+00
                       8.2996312644E+00  8.1296604438E+00  8.3409717736E+00
                       5.5330875095E+00  8.2620629832E+00  5.5790969731E+00
                       5.5330875095E+00  5.4197736292E+00  2.6458377389E+00
                       5.5330875096E+00  5.4197736292E+00  8.3413359717E+00
                       5.5330875096E+00  2.5774842752E+00  5.5790969733E+00
                       8.2400819076E+00  5.4197736292E+00  5.5493068460E+00
                       2.8260931115E+00  5.4197736292E+00  5.5493068458E+00
                       9.1019183150E-13  5.3284140265E-14  6.5604692818E-02
           xangst9     2.7637549002E+00  2.7071550739E+00  2.7835485468E+00
                       8.2912647006E+00  8.1214652216E+00  8.3325635359E+00
                       5.5275098004E+00  8.2537342907E+00  5.5734728834E+00
                       5.5275098004E+00  5.4143101477E+00  2.6431705638E+00
                       5.5275098004E+00  5.4143101477E+00  8.3329273669E+00
                       5.5275098004E+00  2.5748860048E+00  5.5734728836E+00
                       8.2317753735E+00  5.4143101477E+00  5.5437127866E+00
                       2.8232442273E+00  5.4143101477E+00  5.5437127865E+00
                       9.0927008833E-13  5.3230502012E-14  6.5538559055E-02
           xangst10    2.7609660456E+00  2.7044233331E+00  2.7807397188E+00
                       8.2828981368E+00  8.1132699994E+00  8.3241552983E+00
                       5.5219320912E+00  8.2454055982E+00  5.5678487937E+00
                       5.5219320912E+00  5.4088466663E+00  2.6405033887E+00
                       5.5219320913E+00  5.4088466663E+00  8.3245187621E+00
                       5.5219320913E+00  2.5722877344E+00  5.5678487939E+00
                       8.2234688393E+00  5.4088466663E+00  5.5381187273E+00
                       2.8203953432E+00  5.4088466663E+00  5.5381187272E+00
                       9.0835981310E-13  5.3178912281E-14  6.5472425292E-02
            xcart1     5.2649012310E+00  5.1570796238E+00  5.3026077565E+00
                       1.5794703693E+01  1.5471238871E+01  1.5873377200E+01
                       1.0529802462E+01  1.5723208966E+01  1.0617361273E+01
                       1.0529802462E+01  1.0314159248E+01  5.0351903326E+00
                       1.0529802462E+01  1.0314159248E+01  1.5874070291E+01
                       1.0529802462E+01  4.9051095288E+00  1.0617361273E+01
                       1.5681377641E+01  1.0314159248E+01  1.0560668847E+01
                       5.3782272831E+00  1.0314159248E+01  1.0560668847E+01
                       1.7321358261E-12  1.0139874112E-13  1.2484972536E-01
            xcart2     5.2596310596E+00  5.1519173819E+00  5.2972998408E+00
                       1.5778893179E+01  1.5455752146E+01  1.5857487933E+01
                       1.0519262119E+01  1.5707470018E+01  1.0606733284E+01
                       1.0519262119E+01  1.0303834764E+01  5.0301501020E+00
                       1.0519262119E+01  1.0303834764E+01  1.5858180330E+01
                       1.0519262119E+01  4.9001995093E+00  1.0606733284E+01
                       1.5665680566E+01  1.0303834764E+01  1.0550097607E+01
                       5.3728436722E+00  1.0303834764E+01  1.0550097607E+01
                       1.7304204729E-12  1.0131674411E-13  1.2472475066E-01
            xcart3     5.2543608882E+00  5.1467551401E+00  5.2919919252E+00
                       1.5763082665E+01  1.5440265420E+01  1.5841598667E+01
                       1.0508721776E+01  1.5691731070E+01  1.0596105294E+01
                       1.0508721776E+01  1.0293510280E+01  5.0251098715E+00
                       1.0508721777E+01  1.0293510280E+01  1.5842290370E+01
                       1.0508721777E+01  4.8952894897E+00  1.0596105295E+01
                       1.5649983492E+01  1.0293510280E+01  1.0539526367E+01
                       5.3674600613E+00  1.0293510280E+01  1.0539526366E+01
                       1.7286785759E-12  1.0121532878E-13  1.2459977596E-01
            xcart4     5.2490907168E+00  5.1415928982E+00  5.2866840095E+00
                       1.5747272150E+01  1.5424778695E+01  1.5825709400E+01
                       1.0498181434E+01  1.5675992123E+01  1.0585477305E+01
                       1.0498181434E+01  1.0283185796E+01  5.0200696409E+00
                       1.0498181434E+01  1.0283185796E+01  1.5826400410E+01
                       1.0498181434E+01  4.8903794702E+00  1.0585477305E+01
                       1.5634286417E+01  1.0283185796E+01  1.0528955127E+01
                       5.3620764504E+00  1.0283185796E+01  1.0528955126E+01
                       1.7269479697E-12  1.0109707536E-13  1.2447480126E-01
            xcart5     5.2438205454E+00  5.1364306563E+00  5.2813760938E+00
                       1.5731461636E+01  1.5409291969E+01  1.5809820134E+01
                       1.0487641091E+01  1.5660253175E+01  1.0574849316E+01
                       1.0487641091E+01  1.0272861313E+01  5.0150294104E+00
                       1.0487641091E+01  1.0272861313E+01  1.5810510450E+01
                       1.0487641091E+01  4.8854694507E+00  1.0574849316E+01
                       1.5618589342E+01  1.0272861313E+01  1.0518383886E+01
                       5.3566928395E+00  1.0272861313E+01  1.0518383886E+01
                       1.7252185753E-12  1.0098715919E-13  1.2434982656E-01
            xcart6     5.2385503740E+00  5.1312684145E+00  5.2760681781E+00
                       1.5715651122E+01  1.5393805243E+01  1.5793930867E+01
                       1.0477100748E+01  1.5644514227E+01  1.0564221327E+01
                       1.0477100748E+01  1.0262536829E+01  5.0099891798E+00
                       1.0477100748E+01  1.0262536829E+01  1.5794620489E+01
                       1.0477100748E+01  4.8805594311E+00  1.0564221327E+01
                       1.5602892267E+01  1.0262536829E+01  1.0507812646E+01
                       5.3513092286E+00  1.0262536829E+01  1.0507812646E+01
                       1.7234649764E-12  1.0089822329E-13  1.2422485186E-01
            xcart7     5.2332802026E+00  5.1261061726E+00  5.2707602625E+00
                       1.5699840608E+01  1.5378318518E+01  1.5778041601E+01
                       1.0466560405E+01  1.5628775279E+01  1.0553593337E+01
                       1.0466560405E+01  1.0252212345E+01  5.0049489492E+00
                       1.0466560405E+01  1.0252212345E+01  1.5778730529E+01
                       1.0466560405E+01  4.8756494116E+00  1.0553593338E+01
                       1.5587195193E+01  1.0252212345E+01  1.0497241406E+01
                       5.3459256177E+00  1.0252212345E+01  1.0497241406E+01
                       1.7217460721E-12  1.0079879726E-13  1.2409987716E-01
            xcart8     5.2280100312E+00  5.1209439307E+00  5.2654523468E+00
                       1.5684030094E+01  1.5362831792E+01  1.5762152334E+01
                       1.0456020062E+01  1.5613036331E+01  1.0542965348E+01
                       1.0456020062E+01  1.0241887861E+01  4.9999087187E+00
                       1.0456020062E+01  1.0241887861E+01  1.5762840569E+01
                       1.0456020062E+01  4.8707393920E+00  1.0542965348E+01
                       1.5571498118E+01  1.0241887861E+01  1.0486670166E+01
                       5.3405420068E+00  1.0241887861E+01  1.0486670166E+01
                       1.7200132899E-12  1.0069243233E-13  1.2397490246E-01
            xcart9     5.2227398598E+00  5.1157816889E+00  5.2601444311E+00
                       1.5668219579E+01  1.5347345067E+01  1.5746263068E+01
                       1.0445479720E+01  1.5597297383E+01  1.0532337359E+01
                       1.0445479720E+01  1.0231563378E+01  4.9948684881E+00
                       1.0445479720E+01  1.0231563378E+01  1.5746950609E+01
                       1.0445479720E+01  4.8658293725E+00  1.0532337359E+01
                       1.5555801043E+01  1.0231563378E+01  1.0476098926E+01
                       5.3351583959E+00  1.0231563378E+01  1.0476098926E+01
                       1.7182714478E-12  1.0059107072E-13  1.2384992776E-01
            xcart10    5.2174696884E+00  5.1106194470E+00  5.2548365155E+00
                       1.5652409065E+01  1.5331858341E+01  1.5730373801E+01
                       1.0434939377E+01  1.5581558435E+01  1.0521709370E+01
                       1.0434939377E+01  1.0221238894E+01  4.9898282575E+00
                       1.0434939377E+01  1.0221238894E+01  1.5731060648E+01
                       1.0434939377E+01  4.8609193529E+00  1.0521709370E+01
                       1.5540103969E+01  1.0221238894E+01  1.0465527686E+01
                       5.3297747850E+00  1.0221238894E+01  1.0465527686E+01
                       1.7165512769E-12  1.0049358026E-13  1.2372495306E-01
             xred      2.5081465380E-01  2.5081465380E-01  2.4918534620E-01
                       7.5081465380E-01  7.5081465380E-01  7.4918534620E-01
                       7.6441857160E-01  2.3998903848E-01  7.6001096152E-01
                       2.3816574374E-01  2.3816574374E-01  7.6183425626E-01
                       7.5084743718E-01  7.5084743718E-01  2.4915256282E-01
                       2.3998903848E-01  7.6441857160E-01  2.3558142840E-01
                       2.5490344434E-01  7.4414103427E-01  7.4509655566E-01
                       7.4414103427E-01  2.5490344434E-01  2.5585896573E-01
                       5.9054227808E-03  5.9054227808E-03 -5.9054227808E-03
            znucl       55.00000   53.00000   72.00000   35.00000

================================================================================

 chkinp: Checking input parameters for consistency, jdtset=   1.

 chkinp: Checking input parameters for consistency, jdtset=   2.

 chkinp: Checking input parameters for consistency, jdtset=   3.

 chkinp: Checking input parameters for consistency, jdtset=   4.

 chkinp: Checking input parameters for consistency, jdtset=   5.

 chkinp: Checking input parameters for consistency, jdtset=   6.

 chkinp: Checking input parameters for consistency, jdtset=   7.

 chkinp: Checking input parameters for consistency, jdtset=   8.

 chkinp: Checking input parameters for consistency, jdtset=   9.

 chkinp: Checking input parameters for consistency, jdtset=  10.

================================================================================
== DATASET  1 ==================================================================
-   mpi_nproc: 6, omp_nthreads: -1 (-1 if OMP is not activated)


--- !DatasetInfo
iteration_state: {dtset: 1, }
dimensions: {natom: 9, nkpt: 32, mband: 42, nsppol: 1, nspinor: 1, nspden: 1, mpw: 10710, }
cutoff_energies: {ecut:  16.0, pawecutdg:  40.0, }
electrons: {nelect:   7.20000000E+01, charge:   0.00000000E+00, occopt:   1.00000000E+00, tsmear:   1.00000000E-02, }
meta: {optdriver: 0, ionmov: 2, optcell: 3, iscf: 17, paral_kgb: 0, }
...

 Real(R)+Recip(G) space primitive vectors, cartesian coordinates (Bohr,Bohr^-1):
 R(1)=  0.0000000 10.3141592 10.5707694  G(1)= -0.0474843  0.0484770  0.0473002
 R(2)= 10.5298025  0.0000000 10.5707694  G(2)=  0.0474843 -0.0484770  0.0473002
 R(3)= 10.5298025 10.3141592  0.0000000  G(3)=  0.0474843  0.0484770 -0.0473002
 Unit cell volume ucvol=  2.2960992E+03 bohr^3
 Angles (23,13,12)=  5.97241228E+01  6.07458596E+01  5.95300175E+01 degrees

 Coarse grid specifications (used for wave-functions):

 getcut: wavevector=  0.0000  0.0000  0.0000  ngfft=  64  64  64
         ecut(hartree)=     21.160   => boxcut(ratio)=   2.07148

 Fine grid specifications (used for densities):

 getcut: wavevector=  0.0000  0.0000  0.0000  ngfft= 100 100 100
         ecut(hartree)=     52.900   => boxcut(ratio)=   2.04706

--- Pseudopotential description ------------------------------------------------
- pspini: atom type   1  psp file is ../../../Psps_for_tests/ATOMICDATA/Cs.GGA_PBE-JTH.xml
- pspatm: opening atomic psp file    ../../../Psps_for_tests/ATOMICDATA/Cs.GGA_PBE-JTH.xml
- pspatm : Reading pseudopotential header in XML form from ../../../Psps_for_tests/ATOMICDATA/Cs.GGA_PBE-JTH.xml
 Pseudopotential format is: paw10
 basis_size (lnmax)=  6 (lmn_size= 18), orbitals=   0   0   1   1   2   2
 Spheres core radius: rc_sph= 2.20660278
 1 radial meshes are used:
  - mesh 1: r(i)=AA*[exp(BB*(i-1))-1], size=1500 , AA= 0.15922E-03 BB= 0.87573E-02
 Shapefunction is SIN type: shapef(r)=[sin(pi*r/rshp)/(pi*r/rshp)]**2
 Radius for shape functions =  2.00394208
 mmax= 1500
 Radial grid used for partial waves is grid 1
 Radial grid used for projectors is grid 1
 Radial grid used for (t)core density is grid 1
 Radial grid used for Vloc is grid 1
 Radial grid used for pseudo valence density is grid 1
 Mesh size for Vloc has been set to 1341 to avoid numerical noise.
 Compensation charge density is not taken into account in XC energy/potential
 pspatm: atomic psp has been read  and splines computed

- pspini: atom type   2  psp file is ../../../Psps_for_tests/ATOMICDATA/I.GGA_PBE-JTH.xml
- pspatm: opening atomic psp file    ../../../Psps_for_tests/ATOMICDATA/I.GGA_PBE-JTH.xml
- pspatm : Reading pseudopotential header in XML form from ../../../Psps_for_tests/ATOMICDATA/I.GGA_PBE-JTH.xml
 Pseudopotential format is: paw10
 basis_size (lnmax)=  4 (lmn_size=  8), orbitals=   0   0   1   1
 Spheres core radius: rc_sph= 2.30022271
 1 radial meshes are used:
  - mesh 1: r(i)=AA*[exp(BB*(i-1))-1], size=2000 , AA= 0.12610E-03 BB= 0.66836E-02
 Shapefunction is SIN type: shapef(r)=[sin(pi*r/rshp)/(pi*r/rshp)]**2
 Radius for shape functions =  2.10879093
 mmax= 2000
 Radial grid used for partial waves is grid 1
 Radial grid used for projectors is grid 1
 Radial grid used for (t)core density is grid 1
 Radial grid used for Vloc is grid 1
 Radial grid used for pseudo valence density is grid 1
 Mesh size for Vloc has been set to 1792 to avoid numerical noise.
 Compensation charge density is not taken into account in XC energy/potential
 pspatm: atomic psp has been read  and splines computed

- pspini: atom type   3  psp file is ../../../Psps_for_tests/ATOMICDATA/Hf.GGA_PBE-JTH.xml
- pspatm: opening atomic psp file    ../../../Psps_for_tests/ATOMICDATA/Hf.GGA_PBE-JTH.xml
- pspatm : Reading pseudopotential header in XML form from ../../../Psps_for_tests/ATOMICDATA/Hf.GGA_PBE-JTH.xml
 Pseudopotential format is: paw10
 basis_size (lnmax)=  6 (lmn_size= 18), orbitals=   0   0   1   1   2   2
 Spheres core radius: rc_sph= 2.41000000
 1 radial meshes are used:
  - mesh 1: r(i)=AA*[exp(BB*(i-1))-1], size= 972 , AA= 0.19796E-03 BB= 0.14253E-01
 Shapefunction is SIN type: shapef(r)=[sin(pi*r/rshp)/(pi*r/rshp)]**2
 Radius for shape functions =  2.41000000
 mmax=  972
 Radial grid used for partial waves is grid 1
 Radial grid used for projectors is grid 1
 Radial grid used for (t)core density is grid 1
 Radial grid used for Vloc is grid 1
 Radial grid used for pseudo valence density is grid 1
 Mesh size for Vloc has been set to  809 to avoid numerical noise.
 Compensation charge density is not taken into account in XC energy/potential
 pspatm: atomic psp has been read  and splines computed

- pspini: atom type   4  psp file is ../../../Psps_for_tests/ATOMICDATA/Br.GGA_PBE-JTH.xml
- pspatm: opening atomic psp file    ../../../Psps_for_tests/ATOMICDATA/Br.GGA_PBE-JTH.xml
- pspatm : Reading pseudopotential header in XML form from ../../../Psps_for_tests/ATOMICDATA/Br.GGA_PBE-JTH.xml
 Pseudopotential format is: paw10
 basis_size (lnmax)=  4 (lmn_size=  8), orbitals=   0   0   1   1
 Spheres core radius: rc_sph= 2.20000000
 1 radial meshes are used:
  - mesh 1: r(i)=AA*[exp(BB*(i-1))-1], size= 927 , AA= 0.40483E-03 BB= 0.14169E-01
 Shapefunction is BESSEL type: shapef(r,l)=aa(1,l)*jl(q(1,l)*r)+aa(2,l)*jl(q(2,l)*r)
 Radius for shape functions =  2.02066386
 mmax=  927
 Radial grid used for partial waves is grid 1
 Radial grid used for projectors is grid 1
 Radial grid used for (t)core density is grid 1
 Radial grid used for Vloc is grid 1
 Radial grid used for pseudo valence density is grid 1
 Mesh size for Vloc has been set to  763 to avoid numerical noise.
 Compensation charge density is not taken into account in XC energy/potential
 pspatm: atomic psp has been read  and splines computed

   3.85741523E+04                                ecore*ucvol(ha*bohr**3)
--------------------------------------------------------------------------------

_setup2: Arith. and geom. avg. npw (full set) are   10674.125   10674.119

================================================================================

=== [ionmov= 2] Broyden-Fletcher-Goldfard-Shanno method (forces)            
================================================================================

--- Iteration: (   1/1000) Internal Cycle: (1/1)
--------------------------------------------------------------------------------

---SELF-CONSISTENT-FIELD CONVERGENCE--------------------------------------------

--- !BeginCycle
iteration_state: {dtset: 1, itime: 1, icycle: 1, }
solver: {iscf: 17, nstep: 50, nline: 4, wfoptalg: 10, }
tolerances: {toldff: 1.00E-08, }
...

     iter   Etot(hartree)      deltaE(h)  residm     nres2    diffor    maxfor
 ETOT  1  -165.81272341660    -1.658E+02 3.333E+00 8.169E+00 4.717E-02 4.717E-02
 ETOT  2  -167.22340565309    -1.411E+00 2.197E-02 2.686E+00 5.041E-02 7.267E-03
 ETOT  3  -167.21583816508     7.567E-03 1.564E-02 4.764E-01 3.252E-02 3.158E-02
 ETOT  4  -167.21679662267    -9.585E-04 4.932E-03 1.188E-01 4.009E-02 8.571E-03
 ETOT  5  -167.21673005957     6.656E-05 3.359E-03 7.938E-03 1.168E-02 3.163E-03
 ETOT  6  -167.21679294845    -6.289E-05 2.780E-03 1.260E-03 2.998E-03 1.648E-04
 ETOT  7  -167.21680367083    -1.072E-05 1.908E-03 2.334E-04 7.995E-04 6.913E-04
 ETOT  8  -167.21680585586    -2.185E-06 1.164E-03 1.669E-05 2.593E-04 4.410E-04
 ETOT  9  -167.21680611822    -2.624E-07 5.897E-04 6.967E-06 7.288E-05 5.049E-04
 ETOT 10  -167.21680613875    -2.053E-08 3.135E-04 9.356E-07 2.231E-05 5.051E-04
 ETOT 11  -167.21680615075    -1.200E-08 2.473E-04 5.908E-07 2.769E-05 5.230E-04
 ETOT 12  -167.21680614960     1.147E-09 1.905E-04 1.303E-07 7.875E-06 5.152E-04
 ETOT 13  -167.21680615001    -4.008E-10 1.743E-04 5.840E-08 7.674E-06 5.181E-04
 ETOT 14  -167.21680614987     1.371E-10 1.816E-04 8.307E-09 1.989E-06 5.193E-04
 ETOT 15  -167.21680614993    -5.829E-11 1.801E-04 2.468E-09 1.193E-06 5.189E-04
 ETOT 16  -167.21680614992     4.775E-12 1.673E-04 1.609E-10 1.345E-06 5.192E-04
 ETOT 17  -167.21680614992     3.979E-13 1.605E-04 4.677E-10 1.467E-07 5.193E-04
 ETOT 18  -167.21680614993    -4.746E-12 1.387E-04 5.223E-11 1.289E-07 5.195E-04
 ETOT 19  -167.21680614992     2.132E-12 1.247E-04 2.786E-11 5.325E-08 5.194E-04
 ETOT 20  -167.21680614993    -1.620E-12 1.047E-04 1.285E-11 8.878E-09 5.195E-04
 ETOT 21  -167.21680614992     4.832E-13 8.722E-05 2.222E-12 3.052E-08 5.194E-04
 ETOT 22  -167.21680614992     2.075E-12 7.356E-05 1.683E-13 1.329E-08 5.194E-04
 ETOT 23  -167.21680614992    -2.274E-13 5.684E-05 4.885E-14 1.275E-08 5.194E-04
 ETOT 24  -167.21680614992    -8.811E-13 4.918E-05 2.852E-14 1.593E-09 5.194E-04
 ETOT 25  -167.21680614993    -2.700E-12 3.547E-05 1.545E-14 2.761E-10 5.194E-04

 At SCF step   25, forces are converged : 
  for the second time, max diff in force=  2.761E-10 < toldff=  1.000E-08

 Cartesian components of stress tensor (hartree/bohr^3)
  sigma(1 1)= -6.52111638E-05  sigma(3 2)=  1.57028051E-13
  sigma(2 2)= -6.55481913E-05  sigma(3 1)= -2.60188601E-13
  sigma(3 3)= -6.53701154E-05  sigma(2 1)=  1.09021526E-13


--- !ResultsGS
iteration_state: {dtset: 1, itime: 1, icycle: 1, }
comment   : Summary of ground state results
lattice_vectors:
- [  0.0000000,  10.3141592,  10.5707694, ]
- [ 10.5298025,   0.0000000,  10.5707694, ]
- [ 10.5298025,  10.3141592,   0.0000000, ]
lattice_lengths: [  14.76899,   14.92039,   14.73970, ]
lattice_angles: [ 59.724,  60.746,  59.530, ] # degrees, (23, 13, 12)
lattice_volume:   2.2960992E+03
convergence: {deltae: -2.700E-12, res2:  1.545E-14, residm:  3.547E-05, diffor:  2.761E-10, }
etotal    :  -1.67216806E+02
entropy   :   0.00000000E+00
fermie    :  -8.36616915E-02
cartesian_stress_tensor: # hartree/bohr^3
- [ -6.52111638E-05,   1.09021526E-13,  -2.60188601E-13, ]
- [  1.09021526E-13,  -6.55481913E-05,   1.57028051E-13, ]
- [ -2.60188601E-13,   1.57028051E-13,  -6.53701154E-05, ]
pressure_GPa:   1.9234E+00
xred      :
- [  2.5081E-01,   2.5081E-01,   2.4919E-01, Cs]
- [  7.5081E-01,   7.5081E-01,   7.4919E-01, Cs]
- [  7.6442E-01,   2.3999E-01,   7.6001E-01, Br]
- [  2.3817E-01,   2.3817E-01,   7.6183E-01, Br]
- [  7.5085E-01,   7.5085E-01,   2.4915E-01,  I]
- [  2.3999E-01,   7.6442E-01,   2.3558E-01, Br]
- [  2.5490E-01,   7.4414E-01,   7.4510E-01,  I]
- [  7.4414E-01,   2.5490E-01,   2.5586E-01,  I]
- [  5.9054E-03,   5.9054E-03,  -5.9054E-03, Hf]
cartesian_forces: # hartree/bohr
- [ -2.61746269E-16,   2.67225659E-16,   1.18938077E-05, ]
- [ -2.61746269E-16,   2.67225659E-16,   1.18938077E-05, ]
- [ -1.06802591E-16,  -5.19438639E-04,  -1.43915030E-05, ]
- [ -1.11294796E-14,   1.13621964E-14,   5.05716873E-04, ]
- [  8.96569487E-15,  -9.15314165E-15,  -4.07395659E-04, ]
- [  7.40273805E-16,   5.19438639E-04,  -1.43915030E-05, ]
- [ -4.13994342E-04,  -6.26673632E-15,  -1.69188652E-05, ]
- [  4.13994342E-04,   5.50643335E-15,  -1.69188653E-05, ]
- [  1.30917817E-15,  -1.33654317E-15,  -5.94880927E-05, ]
force_length_stats: {min:   1.18938077E-05, max:   5.19637965E-04, mean:   3.18260444E-04, }
...

 Integrated electronic density in atomic spheres:
 ------------------------------------------------
 Atom  Sphere_radius  Integrated_density
    1        2.20660          5.36715040
    2        2.20660          5.36715040
    3        2.20000          4.93937688
    4        2.20000          4.93642509
    5        2.30022          4.02599873
    6        2.20000          4.93937688
    7        2.30022          4.03404725
    8        2.30022          4.03404725
    9        2.41000          9.30442699

 PAW TEST:
 ==== Compensation charge inside spheres ============
 The following values must be close to each other ...
 Compensation charge over spherical meshes =     -0.434266096188793
 Compensation charge over fine fft grid    =     -0.434271245076375

 ==== Results concerning PAW augmentation regions ====

 Total pseudopotential strength Dij (hartree):
 Atom #  1
   0.43807  -0.14508   0.00000   0.00000   0.00000   0.00000  -0.00000   0.00000   0.00000   0.00000  -0.00000   0.00000 ...
  -0.14508   0.04370   0.00000  -0.00000   0.00000   0.00000   0.00000   0.00000  -0.00000   0.00000   0.00000   0.00000 ...
   0.00000   0.00000  -0.09330   0.00000   0.00000  -0.16674   0.00000  -0.00000   0.00000   0.00000   0.00000  -0.00000 ...
   0.00000  -0.00000   0.00000  -0.09330   0.00000   0.00000  -0.16674   0.00000  -0.00000   0.00000   0.00000   0.00000 ...
   0.00000   0.00000   0.00000   0.00000  -0.09330  -0.00000   0.00000  -0.16674   0.00000  -0.00000   0.00000   0.00000 ...
   0.00000   0.00000  -0.16674   0.00000  -0.00000   0.40337   0.00000   0.00001   0.00000  -0.00000   0.00000   0.00000 ...
  -0.00000   0.00000   0.00000  -0.16674   0.00000   0.00000   0.40337   0.00000   0.00000   0.00000  -0.00000   0.00000 ...
   0.00000   0.00000  -0.00000   0.00000  -0.16674   0.00001   0.00000   0.40337   0.00000   0.00000   0.00000  -0.00000 ...
   0.00000  -0.00000   0.00000  -0.00000   0.00000   0.00000   0.00000   0.00000   0.00526   0.00000  -0.00000   0.00000 ...
   0.00000   0.00000   0.00000   0.00000  -0.00000  -0.00000   0.00000   0.00000   0.00000   0.00526   0.00000   0.00000 ...
  -0.00000   0.00000   0.00000   0.00000   0.00000   0.00000  -0.00000   0.00000  -0.00000   0.00000   0.00526   0.00000 ...
   0.00000   0.00000  -0.00000   0.00000   0.00000   0.00000   0.00000  -0.00000   0.00000   0.00000   0.00000   0.00526 ...
   ...  only 12  components have been written...
 Atom #  9
  -3.51694   0.42771   0.00000   0.00013   0.00000   0.00000  -0.00002   0.00000   0.00000   0.00000  -0.00003   0.00000 ...
   0.42771   0.00296   0.00000  -0.00003   0.00000   0.00000   0.00001   0.00000   0.00000   0.00000   0.00000   0.00000 ...
   0.00000   0.00000  -1.45328   0.00000   0.00000   0.12285   0.00000   0.00000   0.00000   0.00004   0.00000   0.00000 ...
   0.00013  -0.00003   0.00000  -1.45362   0.00000   0.00000   0.12291   0.00000   0.00000   0.00000   0.00005   0.00000 ...
   0.00000   0.00000   0.00000   0.00000  -1.45377   0.00000   0.00000   0.12293   0.00000   0.00000   0.00000   0.00004 ...
   0.00000   0.00000   0.12285   0.00000   0.00000   0.01348   0.00000   0.00000   0.00000  -0.00001   0.00000   0.00000 ...
  -0.00002   0.00001   0.00000   0.12291   0.00000   0.00000   0.01347   0.00000   0.00000   0.00000  -0.00000   0.00000 ...
   0.00000   0.00000   0.00000   0.00000   0.12293   0.00000   0.00000   0.01347   0.00000   0.00000   0.00000  -0.00001 ...
   0.00000   0.00000   0.00000   0.00000   0.00000   0.00000   0.00000   0.00000  -0.39352   0.00000   0.00000   0.00000 ...
   0.00000   0.00000   0.00004   0.00000   0.00000  -0.00001   0.00000   0.00000   0.00000  -0.39349   0.00000   0.00000 ...
  -0.00003   0.00000   0.00000   0.00005   0.00000   0.00000  -0.00000   0.00000   0.00000   0.00000  -0.39288   0.00000 ...
   0.00000   0.00000   0.00000   0.00000   0.00004   0.00000   0.00000  -0.00001   0.00000   0.00000   0.00000  -0.39359 ...
   ...  only 12  components have been written...


 Augmentation waves occupancies Rhoij:
 Atom #  1
   1.99781  -0.01451   0.00000  -0.00000   0.00000   0.00000   0.00001   0.00000   0.00250   0.00000  -0.00025   0.00000 ...
  -0.01451   0.17266   0.00000   0.00035   0.00000   0.00000  -0.00000   0.00000  -0.01755   0.00000  -0.00013   0.00000 ...
   0.00000   0.00000   2.00881   0.00000  -0.00164  -0.00518   0.00000   0.00026   0.00000  -0.00041   0.00000  -0.00100 ...
  -0.00000   0.00035   0.00000   2.00816   0.00000   0.00000  -0.00503   0.00000  -0.00112   0.00000  -0.00021   0.00000 ...
   0.00000   0.00000  -0.00164   0.00000   2.00675   0.00026   0.00000  -0.00480   0.00000  -0.00109   0.00000   0.00154 ...
   0.00000   0.00000  -0.00518   0.00000   0.00026   0.00014   0.00000  -0.00002   0.00000   0.00004   0.00000   0.00003 ...
   0.00001  -0.00000   0.00000  -0.00503   0.00000   0.00000   0.00013   0.00000   0.00003   0.00000   0.00002   0.00000 ...
   0.00000   0.00000   0.00026   0.00000  -0.00480  -0.00002   0.00000   0.00011   0.00000   0.00003   0.00000  -0.00008 ...
   0.00250  -0.01755   0.00000  -0.00112   0.00000   0.00000   0.00003   0.00000   0.06080   0.00000   0.01309   0.00000 ...
   0.00000   0.00000  -0.00041   0.00000  -0.00109   0.00004   0.00000   0.00003   0.00000   0.07704   0.00000  -0.00017 ...
  -0.00025  -0.00013   0.00000  -0.00021   0.00000   0.00000   0.00002   0.00000   0.01309   0.00000   0.04042   0.00000 ...
   0.00000   0.00000  -0.00100   0.00000   0.00154   0.00003   0.00000  -0.00008   0.00000  -0.00017   0.00000   0.03776 ...
   ...  only 12  components have been written...
 Atom #  9
   1.99793  -0.02089   0.00000   0.00006   0.00000   0.00000   0.00019   0.00000   0.00000   0.00000  -0.00029   0.00000 ...
  -0.02089   1.01122   0.00000  -0.00076   0.00000   0.00000   0.01988   0.00000   0.00000   0.00000  -0.00423   0.00000 ...
   0.00000   0.00000   1.99246   0.00000   0.00000  -0.06524   0.00000   0.00000   0.00000   0.00132   0.00000   0.00000 ...
   0.00006  -0.00076   0.00000   1.99264   0.00000   0.00000  -0.06250   0.00000   0.00000   0.00000   0.00099   0.00000 ...
   0.00000   0.00000   0.00000   0.00000   1.99277   0.00000   0.00000  -0.06002   0.00000   0.00000   0.00000   0.00143 ...
   0.00000   0.00000  -0.06524   0.00000   0.00000   1.37579   0.00000   0.00000   0.00000  -0.02381   0.00000   0.00000 ...
   0.00019   0.01988   0.00000  -0.06250   0.00000   0.00000   1.26900   0.00000   0.00000   0.00000   0.08919   0.00000 ...
   0.00000   0.00000   0.00000   0.00000  -0.06002   0.00000   0.00000   1.18524   0.00000   0.00000   0.00000  -0.03313 ...
   0.00000   0.00000   0.00000   0.00000   0.00000   0.00000   0.00000   0.00000   0.48715   0.00000   0.00000   0.00000 ...
   0.00000   0.00000   0.00132   0.00000   0.00000  -0.02381   0.00000   0.00000   0.00000   0.50010   0.00000   0.00000 ...
  -0.00029  -0.00423   0.00000   0.00099   0.00000   0.00000   0.08919   0.00000   0.00000   0.00000   1.45547   0.00000 ...
   0.00000   0.00000   0.00000   0.00000   0.00143   0.00000   0.00000  -0.03313   0.00000   0.00000   0.00000   0.46828 ...
   ...  only 12  components have been written...



---OUTPUT-----------------------------------------------------------------------

 Cartesian coordinates (xcart) [bohr]
  5.26490123101989E+00  5.15707962378753E+00  5.30260775650833E+00
  1.57947036930592E+01  1.54712388713626E+01  1.58733771995422E+01
  1.05298024619630E+01  1.57232089663062E+01  1.06173612728628E+01
  1.05298024619625E+01  1.03141592475705E+01  5.03519033260846E+00
  1.05298024621129E+01  1.03141592475793E+01  1.58740702906453E+01
  1.05298024621169E+01  4.90510952884396E+00  1.06173612731059E+01
  1.56813776410063E+01  1.03141592475708E+01  1.05606688468357E+01
  5.37822728307208E+00  1.03141592475792E+01  1.05606688466089E+01
  1.73213582605109E-12  1.01398741117073E-13  1.24849725358954E-01
 Reduced coordinates (xred)
  2.50814653800000E-01  2.50814653800000E-01  2.49185346200000E-01
  7.50814653800000E-01  7.50814653800000E-01  7.49185346200000E-01
  7.64418571600000E-01  2.39989038480000E-01  7.60010961520000E-01
  2.38165743740000E-01  2.38165743740000E-01  7.61834256260000E-01
  7.50847437180000E-01  7.50847437180000E-01  2.49152562820000E-01
  2.39989038480000E-01  7.64418571600000E-01  2.35581428400000E-01
  2.54903444340000E-01  7.44141034270000E-01  7.45096555660000E-01
  7.44141034270000E-01  2.54903444340000E-01  2.55858965730000E-01
  5.90542278080000E-03  5.90542278080000E-03 -5.90542278080000E-03
 Cartesian forces (fcart) [Ha/bohr]; max,rms= 5.19439E-04 2.20180E-04 (free atoms)
 -2.61746268578499E-16  2.67225659344684E-16  1.18938076628649E-05
 -2.61746268578499E-16  2.67225659344684E-16  1.18938076628649E-05
 -1.06802591437304E-16 -5.19438638728858E-04 -1.43915029590383E-05
 -1.11294795918484E-14  1.13621963775662E-14  5.05716873016775E-04
  8.96569487466588E-15 -9.15314165322227E-15 -4.07395659221389E-04
  7.40273804926564E-16  5.19438638728212E-04 -1.43915029598822E-05
 -4.13994342491190E-04 -6.26673632229545E-15 -1.69188652426926E-05
  4.13994342491935E-04  5.50643335428469E-15 -1.69188652541800E-05
  1.30917816663508E-15 -1.33654317110468E-15 -5.94880927053226E-05
 Reduced forces (fred)
 -1.25726698603935E-04 -1.25726698603935E-04 -7.15022479252427E-20
 -1.25726698603935E-04 -1.25726698603935E-04 -7.15022479252427E-20
  5.50970209891290E-03  1.52129259723194E-04  5.35757283918971E-03
 -5.34581646811237E-03 -5.34581646811237E-03 -2.81234511276499E-19
  4.30648558572210E-03  4.30648558572210E-03 -3.53369670817978E-20
 -5.20544357946651E-03  1.52129259723194E-04 -5.35757283918971E-03
  1.78845423778978E-04  4.53812407061698E-03  4.35927864683800E-03
  1.78845423778979E-04 -4.18043322305902E-03 -4.35927864683800E-03
  6.28834912593791E-04  6.28834912593791E-04 -6.83740690720116E-20
 Scale of Primitive Cell (acell) [bohr]
  1.47689893898370E+01  1.49203856020770E+01  1.47396954131370E+01
 Real space primitive translations (rprimd) [bohr]
  0.00000000000000E+00  1.03141592475836E+01  1.05707694428022E+01
  1.05298024621860E+01  0.00000000000000E+00  1.05707694432656E+01
  1.05298024618927E+01  1.03141592475664E+01  0.00000000000000E+00
 Unitary Cell Volume (ucvol) [Bohr^3]=  2.29609922889181E+03
 Angles (23,13,12)= [degrees]
  5.97241228438988E+01  6.07458596269916E+01  5.95300175291096E+01
 Lengths [Bohr]
  1.47689893898464E+01  1.49203856020994E+01  1.47396954130891E+01
 Stress tensor in cartesian coordinates (strten) [Ha/bohr^3]
 -6.52111638422695E-05  1.09021525539068E-13 -2.60188601416771E-13
  1.09021525539068E-13 -6.55481913361400E-05  1.57028050833515E-13
 -2.60188601416771E-13  1.57028050833515E-13 -6.53701154017172E-05
 Total energy (etotal) [Ha]= -1.67216806149927E+02

--- Iteration: (   2/1000) Internal Cycle: (1/1)
--------------------------------------------------------------------------------

---SELF-CONSISTENT-FIELD CONVERGENCE--------------------------------------------

--- !BeginCycle
iteration_state: {dtset: 1, itime: 2, icycle: 1, }
solver: {iscf: 17, nstep: 50, nline: 4, wfoptalg: 10, }
tolerances: {toldff: 1.00E-08, }
...

     iter   Etot(hartree)      deltaE(h)  residm     nres2    diffor    maxfor
 ETOT  1  -167.21680966038    -1.672E+02 2.255E-05 3.624E-04 1.879E-03 2.385E-03
 ETOT  2  -167.21680754712     2.113E-06 1.453E-05 4.120E-05 1.956E-03 4.335E-04
 ETOT  3  -167.21680737873     1.684E-07 1.272E-05 3.183E-06 2.155E-04 6.455E-04
 ETOT  4  -167.21680736837     1.036E-08 9.003E-06 6.781E-07 1.773E-04 4.732E-04
 ETOT  5  -167.21680737148    -3.111E-09 7.886E-06 2.682E-07 6.706E-06 4.770E-04
 ETOT  6  -167.21680737447    -2.984E-09 5.578E-06 2.252E-08 1.673E-05 4.602E-04
 ETOT  7  -167.21680737491    -4.454E-10 4.865E-06 1.174E-08 1.995E-06 4.592E-04
 ETOT  8  -167.21680737573    -8.224E-10 3.790E-06 9.571E-10 3.017E-06 4.571E-04
 ETOT  9  -167.21680737581    -7.216E-11 3.845E-06 4.992E-10 4.349E-07 4.567E-04
 ETOT 10  -167.21680737579     2.029E-11 3.095E-06 7.623E-11 1.087E-07 4.566E-04
 ETOT 11  -167.21680737577     1.819E-11 3.324E-06 4.364E-11 1.679E-07 4.566E-04
 ETOT 12  -167.21680737575     1.845E-11 2.523E-06 8.015E-12 6.305E-08 4.566E-04
 ETOT 13  -167.21680737575     3.297E-12 2.913E-06 5.772E-12 3.904E-08 4.566E-04
 ETOT 14  -167.21680737575    -3.581E-12 2.053E-06 4.723E-13 2.732E-08 4.566E-04
 ETOT 15  -167.21680737575     3.325E-12 2.574E-06 1.636E-13 6.760E-09 4.566E-04
 ETOT 16  -167.21680737575    -6.821E-13 1.669E-06 7.222E-14 6.894E-09 4.566E-04

 At SCF step   16, forces are converged : 
  for the second time, max diff in force=  6.894E-09 < toldff=  1.000E-08

 Cartesian components of stress tensor (hartree/bohr^3)
  sigma(1 1)= -6.50527616E-05  sigma(3 2)=  1.57032257E-13
  sigma(2 2)= -6.53240572E-05  sigma(3 1)= -2.60194976E-13
  sigma(3 3)= -6.51814120E-05  sigma(2 1)=  1.09023514E-13


--- !ResultsGS
iteration_state: {dtset: 1, itime: 2, icycle: 1, }
comment   : Summary of ground state results
lattice_vectors:
- [  0.0000000,  10.3142124,  10.5707674, ]
- [ 10.5297502,   0.0000000,  10.5707674, ]
- [ 10.5297502,  10.3142124,   0.0000000, ]
lattice_lengths: [  14.76903,   14.92035,   14.73970, ]
lattice_angles: [ 59.724,  60.746,  59.530, ] # degrees, (23, 13, 12)
lattice_volume:   2.2960992E+03
convergence: {deltae: -6.821E-13, res2:  7.222E-14, residm:  1.669E-06, diffor:  6.894E-09, }
etotal    :  -1.67216807E+02
entropy   :   0.00000000E+00
fermie    :  -8.36615954E-02
cartesian_stress_tensor: # hartree/bohr^3
- [ -6.50527616E-05,   1.09023514E-13,  -2.60194976E-13, ]
- [  1.09023514E-13,  -6.53240572E-05,   1.57032257E-13, ]
- [ -2.60194976E-13,   1.57032257E-13,  -6.51814120E-05, ]
pressure_GPa:   1.9178E+00
xred      :
- [  2.5082E-01,   2.5082E-01,   2.4918E-01, Cs]
- [  7.5082E-01,   7.5082E-01,   7.4918E-01, Cs]
- [  7.6439E-01,   2.4001E-01,   7.5999E-01, Br]
- [  2.3819E-01,   2.3819E-01,   7.6181E-01, Br]
- [  7.5083E-01,   7.5083E-01,   2.4917E-01,  I]
- [  2.4001E-01,   7.6439E-01,   2.3561E-01, Br]
- [  2.5492E-01,   7.4412E-01,   7.4508E-01,  I]
- [  7.4412E-01,   2.5492E-01,   2.5588E-01,  I]
- [  5.9026E-03,   5.9026E-03,  -5.9026E-03, Hf]
cartesian_forces: # hartree/bohr
- [ -2.58668750E-16,   2.64066451E-16,   1.17536110E-05, ]
- [ -2.58668310E-16,   2.64065984E-16,   1.17536110E-05, ]
- [ -6.72058668E-17,  -4.56563012E-04,  -1.38637529E-05, ]
- [ -9.78417389E-15,   9.98862274E-15,   4.44583265E-04, ]
- [  7.95969850E-15,  -8.12603028E-15,  -3.61682491E-04, ]
- [  6.77408441E-16,   4.56563012E-04,  -1.38637529E-05, ]
- [ -3.68878442E-04,  -5.62035102E-15,  -1.67028017E-05, ]
- [  3.68878442E-04,   4.86978763E-15,  -1.67028017E-05, ]
- [  9.96381642E-16,  -1.01720914E-15,  -4.52748874E-05, ]
force_length_stats: {min:   1.17536110E-05, max:   4.56773453E-04, mean:   2.80789730E-04, }
...

 Integrated electronic density in atomic spheres:
 ------------------------------------------------
 Atom  Sphere_radius  Integrated_density
    1        2.20660          5.36715092
    2        2.20660          5.36715092
    3        2.20000          4.93915465
    4        2.20000          4.93576307
    5        2.30022          4.02552560
    6        2.20000          4.93915465
    7        2.30022          4.03324545
    8        2.30022          4.03324545
    9        2.41000          9.30407015

 PAW TEST:
 ==== Compensation charge inside spheres ============
 The following values must be close to each other ...
 Compensation charge over spherical meshes =     -0.434296414791514
 Compensation charge over fine fft grid    =     -0.434301548635846

 ==== Results concerning PAW augmentation regions ====

 Total pseudopotential strength Dij (hartree):
 Atom #  1
   0.43807  -0.14508   0.00000   0.00000   0.00000   0.00000  -0.00000   0.00000   0.00000   0.00000  -0.00000   0.00000 ...
  -0.14508   0.04370   0.00000  -0.00000   0.00000   0.00000   0.00000   0.00000  -0.00000   0.00000   0.00000   0.00000 ...
   0.00000   0.00000  -0.09330   0.00000   0.00000  -0.16674   0.00000  -0.00000   0.00000   0.00000   0.00000  -0.00000 ...
   0.00000  -0.00000   0.00000  -0.09330   0.00000   0.00000  -0.16674   0.00000  -0.00000   0.00000   0.00000   0.00000 ...
   0.00000   0.00000   0.00000   0.00000  -0.09330  -0.00000   0.00000  -0.16674   0.00000  -0.00000   0.00000   0.00000 ...
   0.00000   0.00000  -0.16674   0.00000  -0.00000   0.40337   0.00000   0.00001   0.00000  -0.00000   0.00000   0.00000 ...
  -0.00000   0.00000   0.00000  -0.16674   0.00000   0.00000   0.40337   0.00000   0.00000   0.00000  -0.00000   0.00000 ...
   0.00000   0.00000  -0.00000   0.00000  -0.16674   0.00001   0.00000   0.40337   0.00000   0.00000   0.00000  -0.00000 ...
   0.00000  -0.00000   0.00000  -0.00000   0.00000   0.00000   0.00000   0.00000   0.00526   0.00000  -0.00000   0.00000 ...
   0.00000   0.00000   0.00000   0.00000  -0.00000  -0.00000   0.00000   0.00000   0.00000   0.00526   0.00000   0.00000 ...
  -0.00000   0.00000   0.00000   0.00000   0.00000   0.00000  -0.00000   0.00000  -0.00000   0.00000   0.00526   0.00000 ...
   0.00000   0.00000  -0.00000   0.00000   0.00000   0.00000   0.00000  -0.00000   0.00000   0.00000   0.00000   0.00526 ...
   ...  only 12  components have been written...
 Atom #  9
  -3.51696   0.42771   0.00000   0.00013   0.00000   0.00000  -0.00002   0.00000   0.00000   0.00000  -0.00003   0.00000 ...
   0.42771   0.00296   0.00000  -0.00003   0.00000   0.00000   0.00001   0.00000   0.00000   0.00000   0.00000   0.00000 ...
   0.00000   0.00000  -1.45331   0.00000   0.00000   0.12285   0.00000   0.00000   0.00000   0.00004   0.00000   0.00000 ...
   0.00013  -0.00003   0.00000  -1.45365   0.00000   0.00000   0.12291   0.00000   0.00000   0.00000   0.00005   0.00000 ...
   0.00000   0.00000   0.00000   0.00000  -1.45379   0.00000   0.00000   0.12294   0.00000   0.00000   0.00000   0.00004 ...
   0.00000   0.00000   0.12285   0.00000   0.00000   0.01348   0.00000   0.00000   0.00000  -0.00001   0.00000   0.00000 ...
  -0.00002   0.00001   0.00000   0.12291   0.00000   0.00000   0.01347   0.00000   0.00000   0.00000  -0.00000   0.00000 ...
   0.00000   0.00000   0.00000   0.00000   0.12294   0.00000   0.00000   0.01347   0.00000   0.00000   0.00000  -0.00001 ...
   0.00000   0.00000   0.00000   0.00000   0.00000   0.00000   0.00000   0.00000  -0.39353   0.00000   0.00000   0.00000 ...
   0.00000   0.00000   0.00004   0.00000   0.00000  -0.00001   0.00000   0.00000   0.00000  -0.39350   0.00000   0.00000 ...
  -0.00003   0.00000   0.00000   0.00005   0.00000   0.00000  -0.00000   0.00000   0.00000   0.00000  -0.39289   0.00000 ...
   0.00000   0.00000   0.00000   0.00000   0.00004   0.00000   0.00000  -0.00001   0.00000   0.00000   0.00000  -0.39359 ...
   ...  only 12  components have been written...


 Augmentation waves occupancies Rhoij:
 Atom #  1
   1.99781  -0.01451   0.00000  -0.00000   0.00000   0.00000   0.00001   0.00000   0.00249   0.00000  -0.00025   0.00000 ...
  -0.01451   0.17266   0.00000   0.00035   0.00000   0.00000  -0.00000   0.00000  -0.01755   0.00000  -0.00013   0.00000 ...
   0.00000   0.00000   2.00881   0.00000  -0.00164  -0.00518   0.00000   0.00026   0.00000  -0.00041   0.00000  -0.00101 ...
  -0.00000   0.00035   0.00000   2.00816   0.00000   0.00000  -0.00503   0.00000  -0.00112   0.00000  -0.00021   0.00000 ...
   0.00000   0.00000  -0.00164   0.00000   2.00675   0.00026   0.00000  -0.00480   0.00000  -0.00110   0.00000   0.00154 ...
   0.00000   0.00000  -0.00518   0.00000   0.00026   0.00014   0.00000  -0.00002   0.00000   0.00004   0.00000   0.00003 ...
   0.00001  -0.00000   0.00000  -0.00503   0.00000   0.00000   0.00013   0.00000   0.00003   0.00000   0.00002   0.00000 ...
   0.00000   0.00000   0.00026   0.00000  -0.00480  -0.00002   0.00000   0.00011   0.00000   0.00003   0.00000  -0.00008 ...
   0.00249  -0.01755   0.00000  -0.00112   0.00000   0.00000   0.00003   0.00000   0.06080   0.00000   0.01309   0.00000 ...
   0.00000   0.00000  -0.00041   0.00000  -0.00110   0.00004   0.00000   0.00003   0.00000   0.07704   0.00000  -0.00017 ...
  -0.00025  -0.00013   0.00000  -0.00021   0.00000   0.00000   0.00002   0.00000   0.01309   0.00000   0.04042   0.00000 ...
   0.00000   0.00000  -0.00101   0.00000   0.00154   0.00003   0.00000  -0.00008   0.00000  -0.00017   0.00000   0.03776 ...
   ...  only 12  components have been written...
 Atom #  9
   1.99792  -0.02090   0.00000   0.00006   0.00000   0.00000   0.00019   0.00000   0.00000   0.00000  -0.00028   0.00000 ...
  -0.02090   1.01107   0.00000  -0.00076   0.00000   0.00000   0.01980   0.00000   0.00000   0.00000  -0.00422   0.00000 ...
   0.00000   0.00000   1.99245   0.00000   0.00000  -0.06530   0.00000   0.00000   0.00000   0.00131   0.00000   0.00000 ...
   0.00006  -0.00076   0.00000   1.99263   0.00000   0.00000  -0.06255   0.00000   0.00000   0.00000   0.00098   0.00000 ...
   0.00000   0.00000   0.00000   0.00000   1.99276   0.00000   0.00000  -0.06008   0.00000   0.00000   0.00000   0.00143 ...
   0.00000   0.00000  -0.06530   0.00000   0.00000   1.37504   0.00000   0.00000   0.00000  -0.02379   0.00000   0.00000 ...
   0.00019   0.01980   0.00000  -0.06255   0.00000   0.00000   1.26845   0.00000   0.00000   0.00000   0.08899   0.00000 ...
   0.00000   0.00000   0.00000   0.00000  -0.06008   0.00000   0.00000   1.18485   0.00000   0.00000   0.00000  -0.03313 ...
   0.00000   0.00000   0.00000   0.00000   0.00000   0.00000   0.00000   0.00000   0.48690   0.00000   0.00000   0.00000 ...
   0.00000   0.00000   0.00131   0.00000   0.00000  -0.02379   0.00000   0.00000   0.00000   0.49980   0.00000   0.00000 ...
  -0.00028  -0.00422   0.00000   0.00098   0.00000   0.00000   0.08899   0.00000   0.00000   0.00000   1.45476   0.00000 ...
   0.00000   0.00000   0.00000   0.00000   0.00143   0.00000   0.00000  -0.03313   0.00000   0.00000   0.00000   0.46808 ...
   ...  only 12  components have been written...



---OUTPUT-----------------------------------------------------------------------

 Cartesian coordinates (xcart) [bohr]
  5.26487511825751E+00  5.15710618812545E+00  5.30261863626834E+00
  1.57946253547721E+01  1.54713185643763E+01  1.58733860577988E+01
  1.05297502364383E+01  1.57227705159143E+01  1.06173448509492E+01
  1.05297502364378E+01  1.03142123762464E+01  5.03569508647903E+00
  1.05297502365881E+01  1.03142123762552E+01  1.58736598593826E+01
  1.05297502365921E+01  4.90565423658752E+00  1.06173448511922E+01
  1.56808858725025E+01  1.03142123762467E+01  1.05606499084018E+01
  5.37861460052635E+00  1.03142123762551E+01  1.05606499081751E+01
  1.73130949800470E-12  1.01350202745990E-13  1.24790213401960E-01
 Reduced coordinates (xred)
  2.50815216380034E-01  2.50815216380034E-01  2.49184783619966E-01
  7.50815216380034E-01  7.50815216380034E-01  7.49184783619966E-01
  7.64392710026184E-01  2.40013538610542E-01  7.59986461389458E-01
  2.38189664272736E-01  2.38189664272736E-01  7.61810335727264E-01
  7.50828167264909E-01  7.50828167264909E-01  2.49171832735091E-01
  2.40013538610542E-01  7.64392710026184E-01  2.35607289973816E-01
  2.54922302293303E-01  7.44120575783704E-01  7.45077697706697E-01
  7.44120575783704E-01  2.54922302293303E-01  2.55879424216296E-01
  5.90260897935319E-03  5.90260897935319E-03 -5.90260897935319E-03
 Cartesian forces (fcart) [Ha/bohr]; max,rms= 4.56563E-04 1.94439E-04 (free atoms)
 -2.58668750081190E-16  2.64066451302270E-16  1.17536110466274E-05
 -2.58668310043993E-16  2.64065984368948E-16  1.17536110466274E-05
 -6.72058668126543E-17 -4.56563011760490E-04 -1.38637528887147E-05
 -9.78417388622533E-15  9.98862274374765E-15  4.44583265046201E-04
  7.95969849710018E-15 -8.12603027948374E-15 -3.61682490542530E-04
  6.77408440752850E-16  4.56563011759867E-04 -1.38637528894564E-05
 -3.68878441661500E-04 -5.62035102385638E-15 -1.67028017225069E-05
  3.68878441662235E-04  4.86978763134948E-15 -1.67028017327425E-05
  9.96381641561386E-16 -1.01720914402793E-15 -4.52748873635049E-05
 Reduced forces (fred)
 -1.24244688737029E-04 -1.24244688737029E-04  7.98721361377600E-20
 -1.24244688737029E-04 -1.24244688737029E-04  8.00547038067308E-20
  4.85563837381530E-03  1.46550507380094E-04  4.70908786643521E-03
 -4.69958629430801E-03 -4.69958629430801E-03  1.30965968413042E-19
  3.82326148796497E-03  3.82326148796497E-03 -3.50528869390599E-20
 -4.56253735905511E-03  1.46550507380094E-04 -4.70908786643521E-03
  1.76561432350657E-04  4.06075929068482E-03  3.88419785833417E-03
  1.76561432350658E-04 -3.70763642598351E-03 -3.88419785833417E-03
  4.78590304355598E-04  4.78590304355598E-04  6.13168160946405E-20
 Scale of Primitive Cell (acell) [bohr]
  1.47690250462843E+01  1.49203473126953E+01  1.47396952811963E+01
 Real space primitive translations (rprimd) [bohr]
  0.00000000000000E+00  1.03142123762595E+01  1.05707674212987E+01
  1.05297502366612E+01  0.00000000000000E+00  1.05707674217622E+01
  1.05297502363679E+01  1.03142123762423E+01  0.00000000000000E+00
 Unitary Cell Volume (ucvol) [Bohr^3]=  2.29609922889181E+03
 Angles (23,13,12)= [degrees]
  5.97243685022244E+01  6.07456061988558E+01  5.95300252989198E+01
 Lengths [Bohr]
  1.47690250462843E+01  1.49203473126953E+01  1.47396952811963E+01
 Stress tensor in cartesian coordinates (strten) [Ha/bohr^3]
 -6.50527615765764E-05  1.09023513708227E-13 -2.60194976381223E-13
  1.09023513708227E-13 -6.53240572065610E-05  1.57032256671361E-13
 -2.60194976381223E-13  1.57032256671361E-13 -6.51814119632327E-05
 Total energy (etotal) [Ha]= -1.67216807375746E+02

 Difference of energy with previous step (new-old):
           Absolute (Ha)=-1.22582E-06
           Relative     =-7.33072E-09

--- Iteration: (   3/1000) Internal Cycle: (1/1)
--------------------------------------------------------------------------------

---SELF-CONSISTENT-FIELD CONVERGENCE--------------------------------------------

--- !BeginCycle
iteration_state: {dtset: 1, itime: 3, icycle: 1, }
solver: {iscf: 17, nstep: 50, nline: 4, wfoptalg: 10, }
tolerances: {toldff: 1.00E-08, }
...

     iter   Etot(hartree)      deltaE(h)  residm     nres2    diffor    maxfor
 ETOT  1  -167.21693774371    -1.672E+02 4.523E-03 2.052E-02 1.412E-02 1.456E-02
 ETOT  2  -167.21682177386     1.160E-04 2.528E-04 2.299E-03 1.469E-02 2.111E-04
 ETOT  3  -167.21681204826     9.726E-06 4.149E-05 1.784E-04 1.614E-03 1.486E-03
 ETOT  4  -167.21681165569     3.926E-07 2.612E-05 3.843E-05 1.328E-03 1.584E-04
 ETOT  5  -167.21681174515    -8.946E-08 2.156E-05 1.513E-05 4.934E-05 1.695E-04
 ETOT  6  -167.21681179641    -5.126E-08 1.495E-05 1.259E-06 1.244E-04 6.186E-05
 ETOT  7  -167.21681180574    -9.334E-09 1.187E-05 6.518E-07 1.542E-05 5.279E-05
 ETOT  8  -167.21681181781    -1.207E-08 8.156E-06 5.298E-08 2.250E-05 5.278E-05
 ETOT  9  -167.21681181890    -1.099E-09 6.464E-06 2.757E-08 3.246E-06 5.243E-05
 ETOT 10  -167.21681181884     6.060E-11 4.567E-06 4.274E-09 8.189E-07 5.195E-05
 ETOT 11  -167.21681181879     5.042E-11 3.595E-06 2.416E-09 1.274E-06 5.208E-05
 ETOT 12  -167.21681181865     1.406E-10 2.681E-06 4.421E-10 4.690E-07 5.233E-05
 ETOT 13  -167.21681181865     3.126E-13 2.102E-06 3.245E-10 2.897E-07 5.233E-05
 ETOT 14  -167.21681181863     2.683E-11 1.682E-06 2.766E-11 2.020E-07 5.219E-05
 ETOT 15  -167.21681181864    -1.702E-11 1.314E-06 8.550E-12 4.820E-08 5.217E-05
 ETOT 16  -167.21681181866    -1.216E-11 1.142E-06 4.139E-12 5.174E-08 5.221E-05
 ETOT 17  -167.21681181868    -2.589E-11 8.878E-07 7.657E-12 2.566E-08 5.222E-05
 ETOT 18  -167.21681181868     1.052E-12 8.384E-07 1.569E-12 1.258E-08 5.221E-05
 ETOT 19  -167.21681181868    -4.150E-12 6.494E-07 1.392E-13 1.011E-08 5.220E-05
 ETOT 20  -167.21681181869    -5.400E-12 6.581E-07 9.333E-14 3.517E-09 5.220E-05
 ETOT 21  -167.21681181870    -1.083E-11 5.081E-07 3.668E-14 3.043E-09 5.220E-05

 At SCF step   21, forces are converged : 
  for the second time, max diff in force=  3.043E-09 < toldff=  1.000E-08

 Cartesian components of stress tensor (hartree/bohr^3)
  sigma(1 1)= -6.38503300E-05  sigma(3 2)=  1.57057845E-13
  sigma(2 2)= -6.36509414E-05  sigma(3 1)= -2.60251880E-13
  sigma(3 3)= -6.37670712E-05  sigma(2 1)=  1.09040524E-13


--- !ResultsGS
iteration_state: {dtset: 1, itime: 3, icycle: 1, }
comment   : Summary of ground state results
lattice_vectors:
- [  0.0000000,  10.3145771,  10.5707548, ]
- [ 10.5293905,   0.0000000,  10.5707548, ]
- [ 10.5293905,  10.3145771,   0.0000000, ]
lattice_lengths: [  14.76927,   14.92008,   14.73969, ]
lattice_angles: [ 59.726,  60.744,  59.530, ] # degrees, (23, 13, 12)
lattice_volume:   2.2960992E+03
convergence: {deltae: -1.083E-11, res2:  3.668E-14, residm:  5.081E-07, diffor:  3.043E-09, }
etotal    :  -1.67216812E+02
entropy   :   0.00000000E+00
fermie    :  -8.36586751E-02
cartesian_stress_tensor: # hartree/bohr^3
- [ -6.38503300E-05,   1.09040524E-13,  -2.60251880E-13, ]
- [  1.09040524E-13,  -6.36509414E-05,   1.57057845E-13, ]
- [ -2.60251880E-13,   1.57057845E-13,  -6.37670712E-05, ]
pressure_GPa:   1.8758E+00
xred      :
- [  2.5082E-01,   2.5082E-01,   2.4918E-01, Cs]
- [  7.5082E-01,   7.5082E-01,   7.4918E-01, Cs]
- [  7.6420E-01,   2.4020E-01,   7.5980E-01, Br]
- [  2.3837E-01,   2.3837E-01,   7.6163E-01, Br]
- [  7.5068E-01,   7.5068E-01,   2.4932E-01,  I]
- [  2.4020E-01,   7.6420E-01,   2.3580E-01, Br]
- [  2.5507E-01,   7.4396E-01,   7.4493E-01,  I]
- [  7.4396E-01,   2.5507E-01,   2.5604E-01,  I]
- [  5.8843E-03,   5.8843E-03,  -5.8843E-03, Hf]
cartesian_forces: # hartree/bohr
- [ -2.40264576E-16,   2.45268129E-16,   1.09169400E-05, ]
- [ -2.40263289E-16,   2.45266816E-16,   1.09169400E-05, ]
- [  2.27517909E-16,   1.36660383E-05,  -9.83154678E-06, ]
- [  2.29932901E-16,  -2.34722084E-16,  -1.04475963E-05, ]
- [  3.24627146E-16,  -3.31387902E-16,  -1.47502523E-05, ]
- [  2.05233188E-16,  -1.36660383E-05,  -9.83154678E-06, ]
- [ -2.58180866E-05,  -6.94782453E-16,  -1.45851155E-05, ]
- [  2.58180866E-05,   3.94246508E-17,  -1.45851155E-05, ]
- [ -1.14877088E-15,   1.17269486E-15,   5.21972932E-05, ]
force_length_stats: {min:   1.04475963E-05, max:   5.21972932E-05, mean:   2.13561267E-05, }
...

 Integrated electronic density in atomic spheres:
 ------------------------------------------------
 Atom  Sphere_radius  Integrated_density
    1        2.20660          5.36715495
    2        2.20660          5.36715495
    3        2.20000          4.93939073
    4        2.20000          4.93581739
    5        2.30022          4.02539623
    6        2.20000          4.93939073
    7        2.30022          4.03171035
    8        2.30022          4.03171035
    9        2.41000          9.30116072

 PAW TEST:
 ==== Compensation charge inside spheres ============
 The following values must be close to each other ...
 Compensation charge over spherical meshes =     -0.434525512184655
 Compensation charge over fine fft grid    =     -0.434530549062909

 ==== Results concerning PAW augmentation regions ====

 Total pseudopotential strength Dij (hartree):
 Atom #  1
   0.43806  -0.14507   0.00000   0.00000   0.00000   0.00000  -0.00000   0.00000   0.00000   0.00000  -0.00000   0.00000 ...
  -0.14507   0.04370   0.00000  -0.00000   0.00000   0.00000   0.00000   0.00000  -0.00000   0.00000   0.00000   0.00000 ...
   0.00000   0.00000  -0.09330   0.00000   0.00000  -0.16674   0.00000  -0.00000   0.00000   0.00000   0.00000  -0.00000 ...
   0.00000  -0.00000   0.00000  -0.09330   0.00000   0.00000  -0.16674   0.00000  -0.00000   0.00000   0.00000   0.00000 ...
   0.00000   0.00000   0.00000   0.00000  -0.09330  -0.00000   0.00000  -0.16674   0.00000  -0.00000   0.00000   0.00000 ...
   0.00000   0.00000  -0.16674   0.00000  -0.00000   0.40336   0.00000   0.00001   0.00000  -0.00000   0.00000   0.00000 ...
  -0.00000   0.00000   0.00000  -0.16674   0.00000   0.00000   0.40336   0.00000   0.00000   0.00000  -0.00000   0.00000 ...
   0.00000   0.00000  -0.00000   0.00000  -0.16674   0.00001   0.00000   0.40337   0.00000   0.00000   0.00000  -0.00000 ...
   0.00000  -0.00000   0.00000  -0.00000   0.00000   0.00000   0.00000   0.00000   0.00526   0.00000  -0.00000   0.00000 ...
   0.00000   0.00000   0.00000   0.00000  -0.00000  -0.00000   0.00000   0.00000   0.00000   0.00526   0.00000   0.00000 ...
  -0.00000   0.00000   0.00000   0.00000   0.00000   0.00000  -0.00000   0.00000  -0.00000   0.00000   0.00526   0.00000 ...
   0.00000   0.00000  -0.00000   0.00000   0.00000   0.00000   0.00000  -0.00000   0.00000   0.00000   0.00000   0.00526 ...
   ...  only 12  components have been written...
 Atom #  9
[...]
                       8.2204321686E+00  5.4103706682E+00  5.5420571972E+00
                       2.8408689431E+00  5.4103706682E+00  5.5420571971E+00
                       9.3006468065E-13  5.4659771206E-14  6.7088131145E-02
           xangst10    2.7628460626E+00  2.7019843906E+00  2.7812742050E+00
                       8.2885381879E+00  8.1059531718E+00  8.3259180418E+00
                       5.5256921252E+00  8.2136826836E+00  5.5672791151E+00
                       5.5256921252E+00  5.4039687812E+00  2.6653295005E+00
                       5.5256921253E+00  5.4039687812E+00  8.3097249531E+00
                       5.5256921253E+00  2.5942548788E+00  5.5672791152E+00
                       8.2114612648E+00  5.4039687812E+00  5.5364824221E+00
                       2.8399229858E+00  5.4039687812E+00  5.5364824220E+00
                       9.3521814174E-13  5.4187082249E-14  6.7380919581E-02
            xcart1     5.2648685252E+00  5.1570616538E+00  5.3029777852E+00
                       1.5794605576E+01  1.5471184961E+01  1.5873849729E+01
                       1.0529737050E+01  1.5718905465E+01  1.0617143985E+01
                       1.0529737050E+01  1.0314123308E+01  5.0395463784E+00
                       1.0529737050E+01  1.0314123308E+01  1.5870689572E+01
                       1.0529737050E+01  4.9093411498E+00  1.0617143986E+01
                       1.5677431126E+01  1.0314123308E+01  1.0560344731E+01
                       5.3820429745E+00  1.0314123308E+01  1.0560344731E+01
                       1.7333054347E-12  1.0147349534E-13  1.2493465526E-01
            xcart2     5.2596820795E+00  5.1517409573E+00  5.2981135600E+00
                       1.5779046238E+01  1.5455222872E+01  1.5858560853E+01
                       1.0519364159E+01  1.5698155510E+01  1.0606200545E+01
                       1.0519364159E+01  1.0303481915E+01  5.0393056150E+00
                       1.0519364159E+01  1.0303481915E+01  1.5851835711E+01
                       1.0519364159E+01  4.9088083190E+00  1.0606200545E+01
                       1.5658353523E+01  1.0303481915E+01  1.0549130760E+01
                       5.3803747951E+00  1.0303481915E+01  1.0549130759E+01
                       1.7355626279E-12  1.0160826857E-13  1.2509999883E-01
            xcart3     5.2545621574E+00  5.1464329590E+00  5.2928437952E+00
                       1.5763686472E+01  1.5439298877E+01  1.5842706857E+01
                       1.0509124315E+01  1.5677612867E+01  1.0595247097E+01
                       1.0509124315E+01  1.0292865918E+01  5.0389843023E+00
                       1.0509124315E+01  1.0292865918E+01  1.5832660272E+01
                       1.0509124315E+01  4.9081189694E+00  1.0595247097E+01
                       1.5639535302E+01  1.0292865918E+01  1.0537945892E+01
                       5.3787133274E+00  1.0292865918E+01  1.0537945892E+01
                       1.7386450790E-12  1.0182107173E-13  1.2532329121E-01
            xcart4     5.2495522371E+00  5.1410895909E+00  5.2874656363E+00
                       1.5748656711E+01  1.5423268773E+01  1.5826596146E+01
                       1.0499104474E+01  1.5656985888E+01  1.0584000280E+01
                       1.0499104474E+01  1.0282179182E+01  5.0387727276E+00
                       1.0499104474E+01  1.0282179182E+01  1.5813290523E+01
                       1.0499104474E+01  4.9073724752E+00  1.0584000281E+01
                       1.5621173626E+01  1.0282179182E+01  1.0526609595E+01
                       5.3770353220E+00  1.0282179182E+01  1.0526609595E+01
                       1.7438506632E-12  1.0204279541E-13  1.2569929022E-01
            xcart5     5.2444597271E+00  5.1357843574E+00  5.2822034071E+00
                       1.5733379181E+01  1.5407353072E+01  1.5810689028E+01
                       1.0488919454E+01  1.5636516217E+01  1.0572956756E+01
                       1.0488919454E+01  1.0271568715E+01  5.0384117974E+00
                       1.0488919454E+01  1.0271568715E+01  1.5794015844E+01
                       1.0488919454E+01  4.9066212128E+00  1.0572956756E+01
                       1.5602487775E+01  1.0271568715E+01  1.0515393163E+01
                       5.3753511335E+00  1.0271568715E+01  1.0515393163E+01
                       1.7461530060E-12  1.0222084977E-13  1.2586505546E-01
            xcart6     5.2403168802E+00  5.1292487126E+00  5.2765502957E+00
                       1.5720950641E+01  1.5387746138E+01  1.5795007558E+01
                       1.0480633760E+01  1.5611315977E+01  1.0562888719E+01
                       1.0480633760E+01  1.0258497425E+01  5.0381579228E+00
                       1.0480633761E+01  1.0258497425E+01  1.5775968451E+01
                       1.0480633761E+01  4.9056788731E+00  1.0562888719E+01
                       1.5587530890E+01  1.0258497425E+01  1.0504958625E+01
                       5.3737366308E+00  1.0258497425E+01  1.0504958625E+01
                       1.7515764886E-12  1.0258089717E-13  1.2627918384E-01
            xcart7     5.2355479310E+00  5.1233996620E+00  5.2719067057E+00
                       1.5706643793E+01  1.5370198986E+01  1.5780185134E+01
                       1.0471095862E+01  1.5588735076E+01  1.0552002740E+01
                       1.0471095862E+01  1.0246799324E+01  5.0376135243E+00
                       1.0471095862E+01  1.0246799324E+01  1.5757413132E+01
                       1.0471095862E+01  4.9048635720E+00  1.0552002740E+01
                       1.5570175435E+01  1.0246799324E+01  1.0494434174E+01
                       5.3720162895E+00  1.0246799324E+01  1.0494434174E+01
                       1.7500981483E-12  1.0296600409E-13  1.2623510350E-01
            xcart8     5.2305357920E+00  5.1178641442E+00  5.2667860632E+00
                       1.5691607376E+01  1.5353592433E+01  1.5764730893E+01
                       1.0461071584E+01  1.5567416149E+01  1.0541438093E+01
                       1.0461071584E+01  1.0235728288E+01  5.0370351218E+00
                       1.0461071584E+01  1.0235728288E+01  1.5738803410E+01
                       1.0461071584E+01  4.9040404279E+00  1.0541438093E+01
                       1.5551911012E+01  1.0235728288E+01  1.0483498042E+01
                       5.3702321563E+00  1.0235728288E+01  1.0483498042E+01
                       1.7513092571E-12  1.0300328522E-13  1.2633087877E-01
            xcart9     5.2257074436E+00  5.1120594202E+00  5.2614132282E+00
                       1.5677122331E+01  1.5336178260E+01  1.5749207962E+01
                       1.0451414887E+01  1.5545013976E+01  1.0530725895E+01
                       1.0451414887E+01  1.0224118840E+01  5.0368520326E+00
                       1.0451414887E+01  1.0224118840E+01  1.5720714033E+01
                       1.0451414887E+01  4.9032237047E+00  1.0530725895E+01
                       1.5534365493E+01  1.0224118840E+01  1.0472970316E+01
                       5.3684642818E+00  1.0224118840E+01  1.0472970315E+01
                       1.7575675323E-12  1.0329199806E-13  1.2677819463E-01
            xcart10    5.2210224057E+00  5.1060105136E+00  5.2558465479E+00
                       1.5663067217E+01  1.5318031541E+01  1.5733704904E+01
                       1.0442044811E+01  1.5521610814E+01  1.0520632833E+01
                       1.0442044811E+01  1.0212021027E+01  5.0367428099E+00
                       1.0442044811E+01  1.0212021027E+01  1.5703104401E+01
                       1.0442044811E+01  4.9024312399E+00  1.0520632833E+01
                       1.5517412941E+01  1.0212021027E+01  1.0462435517E+01
                       5.3666766816E+00  1.0212021027E+01  1.0462435517E+01
                       1.7673061624E-12  1.0239874539E-13  1.2733148459E-01
             xred1     2.5082972404E-01  2.5082972404E-01  2.4917027596E-01
                       7.5082972404E-01  7.5082972404E-01  7.4917027596E-01
                       7.6419745851E-01  2.4017985695E-01  7.5982014305E-01
                       2.3836947439E-01  2.3836947439E-01  7.6163052561E-01
                       7.5068024924E-01  7.5068024924E-01  2.4931975076E-01
                       2.4017985695E-01  7.6419745851E-01  2.3580254149E-01
                       2.5506604301E-01  7.4393808713E-01  7.4493395699E-01
                       7.4393808713E-01  2.5506604301E-01  2.5606191287E-01
                       5.9093826846E-03  5.9093826846E-03 -5.9093826846E-03
             xred2     2.5084702441E-01  2.5084702441E-01  2.4915297559E-01
                       7.5084702441E-01  7.5084702441E-01  7.4915297559E-01
                       7.6395511667E-01  2.4037739408E-01  7.5962260592E-01
                       2.3859337938E-01  2.3859337938E-01  7.6140662062E-01
                       7.5052861261E-01  7.5052861261E-01  2.4947138739E-01
                       2.4037739408E-01  7.6395511667E-01  2.3604488333E-01
                       2.5520089450E-01  7.4372750943E-01  7.4479910550E-01
                       7.4372750943E-01  2.5520089450E-01  2.5627249057E-01
                       5.9230445149E-03  5.9230445149E-03 -5.9230445149E-03
             xred3     2.5084893349E-01  2.5084893349E-01  2.4915106651E-01
                       7.5084893349E-01  7.5084893349E-01  7.4915106651E-01
                       7.6372758865E-01  2.4057427143E-01  7.5942572857E-01
                       2.3881752174E-01  2.3881752174E-01  7.6118247826E-01
                       7.5037278584E-01  7.5037278584E-01  2.4962721416E-01
                       2.4057427143E-01  7.6372758865E-01  2.3627241135E-01
                       2.5534202543E-01  7.4352837034E-01  7.4465797457E-01
                       7.4352837034E-01  2.5534202543E-01  2.5647162966E-01
                       5.9395695695E-03  5.9395695695E-03 -5.9395695695E-03
             xred4     2.5084923427E-01  2.5084923427E-01  2.4915076573E-01
                       7.5084923427E-01  7.5084923427E-01  7.4915076573E-01
                       7.6349387740E-01  2.4076356785E-01  7.5923643215E-01
                       2.3905068464E-01  2.3905068464E-01  7.6094931536E-01
                       7.5021798567E-01  7.5021798567E-01  2.4978201433E-01
                       2.4076356785E-01  7.6349387740E-01  2.3650612260E-01
                       2.5547712063E-01  7.4333483886E-01  7.4452287937E-01
                       7.4333483886E-01  2.5547712063E-01  2.5666516114E-01
                       5.9634563833E-03  5.9634563833E-03 -5.9634563833E-03
             xred5     2.5085295251E-01  2.5085295251E-01  2.4914704749E-01
                       7.5085295251E-01  7.5085295251E-01  7.4914704749E-01
                       7.6326716002E-01  2.4095672712E-01  7.5904327288E-01
                       2.3927523761E-01  2.3927523761E-01  7.6072476239E-01
                       7.5006113947E-01  7.5006113947E-01  2.4993886053E-01
                       2.4095672712E-01  7.6326716002E-01  2.3673283998E-01
                       2.5561774499E-01  7.4313872778E-01  7.4438225501E-01
                       7.4313872778E-01  2.5561774499E-01  2.5686127222E-01
                       5.9773579975E-03  5.9773579975E-03 -5.9773579975E-03
             xred6     2.5082339377E-01  2.5082339377E-01  2.4917660623E-01
                       7.5082339377E-01  7.5082339377E-01  7.4917660623E-01
                       7.6300888315E-01  2.4121525877E-01  7.5878474123E-01
                       2.3949129597E-01  2.3949129597E-01  7.6050870403E-01
                       7.4991836052E-01  7.4991836052E-01  2.5008163948E-01
                       2.4121525877E-01  7.6300888315E-01  2.3699111685E-01
                       2.5572339689E-01  7.4299327450E-01  7.4427660311E-01
                       7.4299327450E-01  2.5572339689E-01  2.5700672550E-01
                       6.0027426401E-03  6.0027426401E-03 -6.0027426401E-03
             xred7     2.5084540449E-01  2.5084540449E-01  2.4915459551E-01
                       7.5084540449E-01  7.5084540449E-01  7.4915459551E-01
                       7.6274409668E-01  2.4141684286E-01  7.5858315714E-01
                       2.3969737567E-01  2.3969737567E-01  7.6030262433E-01
                       7.4976187770E-01  7.4976187770E-01  2.5023812230E-01
                       2.4141684286E-01  7.6274409668E-01  2.3725590332E-01
                       2.5585770069E-01  7.4282483763E-01  7.4414229931E-01
                       7.4282483763E-01  2.5585770069E-01  2.5717516237E-01
                       6.0064597811E-03  6.0064597811E-03 -6.0064597811E-03
             xred8     2.5084843504E-01  2.5084843504E-01  2.4915156496E-01
                       7.5084843504E-01  7.5084843504E-01  7.4915156496E-01
                       7.6251648161E-01  2.4162654488E-01  7.5837345512E-01
                       2.3990577220E-01  2.3990577220E-01  7.6009422780E-01
                       7.4961355131E-01  7.4961355131E-01  2.5038644869E-01
                       2.4162654488E-01  7.6251648161E-01  2.3748351839E-01
                       2.5598888549E-01  7.4263496059E-01  7.4401111451E-01
                       7.4263496059E-01  2.5598888549E-01  2.5736503941E-01
                       6.0169338294E-03  6.0169338294E-03 -6.0169338294E-03
             xred9     2.5083505930E-01  2.5083505930E-01  2.4916494070E-01
                       7.5083505930E-01  7.5083505930E-01  7.4916494070E-01
                       7.6225961567E-01  2.4183382458E-01  7.5816617542E-01
                       2.4012922451E-01  2.4012922451E-01  7.5987077549E-01
                       7.4947662650E-01  7.4947662650E-01  2.5052337350E-01
                       2.4183382458E-01  7.6225961567E-01  2.3774038433E-01
                       2.5612279981E-01  7.4246370774E-01  7.4387720019E-01
                       7.4246370774E-01  2.5612279981E-01  2.5753629226E-01
                       6.0440825667E-03  6.0440825667E-03 -6.0440825667E-03
             xred10    2.5080729140E-01  2.5080729140E-01  2.4919270860E-01
                       7.5080729140E-01  7.5080729140E-01  7.4919270860E-01
                       7.6200881315E-01  2.4207355517E-01  7.5792644483E-01
                       2.4035173214E-01  2.4035173214E-01  7.5964826786E-01
                       7.4934704533E-01  7.4934704533E-01  2.5065295467E-01
                       2.4207355517E-01  7.6200881315E-01  2.3799118685E-01
                       2.5623844061E-01  7.4228961367E-01  7.4376155939E-01
                       7.4228961367E-01  2.5623844061E-01  2.5771038633E-01
                       6.0762171173E-03  6.0762171173E-03 -6.0762171173E-03
            znucl       55.00000   53.00000   72.00000   35.00000

================================================================================


- Timing analysis has been suppressed with timopt=0



================================================================================

 Suggested references for the acknowledgment of ABINIT usage.

 The users of ABINIT have little formal obligations with respect to the ABINIT group
 (those specified in the GNU General Public License, http://www.gnu.org/copyleft/gpl.txt).
 However, it is common practice in the scientific literature,
 to acknowledge the efforts of people that have made the research possible.
 In this spirit, please find below suggested citations of work written by ABINIT developers,
 corresponding to implementations inside of ABINIT that you have used in the present run.
 Note also that it will be of great value to readers of publications presenting these results,
 to read papers enabling them to understand the theoretical formalism and details
 of the ABINIT implementation.
 For information on why they are suggested, see also https://docs.abinit.org/theory/acknowledgments.
-
- [1] Implementation of the Projector Augmented-Wave Method in the ABINIT code.
- M. Torrent, F. Jollet, F. Bottin, G. Zerah, and X. Gonze Comput. Mat. Science 42, 337, (2008).
- Comment: PAW calculations. Strong suggestion to cite this paper.
- DOI and bibtex: see https://docs.abinit.org/theory/bibliography/#torrent2008
-
- [2] Libxc: A library of exchange and correlation functionals for density functional theory.
- M.A.L. Marques, M.J.T. Oliveira, T. Burnus, Computer Physics Communications 183, 2227 (2012).
- Comment: to be cited when LibXC is used (negative value of ixc)
- Strong suggestion to cite this paper.
- DOI and bibtex: see https://docs.abinit.org/theory/bibliography/#marques2012
-
- [3] The Abinit project: Impact, environment and recent developments.
- Computer Phys. Comm. 248, 107042 (2020).
- X.Gonze, B. Amadon, G. Antonius, F.Arnardi, L.Baguet, J.-M.Beuken,
- J.Bieder, F.Bottin, J.Bouchet, E.Bousquet, N.Brouwer, F.Bruneval,
- G.Brunin, T.Cavignac, J.-B. Charraud, Wei Chen, M.Cote, S.Cottenier,
- J.Denier, G.Geneste, Ph.Ghosez, M.Giantomassi, Y.Gillet, O.Gingras,
- D.R.Hamann, G.Hautier, Xu He, N.Helbig, N.Holzwarth, Y.Jia, F.Jollet,
- W.Lafargue-Dit-Hauret, K.Lejaeghere, M.A.L.Marques, A.Martin, C.Martins,
- H.P.C. Miranda, F.Naccarato, K. Persson, G.Petretto, V.Planes, Y.Pouillon,
- S.Prokhorenko, F.Ricci, G.-M.Rignanese, A.H.Romero, M.M.Schmitt, M.Torrent,
- M.J.van Setten, B.Van Troeye, M.J.Verstraete, G.Zerah and J.W.Zwanzig
- Comment: the fifth generic paper describing the ABINIT project.
- Note that a version of this paper, that is not formatted for Computer Phys. Comm. 
- is available at https://www.abinit.org/sites/default/files/ABINIT20.pdf .
- The licence allows the authors to put it on the Web.
- DOI and bibtex: see https://docs.abinit.org/theory/bibliography/#gonze2020
-
- [4] ABINIT: Overview, and focus on selected capabilities
- J. Chem. Phys. 152, 124102 (2020).
- A. Romero, D.C. Allan, B. Amadon, G. Antonius, T. Applencourt, L.Baguet,
- J.Bieder, F.Bottin, J.Bouchet, E.Bousquet, F.Bruneval,
- G.Brunin, D.Caliste, M.Cote,
- J.Denier, C. Dreyer, Ph.Ghosez, M.Giantomassi, Y.Gillet, O.Gingras,
- D.R.Hamann, G.Hautier, F.Jollet, G. Jomard,
- A.Martin, 
- H.P.C. Miranda, F.Naccarato, G.Petretto, N.A. Pike, V.Planes,
- S.Prokhorenko, T. Rangel, F.Ricci, G.-M.Rignanese, M.Royo, M.Stengel, M.Torrent,
- M.J.van Setten, B.Van Troeye, M.J.Verstraete, J.Wiktor, J.W.Zwanziger, and X.Gonze.
- Comment: a global overview of ABINIT, with focus on selected capabilities .
- Note that a version of this paper, that is not formatted for J. Chem. Phys 
- is available at https://www.abinit.org/sites/default/files/ABINIT20_JPC.pdf .
- The licence allows the authors to put it on the Web.
- DOI and bibtex: see https://docs.abinit.org/theory/bibliography/#romero2020
-
- [5] Recent developments in the ABINIT software package.
- Computer Phys. Comm. 205, 106 (2016).
- X.Gonze, F.Jollet, F.Abreu Araujo, D.Adams, B.Amadon, T.Applencourt,
- C.Audouze, J.-M.Beuken, J.Bieder, A.Bokhanchuk, E.Bousquet, F.Bruneval
- D.Caliste, M.Cote, F.Dahm, F.Da Pieve, M.Delaveau, M.Di Gennaro,
- B.Dorado, C.Espejo, G.Geneste, L.Genovese, A.Gerossier, M.Giantomassi,
- Y.Gillet, D.R.Hamann, L.He, G.Jomard, J.Laflamme Janssen, S.Le Roux,
- A.Levitt, A.Lherbier, F.Liu, I.Lukacevic, A.Martin, C.Martins,
- M.J.T.Oliveira, S.Ponce, Y.Pouillon, T.Rangel, G.-M.Rignanese,
- A.H.Romero, B.Rousseau, O.Rubel, A.A.Shukri, M.Stankovski, M.Torrent,
- M.J.Van Setten, B.Van Troeye, M.J.Verstraete, D.Waroquier, J.Wiktor,
- B.Xu, A.Zhou, J.W.Zwanziger.
- Comment: the fourth generic paper describing the ABINIT project.
- Note that a version of this paper, that is not formatted for Computer Phys. Comm. 
- is available at https://www.abinit.org/sites/default/files/ABINIT16.pdf .
- The licence allows the authors to put it on the Web.
- DOI and bibtex: see https://docs.abinit.org/theory/bibliography/#gonze2016
-
- Proc.   0 individual time (sec): cpu=      44902.0  wall=      44903.3

================================================================================

 Calculation completed.
.Delivered   0 WARNINGs and 154 COMMENTs to log file.
+Overall time at end (sec) : cpu=     269412.5  wall=     269419.6
