
.Version 9.2.2 of ABINIT 
.(MPI version, prepared for a x86_64_linux_gnu9.3 computer) 

.Copyright (C) 1998-2020 ABINIT group . 
 ABINIT comes with ABSOLUTELY NO WARRANTY.
 It is free software, and you are welcome to redistribute it
 under certain conditions (GNU General Public License,
 see ~abinit/COPYING or http://www.gnu.org/copyleft/gpl.txt).

 ABINIT is a project of the Universite Catholique de Louvain,
 Corning Inc. and other collaborators, see ~abinit/doc/developers/contributors.txt .
 Please read https://docs.abinit.org/theory/acknowledgments for suggested
 acknowledgments of the ABINIT effort.
 For more information, see https://www.abinit.org .

.Starting date : Sat 10 Dec 2022.
- ( at 23h42 )
  
- The starting date is more than 2 years after the initial release
- of this version of ABINIT, namely Nov 2020.
- Note that the use beyond 3 years after the release will not be supported.
- Action: please, switch to a more recent version of ABINIT.

- input  file    -> Cs2TiI6.in
- output file    -> Cs2TiI6.out
- root for input  files -> Cs2TiI6i
- root for output files -> Cs2TiI6o

- inpspheads : Reading pseudopotential header in XML form from 
-   ../../../Psps_for_tests/ATOMICDATA/Cs.GGA_PBE-JTH.xml
- inpspheads : Reading pseudopotential header in XML form from 
-   ../../../Psps_for_tests/ATOMICDATA/I.GGA_PBE-JTH.xml
- inpspheads : Reading pseudopotential header in XML form from 
-   ../../../Psps_for_tests/ATOMICDATA/Zr.GGA_PBE-JTH.xml
- inpspheads : Reading pseudopotential header in XML form from 
-   ../../../Psps_for_tests/ATOMICDATA/Cl.GGA_PBE-JTH.xml

 DATASET    1 : space group Fm m 2 (# 42); Bravais oF (face-center ortho.)
================================================================================
 Values of the parameters that define the memory need for DATASET  1.
     intxc =       0    ionmov =       0      iscf =      17    lmnmax =      18
     lnmax =       6     mgfft =      60  mpssoang =       3    mqgrid =    3555
     natom =       9  nloc_mem =       2    nspden =       1   nspinor =       1
    nsppol =       1      nsym =       4    n1xccc =       1    ntypat =       4
    occopt =       1   xclevel =       2
-    mband =          42        mffmem =           1         mkmem =          70
       mpw =        7764          nfft =      216000          nkpt =         280
Pmy_natom=         3
 PAW method is used; the additional fine FFT grid is defined by:
   mgfftf=        90    nfftf =    729000
================================================================================
P This job should need less than                     603.222 Mbytes of memory.
  Rough estimation (10% accuracy) of disk space for files :
_ WF disk file :   1393.200 Mbytes ; DEN or POT disk file :      5.564 Mbytes.
================================================================================


 DATASET    2 : space group Fm m 2 (# 42); Bravais oF (face-center ortho.)
================================================================================
 Values of the parameters that define the memory need for DATASET  2.
     intxc =       0    ionmov =       0      iscf =      17    lmnmax =      18
     lnmax =       6     mgfft =      60  mpssoang =       3    mqgrid =    3519
     natom =       9  nloc_mem =       2    nspden =       1   nspinor =       1
    nsppol =       1      nsym =       4    n1xccc =       1    ntypat =       4
    occopt =       1   xclevel =       2
-    mband =          42        mffmem =           1         mkmem =          70
       mpw =        7537          nfft =      216000          nkpt =         280
Pmy_natom=         3
 PAW method is used; the additional fine FFT grid is defined by:
   mgfftf=        90    nfftf =    729000
================================================================================
P This job should need less than                     591.887 Mbytes of memory.
  Rough estimation (10% accuracy) of disk space for files :
_ WF disk file :   1352.467 Mbytes ; DEN or POT disk file :      5.564 Mbytes.
================================================================================


 DATASET    3 : space group Fm m 2 (# 42); Bravais oF (face-center ortho.)
================================================================================
 Values of the parameters that define the memory need for DATASET  3.
     intxc =       0    ionmov =       0      iscf =      17    lmnmax =      18
     lnmax =       6     mgfft =      60  mpssoang =       3    mqgrid =    3483
     natom =       9  nloc_mem =       2    nspden =       1   nspinor =       1
    nsppol =       1      nsym =       4    n1xccc =       1    ntypat =       4
    occopt =       1   xclevel =       2
-    mband =          42        mffmem =           1         mkmem =          70
       mpw =        7303          nfft =      216000          nkpt =         280
Pmy_natom=         3
 PAW method is used; the additional fine FFT grid is defined by:
   mgfftf=        90    nfftf =    729000
================================================================================
P This job should need less than                     580.204 Mbytes of memory.
  Rough estimation (10% accuracy) of disk space for files :
_ WF disk file :   1310.477 Mbytes ; DEN or POT disk file :      5.564 Mbytes.
================================================================================


 DATASET    4 : space group Fm m 2 (# 42); Bravais oF (face-center ortho.)
================================================================================
 Values of the parameters that define the memory need for DATASET  4.
     intxc =       0    ionmov =       0      iscf =      17    lmnmax =      18
     lnmax =       6     mgfft =      54  mpssoang =       3    mqgrid =    3447
     natom =       9  nloc_mem =       2    nspden =       1   nspinor =       1
    nsppol =       1      nsym =       4    n1xccc =       1    ntypat =       4
    occopt =       1   xclevel =       2
-    mband =          42        mffmem =           1         mkmem =          70
       mpw =        7091          nfft =      157464          nkpt =         280
Pmy_natom=         3
 PAW method is used; the additional fine FFT grid is defined by:
   mgfftf=        90    nfftf =    729000
================================================================================
P This job should need less than                     560.923 Mbytes of memory.
  Rough estimation (10% accuracy) of disk space for files :
_ WF disk file :   1272.435 Mbytes ; DEN or POT disk file :      5.564 Mbytes.
================================================================================


 DATASET    5 : space group Fm m 2 (# 42); Bravais oF (face-center ortho.)
================================================================================
 Values of the parameters that define the memory need for DATASET  5.
     intxc =       0    ionmov =       0      iscf =      17    lmnmax =      18
     lnmax =       6     mgfft =      54  mpssoang =       3    mqgrid =    3411
     natom =       9  nloc_mem =       2    nspden =       1   nspinor =       1
    nsppol =       1      nsym =       4    n1xccc =       1    ntypat =       4
    occopt =       1   xclevel =       2
-    mband =          42        mffmem =           1         mkmem =          70
       mpw =        6874          nfft =      157464          nkpt =         280
Pmy_natom=         3
 PAW method is used; the additional fine FFT grid is defined by:
   mgfftf=        90    nfftf =    729000
================================================================================
P This job should need less than                     550.110 Mbytes of memory.
  Rough estimation (10% accuracy) of disk space for files :
_ WF disk file :   1233.496 Mbytes ; DEN or POT disk file :      5.564 Mbytes.
================================================================================


 DATASET    6 : space group Fm m 2 (# 42); Bravais oF (face-center ortho.)
================================================================================
 Values of the parameters that define the memory need for DATASET  6.
     intxc =       0    ionmov =       0      iscf =      17    lmnmax =      18
     lnmax =       6     mgfft =      54  mpssoang =       3    mqgrid =    3375
     natom =       9  nloc_mem =       2    nspden =       1   nspinor =       1
    nsppol =       1      nsym =       4    n1xccc =       1    ntypat =       4
    occopt =       1   xclevel =       2
-    mband =          42        mffmem =           1         mkmem =          70
       mpw =        6664          nfft =      157464          nkpt =         280
Pmy_natom=         3
 PAW method is used; the additional fine FFT grid is defined by:
   mgfftf=        90    nfftf =    729000
================================================================================
P This job should need less than                     539.656 Mbytes of memory.
  Rough estimation (10% accuracy) of disk space for files :
_ WF disk file :   1195.813 Mbytes ; DEN or POT disk file :      5.564 Mbytes.
================================================================================


 DATASET    7 : space group Fm m 2 (# 42); Bravais oF (face-center ortho.)
================================================================================
 Values of the parameters that define the memory need for DATASET  7.
     intxc =       0    ionmov =       0      iscf =      17    lmnmax =      18
     lnmax =       6     mgfft =      54  mpssoang =       3    mqgrid =    3339
     natom =       9  nloc_mem =       2    nspden =       1   nspinor =       1
    nsppol =       1      nsym =       4    n1xccc =       1    ntypat =       4
    occopt =       1   xclevel =       2
-    mband =          42        mffmem =           1         mkmem =          70
       mpw =        6446          nfft =      157464          nkpt =         280
Pmy_natom=         3
 PAW method is used; the additional fine FFT grid is defined by:
   mgfftf=        90    nfftf =    729000
================================================================================
P This job should need less than                     528.805 Mbytes of memory.
  Rough estimation (10% accuracy) of disk space for files :
_ WF disk file :   1156.694 Mbytes ; DEN or POT disk file :      5.564 Mbytes.
================================================================================


 DATASET    8 : space group Fm m 2 (# 42); Bravais oF (face-center ortho.)
================================================================================
 Values of the parameters that define the memory need for DATASET  8.
     intxc =       0    ionmov =       0      iscf =      17    lmnmax =      18
     lnmax =       6     mgfft =      54  mpssoang =       3    mqgrid =    3303
     natom =       9  nloc_mem =       2    nspden =       1   nspinor =       1
    nsppol =       1      nsym =       4    n1xccc =       1    ntypat =       4
    occopt =       1   xclevel =       2
-    mband =          42        mffmem =           1         mkmem =          70
       mpw =        6252          nfft =      157464          nkpt =         280
Pmy_natom=         3
 PAW method is used; the additional fine FFT grid is defined by:
   mgfftf=        90    nfftf =    729000
================================================================================
P This job should need less than                     519.172 Mbytes of memory.
  Rough estimation (10% accuracy) of disk space for files :
_ WF disk file :   1121.882 Mbytes ; DEN or POT disk file :      5.564 Mbytes.
================================================================================


 DATASET    9 : space group Fm m 2 (# 42); Bravais oF (face-center ortho.)
================================================================================
 Values of the parameters that define the memory need for DATASET  9.
     intxc =       0    ionmov =       0      iscf =      17    lmnmax =      18
     lnmax =       6     mgfft =      54  mpssoang =       3    mqgrid =    3267
     natom =       9  nloc_mem =       2    nspden =       1   nspinor =       1
    nsppol =       1      nsym =       4    n1xccc =       1    ntypat =       4
    occopt =       1   xclevel =       2
-    mband =          42        mffmem =           1         mkmem =          70
       mpw =        6037          nfft =      157464          nkpt =         280
Pmy_natom=         3
 PAW method is used; the additional fine FFT grid is defined by:
   mgfftf=        90    nfftf =    729000
================================================================================
P This job should need less than                     508.487 Mbytes of memory.
  Rough estimation (10% accuracy) of disk space for files :
_ WF disk file :   1083.302 Mbytes ; DEN or POT disk file :      5.564 Mbytes.
================================================================================


 DATASET   10 : space group Fm m 2 (# 42); Bravais oF (face-center ortho.)
================================================================================
 Values of the parameters that define the memory need for DATASET 10.
     intxc =       0    ionmov =       0      iscf =      17    lmnmax =      18
     lnmax =       6     mgfft =      54  mpssoang =       3    mqgrid =    3231
     natom =       9  nloc_mem =       2    nspden =       1   nspinor =       1
    nsppol =       1      nsym =       4    n1xccc =       1    ntypat =       4
    occopt =       1   xclevel =       2
-    mband =          42        mffmem =           1         mkmem =          70
       mpw =        5853          nfft =      157464          nkpt =         280
Pmy_natom=         3
 PAW method is used; the additional fine FFT grid is defined by:
   mgfftf=        90    nfftf =    729000
================================================================================
P This job should need less than                     499.374 Mbytes of memory.
  Rough estimation (10% accuracy) of disk space for files :
_ WF disk file :   1050.284 Mbytes ; DEN or POT disk file :      5.564 Mbytes.
================================================================================

--------------------------------------------------------------------------------
------------- Echo of variables that govern the present computation ------------
--------------------------------------------------------------------------------
-
- outvars: echo of selected default values                                      
-   iomode0 =  0 , fftalg0 =112 , wfoptalg0 = 10
-
- outvars: echo of global parameters not present in the input file              
-  max_nthreads =    0
-
 -outvars: echo values of preprocessed input variables --------
            acell1     1.5280891701E+01  1.5152558974E+01  1.5460009124E+01 Bohr
            acell2     1.5145882349E+01  1.4988223827E+01  1.5295833374E+01 Bohr
            acell3     1.5009071163E+01  1.4825637044E+01  1.5131844743E+01 Bohr
            acell4     1.4865759558E+01  1.4662068010E+01  1.4976093619E+01 Bohr
            acell5     1.4721259568E+01  1.4500901413E+01  1.4818925527E+01 Bohr
            acell6     1.4572218011E+01  1.4340209290E+01  1.4666063482E+01 Bohr
            acell7     1.4418338873E+01  1.4183912127E+01  1.4513203786E+01 Bohr
            acell8     1.4258643940E+01  1.4029153988E+01  1.4364703883E+01 Bohr
            acell9     1.4097767019E+01  1.3876952035E+01  1.4214498571E+01 Bohr
            acell10    1.3931200635E+01  1.3725745396E+01  1.4069293778E+01 Bohr
              amu      1.32905430E+02  1.26904470E+02  9.12240000E+01
                       3.54527000E+01
           diemac      1.20000000E+01
             ecut      1.60000000E+01 Hartree
-          fftalg         112
           istwfk        2    0    0    0    0    0    3    0    0    0
                         0    0    0    0    0    0    0    0    0    0
                         0    0    0    0    0    0    0    0    0    0
                         0    0    0    0    0    0    0    0    0    0
                         0    0    7    0    0    0    0    0    0    0
                       outvar_i_n : Printing only first  50 k-points.
              ixc     -101130
           jdtset        1    2    3    4    5    6    7    8    9   10
              kpt      0.00000000E+00  0.00000000E+00  0.00000000E+00
                       8.33333333E-02  0.00000000E+00  0.00000000E+00
                       1.66666667E-01  0.00000000E+00  0.00000000E+00
                       2.50000000E-01  0.00000000E+00  0.00000000E+00
                       3.33333333E-01  0.00000000E+00  0.00000000E+00
                       4.16666667E-01  0.00000000E+00  0.00000000E+00
                       5.00000000E-01  0.00000000E+00  0.00000000E+00
                       8.33333333E-02  8.33333333E-02  0.00000000E+00
                       1.66666667E-01  8.33333333E-02  0.00000000E+00
                       2.50000000E-01  8.33333333E-02  0.00000000E+00
                       3.33333333E-01  8.33333333E-02  0.00000000E+00
                       4.16666667E-01  8.33333333E-02  0.00000000E+00
                       5.00000000E-01  8.33333333E-02  0.00000000E+00
                      -4.16666667E-01  8.33333333E-02  0.00000000E+00
                      -3.33333333E-01  8.33333333E-02  0.00000000E+00
                      -2.50000000E-01  8.33333333E-02  0.00000000E+00
                      -1.66666667E-01  8.33333333E-02  0.00000000E+00
                      -8.33333333E-02  8.33333333E-02  0.00000000E+00
                       1.66666667E-01  1.66666667E-01  0.00000000E+00
                       2.50000000E-01  1.66666667E-01  0.00000000E+00
                       3.33333333E-01  1.66666667E-01  0.00000000E+00
                       4.16666667E-01  1.66666667E-01  0.00000000E+00
                       5.00000000E-01  1.66666667E-01  0.00000000E+00
                      -4.16666667E-01  1.66666667E-01  0.00000000E+00
                      -3.33333333E-01  1.66666667E-01  0.00000000E+00
                      -2.50000000E-01  1.66666667E-01  0.00000000E+00
                      -1.66666667E-01  1.66666667E-01  0.00000000E+00
                       2.50000000E-01  2.50000000E-01  0.00000000E+00
                       3.33333333E-01  2.50000000E-01  0.00000000E+00
                       4.16666667E-01  2.50000000E-01  0.00000000E+00
                       5.00000000E-01  2.50000000E-01  0.00000000E+00
                      -4.16666667E-01  2.50000000E-01  0.00000000E+00
                      -3.33333333E-01  2.50000000E-01  0.00000000E+00
                      -2.50000000E-01  2.50000000E-01  0.00000000E+00
                       3.33333333E-01  3.33333333E-01  0.00000000E+00
                       4.16666667E-01  3.33333333E-01  0.00000000E+00
                       5.00000000E-01  3.33333333E-01  0.00000000E+00
                      -4.16666667E-01  3.33333333E-01  0.00000000E+00
                      -3.33333333E-01  3.33333333E-01  0.00000000E+00
                       4.16666667E-01  4.16666667E-01  0.00000000E+00
                       5.00000000E-01  4.16666667E-01  0.00000000E+00
                      -4.16666667E-01  4.16666667E-01  0.00000000E+00
                       5.00000000E-01  5.00000000E-01  0.00000000E+00
                       8.33333333E-02  0.00000000E+00  8.33333333E-02
                       1.66666667E-01  0.00000000E+00  8.33333333E-02
                       2.50000000E-01  0.00000000E+00  8.33333333E-02
                       3.33333333E-01  0.00000000E+00  8.33333333E-02
                       4.16666667E-01  0.00000000E+00  8.33333333E-02
                       5.00000000E-01  0.00000000E+00  8.33333333E-02
                      -4.16666667E-01  0.00000000E+00  8.33333333E-02
                       outvar_i_n : Printing only first  50 k-points.
         kptrlatt       12    0    0      0   12    0      0    0   12
          kptrlen1     1.81830708E+02
          kptrlen2     1.79858686E+02
          kptrlen3     1.77907645E+02
          kptrlen4     1.75944816E+02
          kptrlen5     1.74010817E+02
          kptrlen6     1.72082511E+02
          kptrlen7     1.70206946E+02
          kptrlen8     1.68349848E+02
          kptrlen9     1.66523424E+02
          kptrlen10    1.64708945E+02
P           mkmem          70
            natom           9
            nband          42
           ndtset          10
            ngfft1         60      60      60
            ngfft2         60      60      60
            ngfft3         60      60      60
            ngfft4         54      54      54
            ngfft5         54      54      54
            ngfft6         54      54      54
            ngfft7         54      54      54
            ngfft8         54      54      54
            ngfft9         54      54      54
            ngfft10        54      54      54
          ngfftdg          90      90      90
             nkpt         280
            nstep        2500
             nsym           4
           ntypat           4
              occ      2.000000  2.000000  2.000000  2.000000  2.000000  2.000000
                       2.000000  2.000000  2.000000  2.000000  2.000000  2.000000
                       2.000000  2.000000  2.000000  2.000000  2.000000  2.000000
                       2.000000  2.000000  2.000000  2.000000  2.000000  2.000000
                       2.000000  2.000000  2.000000  2.000000  2.000000  2.000000
                       2.000000  2.000000  2.000000  2.000000  2.000000  2.000000
                       0.000000  0.000000  0.000000  0.000000  0.000000  0.000000
        pawecutdg      4.00000000E+01 Hartree
            prtwf           0
            rprim1     0.0000000000E+00  7.2121657104E-01  6.9270964888E-01
                       7.1553540706E-01  0.0000000000E+00  6.9857646772E-01
                       7.0130569565E-01  7.1286066048E-01  0.0000000000E+00
            rprim2     0.0000000000E+00  7.2132143523E-01  6.9260045270E-01
                       7.1425476674E-01  0.0000000000E+00  6.9988579654E-01
                       6.9989062064E-01  7.1425003965E-01  0.0000000000E+00
            rprim3     0.0000000000E+00  7.2136002220E-01  6.9256026335E-01
                       7.1303430284E-01  0.0000000000E+00  7.0112914856E-01
                       6.9860535535E-01  7.1550720295E-01  0.0000000000E+00
            rprim4     0.0000000000E+00  7.2184330550E-01  6.9205653115E-01
                       7.1250122278E-01  0.0000000000E+00  7.0167086838E-01
                       6.9756116993E-01  7.1652523626E-01  0.0000000000E+00
            rprim5     0.0000000000E+00  7.2215858839E-01  6.9172752816E-01
                       7.1194114545E-01  0.0000000000E+00  7.0223913691E-01
                       6.9666240937E-01  7.1739911302E-01  0.0000000000E+00
            rprim6     0.0000000000E+00  7.2267234910E-01  6.9119076661E-01
                       7.1180861940E-01  0.0000000000E+00  7.0237346857E-01
                       6.9599348106E-01  7.1804810028E-01  0.0000000000E+00
            rprim7     0.0000000000E+00  7.2299921102E-01  6.9084885529E-01
                       7.1191369658E-01  0.0000000000E+00  7.0226696392E-01
                       6.9576100931E-01  7.1827335877E-01  0.0000000000E+00
            rprim8     0.0000000000E+00  7.2348547255E-01  6.9033960557E-01
                       7.1253926924E-01  0.0000000000E+00  7.0163223258E-01
                       6.9589482746E-01  7.1814371062E-01  0.0000000000E+00
            rprim9     0.0000000000E+00  7.2377819548E-01  6.9003269760E-01
                       7.1314874649E-01  0.0000000000E+00  7.0101274267E-01
                       6.9621386217E-01  7.1783442250E-01  0.0000000000E+00
            rprim10    0.0000000000E+00  7.2429326686E-01  6.8949203300E-01
                       7.1432632095E-01  0.0000000000E+00  6.9981276582E-01
                       6.9688367917E-01  7.1718417280E-01  0.0000000000E+00
          spgroup          42
           symrel1     1  0  0   0  1  0   0  0  1       1  0  0   1  0 -1   1 -1  0
                       0 -1  1   0 -1  0   1 -1  0       0 -1  1  -1  0  1   0  0  1
           symrel2     1  0  0   0  1  0   0  0  1       1  0  0   1  0 -1   1 -1  0
                       0 -1  1   0 -1  0   1 -1  0       0 -1  1  -1  0  1   0  0  1
           symrel3     1  0  0   0  1  0   0  0  1       1  0  0   1  0 -1   1 -1  0
                       0 -1  1   0 -1  0   1 -1  0       0 -1  1  -1  0  1   0  0  1
           symrel4     1  0  0   0  1  0   0  0  1       1  0  0   1  0 -1   1 -1  0
                       0 -1  1   0 -1  0   1 -1  0       0 -1  1  -1  0  1   0  0  1
           symrel5     1  0  0   0  1  0   0  0  1       1  0  0   1  0 -1   1 -1  0
                       0 -1  1   0 -1  0   1 -1  0       0 -1  1  -1  0  1   0  0  1
           symrel6     1  0  0   0  1  0   0  0  1       0 -1  1   0 -1  0   1 -1  0
                       0 -1  1  -1  0  1   0  0  1       1  0  0   1  0 -1   1 -1  0
           symrel7     1  0  0   0  1  0   0  0  1       1  0  0   1  0 -1   1 -1  0
                       0 -1  1   0 -1  0   1 -1  0       0 -1  1  -1  0  1   0  0  1
           symrel8     1  0  0   0  1  0   0  0  1       1  0  0   1  0 -1   1 -1  0
                       0 -1  1   0 -1  0   1 -1  0       0 -1  1  -1  0  1   0  0  1
           symrel9     1  0  0   0  1  0   0  0  1       1  0  0   1  0 -1   1 -1  0
                       0 -1  1   0 -1  0   1 -1  0       0 -1  1  -1  0  1   0  0  1
           symrel10    1  0  0   0  1  0   0  0  1       0 -1  1   0 -1  0   1 -1  0
                       0 -1  1  -1  0  1   0  0  1       1  0  0   1  0 -1   1 -1  0
           toldfe      1.00000000E-08 Hartree
            typat      1  1  4  4  2  4  2  2  3
           useylm           1
              wtk        0.00058    0.00463    0.00463    0.00463    0.00463    0.00463
                         0.00231    0.00116    0.00463    0.00463    0.00463    0.00463
                         0.00463    0.00463    0.00463    0.00463    0.00463    0.00231
                         0.00116    0.00463    0.00463    0.00463    0.00463    0.00463
                         0.00463    0.00463    0.00231    0.00116    0.00463    0.00463
                         0.00463    0.00463    0.00463    0.00231    0.00116    0.00463
                         0.00463    0.00463    0.00231    0.00116    0.00463    0.00231
                         0.00058    0.00116    0.00463    0.00463    0.00463    0.00463
                         0.00463    0.00463
                       outvars : Printing only first  50 k-points.
           xangst1     2.8687205688E+00  2.9063254840E+00  2.8007288836E+00
                       8.6061617063E+00  8.7382987648E+00  8.4021866508E+00
                       5.7374411375E+00  5.7684442912E+00  2.4579820937E+00
                       5.7374411375E+00  5.7684442911E+00  8.7449334407E+00
                       8.5723271694E+00  5.8275538789E+00  5.6014577672E+00
                       5.7374411375E+00  9.1018790716E+00  5.6014577671E+00
                       5.7374411375E+00  2.8209663576E+00  5.6014577672E+00
                       2.9025551056E+00  5.8275538788E+00  5.6014577671E+00
                      -1.9870746532E-15 -1.0367977110E-01  9.5437808343E-13
           xangst2     2.8325295732E+00  2.8848472303E+00  2.7755463580E+00
                       8.4975887197E+00  8.6661344780E+00  8.3266390741E+00
                       5.6650591464E+00  5.7127211806E+00  2.4578974967E+00
                       5.6650591464E+00  5.7127211806E+00  8.6442879355E+00
                       8.4344142387E+00  5.7851064274E+00  5.5510927161E+00
                       5.6650591464E+00  8.9975313508E+00  5.5510927160E+00
                       5.6650591464E+00  2.8121630631E+00  5.5510927161E+00
                       2.8957040542E+00  5.7851064273E+00  5.5510927160E+00
                       3.1983367626E-13 -1.0603335560E-01  2.0447728181E-12
           xangst3     2.7970158188E+00  2.8655442638E+00  2.7503155342E+00
                       8.3910474564E+00  8.5949162183E+00  8.2509466027E+00
                       5.5940316376E+00  5.6521308785E+00  2.4575541324E+00
                       5.5940316376E+00  5.6521308784E+00  8.5437080045E+00
                       8.3002130928E+00  5.7435582874E+00  5.5006310685E+00
                       5.5940316376E+00  8.8902362117E+00  5.5006310684E+00
                       5.5940316376E+00  2.8019882213E+00  5.5006310685E+00
                       2.8878501825E+00  5.7435582873E+00  5.5006310684E+00
                       2.1599402430E-13 -1.0908761017E-01  1.1745352732E-12
           xangst4     2.7640887227E+00  2.8392955877E+00  2.7220732713E+00
                       8.2922661680E+00  8.5177633993E+00  8.1662198138E+00
                       5.5281774454E+00  5.6026665936E+00  2.4566243871E+00
                       5.5281774453E+00  5.6026665935E+00  8.4316686980E+00
                       8.1765835535E+00  5.6980258295E+00  5.4441465426E+00
                       5.5281774454E+00  8.7872543314E+00  5.4441465425E+00
                       5.5281774453E+00  2.7923601736E+00  5.4441465426E+00
                       2.8797713373E+00  5.6980258293E+00  5.4441465425E+00
                      -1.2455821171E-12 -1.1031584477E-01  1.0479935854E-12
           xangst5     2.7315567537E+00  2.8146690309E+00  2.6943323467E+00
                       8.1946702612E+00  8.4403964016E+00  8.0829970401E+00
                       5.4631135074E+00  5.5474211357E+00  2.4553024695E+00
                       5.4631135075E+00  5.5474211357E+00  8.3220269173E+00
                       8.0557021712E+00  5.6533434165E+00  5.3886646935E+00
                       5.4631135074E+00  8.6802589145E+00  5.3886646934E+00
                       5.4631135075E+00  2.7812371276E+00  5.3886646935E+00
                       2.8705248438E+00  5.6533434165E+00  5.3886646934E+00
                       6.0367921005E-13 -1.1227161294E-01  1.6249145068E-12
           xangst6     2.7007840974E+00  2.7918765057E+00  2.6649847201E+00
                       8.1023522923E+00  8.3646094210E+00  7.9949541603E+00
                       5.4015681948E+00  5.4924784203E+00  2.4535587040E+00
                       5.4015681949E+00  5.4924784203E+00  8.2063801764E+00
                       7.9428305873E+00  5.6074458161E+00  5.3299694403E+00
                       5.4015681948E+00  8.5724365288E+00  5.3299694401E+00
                       5.4015681949E+00  2.7681996606E+00  5.3299694403E+00
                       2.8603058025E+00  5.6074458160E+00  5.3299694401E+00
                       1.8462810806E-12 -1.1510726559E-01  4.4044086723E-12
           xangst7     2.6717419891E+00  2.7650490721E+00  2.6355387515E+00
                       8.0152259674E+00  8.2814291698E+00  7.9066162544E+00
                       5.3434839783E+00  5.4382488991E+00  2.4510557752E+00
                       5.3434839782E+00  5.4382488990E+00  8.0910992307E+00
                       7.8378869601E+00  5.5567677862E+00  5.2710775030E+00
                       5.3434839783E+00  8.4582371216E+00  5.2710775029E+00
                       5.3434839782E+00  2.7542861984E+00  5.2710775030E+00
                       2.8490809965E+00  5.5567677860E+00  5.2710775029E+00
                      -9.6558506389E-13 -1.1799415002E-01  1.9298870683E-12
           xangst8     2.6449131852E+00  2.7369460626E+00  2.6044267638E+00
                       7.9347395555E+00  8.1958967376E+00  7.8132802915E+00
                       5.2898263703E+00  5.3855722699E+00  2.4477064931E+00
                       5.2898263704E+00  5.3855722700E+00  7.9700005623E+00
                       7.7428313291E+00  5.5033738157E+00  5.2088535277E+00
                       5.2898263703E+00  8.3426816127E+00  5.2088535277E+00
                       5.2898263704E+00  2.7392271130E+00  5.2088535277E+00
                       2.8368214115E+00  5.5033738158E+00  5.2088535277E+00
                       2.8785675705E-12 -1.2103829715E-01  1.7974077312E-12
           xangst9     2.6184563934E+00  2.7092344567E+00  2.5738968300E+00
                       7.8553691802E+00  8.1087768536E+00  7.7216904901E+00
                       5.2369127868E+00  5.3298965818E+00  2.4435130764E+00
                       5.2369127868E+00  5.3298965819E+00  7.8520742437E+00
                       7.6505454283E+00  5.4484358886E+00  5.1477936600E+00
                       5.2369127868E+00  8.2236016907E+00  5.1477936601E+00
                       5.2369127868E+00  2.7226787262E+00  5.1477936600E+00
                       2.8232801454E+00  5.4484358887E+00  5.1477936601E+00
                      -3.8929744631E-13 -1.2461749256E-01 -1.8410668361E-12
           xangst10    2.5942016255E+00  2.6809474221E+00  2.5414930981E+00
                       7.7826048764E+00  8.0204908851E+00  7.6244792944E+00
                       5.1884032509E+00  5.2758190429E+00  2.4386198748E+00
                       5.1884032509E+00  5.2758190427E+00  7.7273525178E+00
                       7.5682135978E+00  5.3915261195E+00  5.0829861964E+00
                       5.1884032509E+00  8.1038544000E+00  5.0829861962E+00
                       5.1884032509E+00  2.7050692609E+00  5.0829861964E+00
                       2.8085929040E+00  5.3915261193E+00  5.0829861962E+00
                      -2.0099080628E-12 -1.2870458848E-01  3.5641475312E-12
            xcart1     5.4210962267E+00  5.4921592178E+00  5.2926105624E+00
                       1.6263288680E+01  1.6512991533E+01  1.5877831687E+01
                       1.0842192453E+01  1.0900779923E+01  4.6449129966E+00
                       1.0842192453E+01  1.0900779923E+01  1.6525529253E+01
                       1.6199350672E+01  1.1012480856E+01  1.0585221125E+01
                       1.0842192453E+01  1.7200058740E+01  1.0585221125E+01
                       1.0842192453E+01  5.3308538460E+00  1.0585221125E+01
                       5.4850342352E+00  1.1012480856E+01  1.0585221125E+01
                      -3.7550269001E-15 -1.9592637290E-01  1.8035132049E-12
            xcart2     5.3527051567E+00  5.4515712004E+00  5.2450224858E+00
                       1.6058115470E+01  1.6376620794E+01  1.5735067458E+01
                       1.0705410313E+01  1.0795478505E+01  4.6447531314E+00
                       1.0705410313E+01  1.0795478505E+01  1.6335336812E+01
                       1.5938733002E+01  1.0932266797E+01  1.0490044972E+01
                       1.0705410313E+01  1.7002870125E+01  1.0490044972E+01
                       1.0705410313E+01  5.3142180303E+00  1.0490044972E+01
                       5.4720876244E+00  1.0932266797E+01  1.0490044972E+01
                       6.0439805620E-13 -2.0037400303E-01  3.8640606301E-12
            xcart3     5.2855938869E+00  5.4150938802E+00  5.1973431387E+00
                       1.5856781661E+01  1.6242037788E+01  1.5592029416E+01
                       1.0571187774E+01  1.0680979428E+01  4.6441042670E+00
                       1.0571187774E+01  1.0680979427E+01  1.6145268288E+01
                       1.5685129590E+01  1.0853752191E+01  1.0394686277E+01
                       1.0571187774E+01  1.6800111697E+01  1.0394686277E+01
                       1.0571187774E+01  5.2949903658E+00  1.0394686277E+01
                       5.4572459577E+00  1.0853752191E+01  1.0394686277E+01
                       4.0816955227E-13 -2.0614570772E-01  2.2195499998E-12
            xcart4     5.2233706929E+00  5.3654910711E+00  5.1439729964E+00
                       1.5670112079E+01  1.6096240089E+01  1.5431918989E+01
                       1.0446741386E+01  1.0587505476E+01  4.6423473030E+00
                       1.0446741386E+01  1.0587505476E+01  1.5933544682E+01
                       1.5451503619E+01  1.0767708316E+01  1.0287945993E+01
                       1.0446741386E+01  1.6605504146E+01  1.0287945993E+01
                       1.0446741386E+01  5.2767959925E+00  1.0287945993E+01
                       5.4419791527E+00  1.0767708316E+01  1.0287945993E+01
                      -2.3538090773E-12 -2.0846673473E-01  1.9804208654E-12
            xcart5     5.1618941810E+00  5.3189536231E+00  5.0915502463E+00
                       1.5485682543E+01  1.5950037652E+01  1.5274650739E+01
                       1.0323788362E+01  1.0483106690E+01  4.6398492408E+00
                       1.0323788362E+01  1.0483106690E+01  1.5726351744E+01
                       1.5223070912E+01  1.0683270792E+01  1.0183100493E+01
                       1.0323788362E+01  1.6403312111E+01  1.0183100492E+01
                       1.0323788362E+01  5.2557764818E+00  1.0183100493E+01
                       5.4245058124E+00  1.0683270792E+01  1.0183100492E+01
                       1.1407883791E-12 -2.1216260096E-01  3.0706434072E-12
            xcart6     5.1037422882E+00  5.2758819926E+00  5.0360912693E+00
                       1.5311226865E+01  1.5806821014E+01  1.5108273808E+01
                       1.0207484576E+01  1.0379280005E+01  4.6365540016E+00
                       1.0207484577E+01  1.0379280005E+01  1.5507811076E+01
                       1.5009774530E+01  1.0596536897E+01  1.0072182539E+01
                       1.0207484576E+01  1.6199557331E+01  1.0072182538E+01
                       1.0207484577E+01  5.2311392396E+00  1.0072182539E+01
                       5.4051946230E+00  1.0596536897E+01  1.0072182538E+01
                       3.4889656066E-12 -2.1752120788E-01  8.3231261679E-12
            xcart7     5.0488606572E+00  5.2251854902E+00  4.9804464529E+00
                       1.5146581972E+01  1.5649633120E+01  1.4941339359E+01
                       1.0097721314E+01  1.0276801062E+01  4.6318241515E+00
                       1.0097721314E+01  1.0276801062E+01  1.5289961660E+01
                       1.4811459815E+01  1.0500769300E+01  9.9608929058E+00
                       1.0097721314E+01  1.5983751727E+01  9.9608929057E+00
                       1.0097721314E+01  5.2048466065E+00  9.9608929059E+00
                       5.3839828137E+00  1.0500769300E+01  9.9608929057E+00
                      -1.8246913288E-12 -2.2297662883E-01  3.6469580264E-12
            xcart8     4.9981615652E+00  5.1720784988E+00  4.9216533168E+00
                       1.4994484696E+01  1.5488000247E+01  1.4764959950E+01
                       9.9963231303E+00  1.0177256659E+01  4.6254949257E+00
                       9.9963231306E+00  1.0177256659E+01  1.5061118342E+01
                       1.4631830705E+01  1.0399869319E+01  9.8433066337E+00
                       9.9963231303E+00  1.5765383462E+01  9.8433066336E+00
                       9.9963231305E+00  5.1763890593E+00  9.8433066337E+00
                       5.3608155556E+00  1.0399869319E+01  9.8433066336E+00
                       5.4397043633E-12 -2.2872923320E-01  3.3966083611E-12
            xcart9     4.9481654744E+00  5.1197111529E+00  4.8639601031E+00
                       1.4844496423E+01  1.5323367526E+01  1.4591880309E+01
                       9.8963309489E+00  1.0072044856E+01  4.6175705166E+00
                       9.8963309489E+00  1.0072044856E+01  1.4838269896E+01
                       1.4457435627E+01  1.0296051682E+01  9.7279202060E+00
                       9.8963309489E+00  1.5540355021E+01  9.7279202062E+00
                       9.8963309489E+00  5.1451171403E+00  9.7279202060E+00
                       5.3352262712E+00  1.0296051682E+01  9.7279202062E+00
                      -7.3566555776E-13 -2.3549293230E-01 -3.4791121125E-12
            xcart10    4.9023306056E+00  5.0662564045E+00  4.8027259241E+00
                       1.4706991817E+01  1.5156531224E+01  1.4408177772E+01
                       9.8046612113E+00  9.9698531177E+00  4.6083237056E+00
                       9.8046612111E+00  9.9698531173E+00  1.4602579991E+01
                       1.4301851015E+01  1.0188507804E+01  9.6054518484E+00
                       9.8046612113E+00  1.5314065437E+01  9.6054518481E+00
                       9.8046612111E+00  5.1118400736E+00  9.6054518484E+00
                       5.3074714073E+00  1.0188507804E+01  9.6054518481E+00
                      -3.7981757910E-12 -2.4321642427E-01  6.7352627311E-12
             xred1     2.4917170776E-01  2.5082829224E-01  2.4917170776E-01
                       7.4917170776E-01  7.5082829224E-01  7.4917170776E-01
                       2.1395896039E-01  2.2485218411E-01  7.7514781589E-01
                       7.7514781589E-01  7.8604103961E-01  2.1395896039E-01
                       2.5256967954E-01  7.4743032046E-01  7.4667253201E-01
                       7.8034300170E-01  2.1965699830E-01  7.8034300170E-01
                       2.4185350496E-01  7.5814649504E-01  2.4185350496E-01
                       7.4667253201E-01  2.5332746799E-01  2.5256967954E-01
                      -8.8889099886E-03  8.8889099886E-03 -8.8889099886E-03
             xred2     2.4949869351E-01  2.5050130649E-01  2.4949869351E-01
                       7.4949869351E-01  7.5050130649E-01  7.4949869351E-01
                       2.1545861860E-01  2.2731861867E-01  7.7268138133E-01
                       7.7268138133E-01  7.8454138140E-01  2.1545861860E-01
                       2.5590610595E-01  7.4409389405E-01  7.4475450464E-01
                       7.7815986001E-01  2.2184013999E-01  7.7815986001E-01
                       2.4321253577E-01  7.5678746423E-01  2.4321253577E-01
                       7.4475450464E-01  2.5524549536E-01  2.5590610595E-01
                      -9.1703932923E-03  9.1703932923E-03 -9.1703932923E-03
             xred3     2.5007490232E-01  2.4992509768E-01  2.5007490232E-01
                       7.5007490232E-01  7.4992509768E-01  7.5007490232E-01
                       2.1664758269E-01  2.3012917835E-01  7.6987082165E-01
                       7.6987082165E-01  7.8335241731E-01  2.1664758269E-01
                       2.5935689955E-01  7.4064310045E-01  7.4311917164E-01
                       7.7584736009E-01  2.2415263991E-01  7.7584736009E-01
                       2.4452839190E-01  7.5547160810E-01  2.4452839190E-01
                       7.4311917164E-01  2.5688082836E-01  2.5935689955E-01
                      -9.5200321290E-03  9.5200321290E-03 -9.5200321290E-03
             xred4     2.5000543121E-01  2.4999456879E-01  2.5000543121E-01
                       7.5000543121E-01  7.4999456879E-01  7.5000543121E-01
                       2.1894626442E-01  2.3229515017E-01  7.6770484983E-01
                       7.6770484983E-01  7.8105373558E-01  2.1894626442E-01
                       2.6218511863E-01  7.3781488137E-01  7.4125912345E-01
                       7.7373462551E-01  2.2626537449E-01  7.7373462551E-01
                       2.4587267783E-01  7.5412732217E-01  2.4587267783E-01
                       7.4125912345E-01  2.5874087655E-01  2.6218511863E-01
                      -9.7135220651E-03  9.7135220651E-03 -9.7135220651E-03
             xred5     2.5016045441E-01  2.4983954559E-01  2.5016045441E-01
                       7.5016045441E-01  7.4983954559E-01  7.5016045441E-01
                       2.2086139317E-01  2.3478070171E-01  7.6521929829E-01
                       7.6521929829E-01  7.7913860683E-01  2.2086139317E-01
                       2.6517320507E-01  7.3482679493E-01  7.3973567941E-01
                       7.7147880998E-01  2.2852119002E-01  7.7147880998E-01
                       2.4718911390E-01  7.5281088610E-01  2.4718911390E-01
                       7.3973567941E-01  2.6026432059E-01  2.6517320507E-01
                      -9.9784086169E-03  9.9784086169E-03 -9.9784086169E-03
             xred6     2.5049437575E-01  2.4950562425E-01  2.5049437575E-01
                       7.5049437575E-01  7.4950562425E-01  7.5049437575E-01
                       2.2296566057E-01  2.3736694200E-01  7.6263305800E-01
                       7.6263305800E-01  7.7703433943E-01  2.2296566057E-01
                       2.6788077120E-01  7.3211922880E-01  7.3834829113E-01
                       7.6914116099E-01  2.3085883901E-01  7.6914116099E-01
                       2.4837002801E-01  7.5162997199E-01  2.4837002801E-01
                       7.3834829113E-01  2.6165170887E-01  2.6788077120E-01
                      -1.0327721366E-02  1.0327721366E-02 -1.0327721366E-02
             xred7     2.5062169603E-01  2.4937830397E-01  2.5062169603E-01
                       7.5062169603E-01  7.4937830397E-01  7.5062169603E-01
                       2.2541870388E-01  2.3958219467E-01  7.6041780533E-01
                       7.6041780533E-01  7.7458129612E-01  2.2541870388E-01
                       2.7025465529E-01  7.2974534471E-01  7.3706675615E-01
                       7.6664741839E-01  2.3335258161E-01  7.6664741839E-01
                       2.4964615831E-01  7.5035384169E-01  2.4964615831E-01
                       7.3706675615E-01  2.6293324385E-01  2.7025465529E-01
                      -1.0694889396E-02  1.0694889396E-02 -1.0694889396E-02
             xred8     2.5068426384E-01  2.4931573616E-01  2.5068426384E-01
                       7.5068426384E-01  7.4931573616E-01  7.5068426384E-01
                       2.2823543071E-01  2.4167728235E-01  7.5832271765E-01
                       7.5832271765E-01  7.7176456929E-01  2.2823543071E-01
                       2.7220820428E-01  7.2779179572E-01  7.3592946602E-01
                       7.6412868602E-01  2.3587131398E-01  7.6412868602E-01
                       2.5089319139E-01  7.4910680861E-01  2.5089319139E-01
                       7.3592946602E-01  2.6407053398E-01  2.7220820428E-01
                      -1.1086223741E-02  1.1086223741E-02 -1.1086223741E-02
             xred9     2.5087630187E-01  2.4912369813E-01  2.5087630187E-01
                       7.5087630187E-01  7.4912369813E-01  7.5087630187E-01
                       2.3088672458E-01  2.4378519077E-01  7.5621480923E-01
                       7.5621480923E-01  7.6911327542E-01  2.3088672458E-01
                       2.7408333151E-01  7.2591666849E-01  7.3497178616E-01
                       7.6150913227E-01  2.3849086773E-01  7.6150913227E-01
                       2.5212124714E-01  7.4787875286E-01  2.5212124714E-01
                       7.3497178616E-01  2.6502821384E-01  2.7408333151E-01
                      -1.1539634602E-02  1.1539634602E-02 -1.1539634602E-02
             xred10    2.5104650245E-01  2.4895349755E-01  2.5104650245E-01
                       7.5104650245E-01  7.4895349755E-01  7.5104650245E-01
                       2.3391341508E-01  2.4584784742E-01  7.5415215258E-01
                       7.5415215258E-01  7.6608658492E-01  2.3391341508E-01
                       2.7552832826E-01  7.2447167174E-01  7.3420708391E-01
                       7.5885274239E-01  2.4114725761E-01  7.5885274239E-01
                       2.5330529470E-01  7.4669470530E-01  2.5330529470E-01
                       7.3420708391E-01  2.6579291609E-01  2.7552832826E-01
                      -1.2052021804E-02  1.2052021804E-02 -1.2052021804E-02
            znucl       55.00000   53.00000   40.00000   17.00000

================================================================================

 chkinp: Checking input parameters for consistency, jdtset=   1.

 chkinp: Checking input parameters for consistency, jdtset=   2.

 chkinp: Checking input parameters for consistency, jdtset=   3.

 chkinp: Checking input parameters for consistency, jdtset=   4.

 chkinp: Checking input parameters for consistency, jdtset=   5.

 chkinp: Checking input parameters for consistency, jdtset=   6.

 chkinp: Checking input parameters for consistency, jdtset=   7.

 chkinp: Checking input parameters for consistency, jdtset=   8.

 chkinp: Checking input parameters for consistency, jdtset=   9.

 chkinp: Checking input parameters for consistency, jdtset=  10.

================================================================================
== DATASET  1 ==================================================================
-   mpi_nproc: 4, omp_nthreads: -1 (-1 if OMP is not activated)


--- !DatasetInfo
iteration_state: {dtset: 1, }
dimensions: {natom: 9, nkpt: 280, mband: 42, nsppol: 1, nspinor: 1, nspden: 1, mpw: 7764, }
cutoff_energies: {ecut:  16.0, pawecutdg:  40.0, }
electrons: {nelect:   7.20000000E+01, charge:   0.00000000E+00, occopt:   1.00000000E+00, tsmear:   1.00000000E-02, }
meta: {optdriver: 0, ionmov: 0, optcell: 0, iscf: 17, paral_kgb: 0, }
...

 Real(R)+Recip(G) space primitive vectors, cartesian coordinates (Bohr,Bohr^-1):
 R(1)=  0.0000000 11.0208323 10.5852211  G(1)= -0.0461161  0.0453686  0.0472357
 R(2)= 10.8421925  0.0000000 10.5852211  G(2)=  0.0461161 -0.0453686  0.0472357
 R(3)= 10.8421925 11.0208323  0.0000000  G(3)=  0.0461161  0.0453686 -0.0472357
 Unit cell volume ucvol=  2.5296558E+03 bohr^3
 Angles (23,13,12)=  5.98802414E+01  5.90608850E+01  6.10588736E+01 degrees

 Coarse grid specifications (used for wave-functions):

 getcut: wavevector=  0.0000  0.0000  0.0000  ngfft=  60  60  60
         ecut(hartree)=     16.000   => boxcut(ratio)=   2.15563

 Fine grid specifications (used for densities):

 getcut: wavevector=  0.0000  0.0000  0.0000  ngfft=  90  90  90
         ecut(hartree)=     40.000   => boxcut(ratio)=   2.04477

--- Pseudopotential description ------------------------------------------------
- pspini: atom type   1  psp file is ../../../Psps_for_tests/ATOMICDATA/Cs.GGA_PBE-JTH.xml
- pspatm: opening atomic psp file    ../../../Psps_for_tests/ATOMICDATA/Cs.GGA_PBE-JTH.xml
- pspatm : Reading pseudopotential header in XML form from ../../../Psps_for_tests/ATOMICDATA/Cs.GGA_PBE-JTH.xml
 Pseudopotential format is: paw10
 basis_size (lnmax)=  6 (lmn_size= 18), orbitals=   0   0   1   1   2   2
 Spheres core radius: rc_sph= 2.20660278
 1 radial meshes are used:
  - mesh 1: r(i)=AA*[exp(BB*(i-1))-1], size=1500 , AA= 0.15922E-03 BB= 0.87573E-02
 Shapefunction is SIN type: shapef(r)=[sin(pi*r/rshp)/(pi*r/rshp)]**2
 Radius for shape functions =  2.00394208
 mmax= 1500
 Radial grid used for partial waves is grid 1
 Radial grid used for projectors is grid 1
 Radial grid used for (t)core density is grid 1
 Radial grid used for Vloc is grid 1
 Radial grid used for pseudo valence density is grid 1
 Mesh size for Vloc has been set to 1341 to avoid numerical noise.
 Compensation charge density is not taken into account in XC energy/potential
 pspatm: atomic psp has been read  and splines computed

- pspini: atom type   2  psp file is ../../../Psps_for_tests/ATOMICDATA/I.GGA_PBE-JTH.xml
- pspatm: opening atomic psp file    ../../../Psps_for_tests/ATOMICDATA/I.GGA_PBE-JTH.xml
- pspatm : Reading pseudopotential header in XML form from ../../../Psps_for_tests/ATOMICDATA/I.GGA_PBE-JTH.xml
 Pseudopotential format is: paw10
 basis_size (lnmax)=  4 (lmn_size=  8), orbitals=   0   0   1   1
 Spheres core radius: rc_sph= 2.30022271
 1 radial meshes are used:
  - mesh 1: r(i)=AA*[exp(BB*(i-1))-1], size=2000 , AA= 0.12610E-03 BB= 0.66836E-02
 Shapefunction is SIN type: shapef(r)=[sin(pi*r/rshp)/(pi*r/rshp)]**2
 Radius for shape functions =  2.10879093
 mmax= 2000
 Radial grid used for partial waves is grid 1
 Radial grid used for projectors is grid 1
 Radial grid used for (t)core density is grid 1
 Radial grid used for Vloc is grid 1
 Radial grid used for pseudo valence density is grid 1
 Mesh size for Vloc has been set to 1792 to avoid numerical noise.
 Compensation charge density is not taken into account in XC energy/potential
 pspatm: atomic psp has been read  and splines computed

- pspini: atom type   3  psp file is ../../../Psps_for_tests/ATOMICDATA/Zr.GGA_PBE-JTH.xml
- pspatm: opening atomic psp file    ../../../Psps_for_tests/ATOMICDATA/Zr.GGA_PBE-JTH.xml
- pspatm : Reading pseudopotential header in XML form from ../../../Psps_for_tests/ATOMICDATA/Zr.GGA_PBE-JTH.xml
 Pseudopotential format is: paw10
 basis_size (lnmax)=  6 (lmn_size= 18), orbitals=   0   0   1   1   2   2
 Spheres core radius: rc_sph= 2.21000000
 1 radial meshes are used:
  - mesh 1: r(i)=AA*[exp(BB*(i-1))-1], size= 941 , AA= 0.35256E-03 BB= 0.14102E-01
 Shapefunction is BESSEL type: shapef(r,l)=aa(1,l)*jl(q(1,l)*r)+aa(2,l)*jl(q(2,l)*r)
 Radius for shape functions =  2.21000000
 mmax=  941
 Radial grid used for partial waves is grid 1
 Radial grid used for projectors is grid 1
 Radial grid used for (t)core density is grid 1
 Radial grid used for Vloc is grid 1
 Radial grid used for pseudo valence density is grid 1
 Mesh size for Vloc has been set to  777 to avoid numerical noise.
 Compensation charge density is not taken into account in XC energy/potential
 pspatm: atomic psp has been read  and splines computed

- pspini: atom type   4  psp file is ../../../Psps_for_tests/ATOMICDATA/Cl.GGA_PBE-JTH.xml
- pspatm: opening atomic psp file    ../../../Psps_for_tests/ATOMICDATA/Cl.GGA_PBE-JTH.xml
- pspatm : Reading pseudopotential header in XML form from ../../../Psps_for_tests/ATOMICDATA/Cl.GGA_PBE-JTH.xml
 Pseudopotential format is: paw10
 basis_size (lnmax)=  4 (lmn_size=  8), orbitals=   0   0   1   1
 Spheres core radius: rc_sph= 1.80315674
 1 radial meshes are used:
  - mesh 1: r(i)=AA*[exp(BB*(i-1))-1], size=1400 , AA= 0.50355E-03 BB= 0.85603E-02
 Shapefunction is SIN type: shapef(r)=[sin(pi*r/rshp)/(pi*r/rshp)]**2
 Radius for shape functions =  1.61320365
 mmax= 1400
 Radial grid used for partial waves is grid 1
 Radial grid used for projectors is grid 1
 Radial grid used for (t)core density is grid 1
 Radial grid used for Vloc is grid 1
 Radial grid used for pseudo valence density is grid 1
 Mesh size for Vloc has been set to 1238 to avoid numerical noise.
 Compensation charge density is not taken into account in XC energy/potential
 pspatm: atomic psp has been read  and splines computed

   2.74620051E+04                                ecore*ucvol(ha*bohr**3)
--------------------------------------------------------------------------------

_setup2: Arith. and geom. avg. npw (full set) are    7732.329    7732.322

================================================================================

--- !BeginCycle
iteration_state: {dtset: 1, }
solver: {iscf: 17, nstep: 2500, nline: 4, wfoptalg: 10, }
tolerances: {toldfe: 1.00E-08, }
...

     iter   Etot(hartree)      deltaE(h)  residm     nres2
 ETOT  1  -169.15246796278    -1.692E+02 1.969E-01 1.863E+01
 ETOT  2  -169.32446736648    -1.720E-01 2.171E-02 4.244E+00
 ETOT  3  -169.32173751878     2.730E-03 8.115E-03 9.316E-01
 ETOT  4  -169.32231963144    -5.821E-04 4.771E-03 5.868E-02
 ETOT  5  -169.32208210965     2.375E-04 1.607E-03 8.161E-03
 ETOT  6  -169.32213800159    -5.589E-05 1.415E-03 1.025E-03
 ETOT  7  -169.32214055761    -2.556E-06 6.302E-04 2.721E-04
 ETOT  8  -169.32214273169    -2.174E-06 5.728E-04 5.019E-05
 ETOT  9  -169.32214286939    -1.377E-07 2.895E-04 7.991E-06
 ETOT 10  -169.32214290063    -3.124E-08 4.337E-04 1.075E-06
 ETOT 11  -169.32214290667    -6.042E-09 2.074E-04 2.307E-07
 ETOT 12  -169.32214290817    -1.497E-09 2.889E-04 6.120E-08

 At SCF step   12, etot is converged : 
  for the second time, diff in etot=  1.497E-09 < toldfe=  1.000E-08

 Cartesian components of stress tensor (hartree/bohr^3)
  sigma(1 1)= -3.82661324E-06  sigma(3 2)=  6.63359331E-14
  sigma(2 2)= -3.75192556E-06  sigma(3 1)= -4.00343380E-14
  sigma(3 3)= -3.72199057E-06  sigma(2 1)= -2.63127584E-14


--- !ResultsGS
iteration_state: {dtset: 1, }
comment   : Summary of ground state results
lattice_vectors:
- [  0.0000000,  11.0208323,  10.5852211, ]
- [ 10.8421925,   0.0000000,  10.5852211, ]
- [ 10.8421925,  11.0208323,   0.0000000, ]
lattice_lengths: [  15.28089,   15.15256,   15.46001, ]
lattice_angles: [ 59.880,  59.061,  61.059, ] # degrees, (23, 13, 12)
lattice_volume:   2.5296558E+03
convergence: {deltae: -1.497E-09, res2:  6.120E-08, residm:  2.889E-04, diffor: null, }
etotal    :  -1.69322143E+02
entropy   :   0.00000000E+00
fermie    :  -5.26709071E-02
cartesian_stress_tensor: # hartree/bohr^3
- [ -3.82661324E-06,  -2.63127584E-14,  -4.00343380E-14, ]
- [ -2.63127584E-14,  -3.75192556E-06,   6.63359331E-14, ]
- [ -4.00343380E-14,   6.63359331E-14,  -3.72199057E-06, ]
pressure_GPa:   1.1082E-01
xred      :
- [  2.4917E-01,   2.5083E-01,   2.4917E-01, Cs]
- [  7.4917E-01,   7.5083E-01,   7.4917E-01, Cs]
- [  2.1396E-01,   2.2485E-01,   7.7515E-01, Cl]
- [  7.7515E-01,   7.8604E-01,   2.1396E-01, Cl]
- [  2.5257E-01,   7.4743E-01,   7.4667E-01,  I]
- [  7.8034E-01,   2.1966E-01,   7.8034E-01, Cl]
- [  2.4185E-01,   7.5815E-01,   2.4185E-01,  I]
- [  7.4667E-01,   2.5333E-01,   2.5257E-01,  I]
- [ -8.8889E-03,   8.8889E-03,  -8.8889E-03, Zr]
cartesian_forces: # hartree/bohr
- [ -1.07623288E-16,   1.75928555E-05,   1.10238290E-16, ]
- [ -1.07623288E-16,   1.75928555E-05,   1.10238290E-16, ]
- [  7.77660014E-16,   3.85622663E-06,  -8.56342857E-05, ]
- [ -8.24836537E-16,   3.85622664E-06,   8.56342857E-05, ]
- [  8.11261303E-06,   1.27804212E-05,   8.02444815E-17, ]
- [  5.69765512E-16,  -9.31380931E-05,  -5.83603614E-16, ]
- [ -1.04335735E-16,   1.70554437E-05,   1.06870756E-16, ]
- [ -8.11261303E-06,   1.27804212E-05,   7.99221056E-17, ]
- [ -4.66376787E-17,   7.62364268E-06,   4.77713872E-17, ]
force_length_stats: {min:   7.62364268E-06, max:   9.31380931E-05, mean:   3.94134077E-05, }
...

 Integrated electronic density in atomic spheres:
 ------------------------------------------------
 Atom  Sphere_radius  Integrated_density
    1        2.20660          5.36506164
    2        2.20660          5.36506164
    3        1.80316          4.35310998
    4        1.80316          4.35310998
    5        2.30022          4.01499119
    6        1.80316          4.36289832
    7        2.30022          4.01906900
    8        2.30022          4.01499119
    9        2.21000          8.81934059

 PAW TEST:
 ==== Compensation charge inside spheres ============
 The following values must be close to each other ...
 Compensation charge over spherical meshes =     -5.638592282080140
 Compensation charge over fine fft grid    =     -5.638592219303703

 ==== Results concerning PAW augmentation regions ====

 Total pseudopotential strength Dij (hartree):
 Atom #  1
   0.43209  -0.14313  -0.00000   0.00000   0.00000   0.00001   0.00000   0.00000   0.00000   0.00000  -0.00000  -0.00000 ...
  -0.14313   0.04307   0.00000   0.00000   0.00000  -0.00000   0.00000   0.00000   0.00000   0.00000   0.00000   0.00000 ...
  -0.00000   0.00000  -0.09259   0.00000   0.00000  -0.16713   0.00000   0.00000   0.00000   0.00000   0.00000  -0.00000 ...
   0.00000   0.00000   0.00000  -0.09259  -0.00000   0.00000  -0.16713   0.00000  -0.00000  -0.00000   0.00000   0.00000 ...
   0.00000   0.00000   0.00000  -0.00000  -0.09259   0.00000   0.00000  -0.16714  -0.00000  -0.00000   0.00000   0.00000 ...
   0.00001  -0.00000  -0.16713   0.00000   0.00000   0.40150   0.00000   0.00000   0.00000   0.00000  -0.00000   0.00000 ...
   0.00000   0.00000   0.00000  -0.16713   0.00000   0.00000   0.40150  -0.00002   0.00000   0.00000   0.00000   0.00000 ...
   0.00000   0.00000   0.00000   0.00000  -0.16714   0.00000  -0.00002   0.40151   0.00000   0.00000   0.00000   0.00000 ...
   0.00000   0.00000   0.00000  -0.00000  -0.00000   0.00000   0.00000   0.00000   0.00536  -0.00000   0.00000   0.00000 ...
   0.00000   0.00000   0.00000  -0.00000  -0.00000   0.00000   0.00000   0.00000  -0.00000   0.00536   0.00000   0.00000 ...
  -0.00000   0.00000   0.00000   0.00000   0.00000  -0.00000   0.00000   0.00000   0.00000   0.00000   0.00536  -0.00000 ...
  -0.00000   0.00000  -0.00000   0.00000   0.00000   0.00000   0.00000   0.00000   0.00000   0.00000  -0.00000   0.00536 ...
   ...  only 12  components have been written...
 Atom #  9
   3.07342  -0.89502  -0.00001   0.00000   0.00000   0.00001   0.00000   0.00000   0.00000   0.00000   0.00013   0.00000 ...
  -0.89502   0.26743  -0.00001   0.00000   0.00000   0.00000   0.00000   0.00000   0.00000   0.00000  -0.00001   0.00000 ...
  -0.00001  -0.00001   0.27067   0.00000   0.00000  -0.05508   0.00000   0.00000   0.00000   0.00000   0.00006   0.00000 ...
   0.00000   0.00000   0.00000   0.27080   0.00000   0.00000  -0.05510   0.00000   0.00000  -0.00011   0.00000   0.00000 ...
   0.00000   0.00000   0.00000   0.00000   0.27057   0.00000   0.00000  -0.05506  -0.00011   0.00000   0.00000   0.00000 ...
   0.00001   0.00000  -0.05508   0.00000   0.00000   0.01508   0.00000   0.00000   0.00000   0.00000  -0.00001   0.00000 ...
   0.00000   0.00000   0.00000  -0.05510   0.00000   0.00000   0.01508   0.00000   0.00000   0.00002   0.00000   0.00000 ...
   0.00000   0.00000   0.00000   0.00000  -0.05506   0.00000   0.00000   0.01508   0.00002   0.00000   0.00000   0.00000 ...
   0.00000   0.00000   0.00000   0.00000  -0.00011   0.00000   0.00000   0.00002  -0.01267   0.00000   0.00000   0.00000 ...
   0.00000   0.00000   0.00000  -0.00011   0.00000   0.00000   0.00002   0.00000   0.00000  -0.01252   0.00000   0.00000 ...
   0.00013  -0.00001   0.00006   0.00000   0.00000  -0.00001   0.00000   0.00000   0.00000   0.00000  -0.01241   0.00000 ...
   0.00000   0.00000   0.00000   0.00000   0.00000   0.00000   0.00000   0.00000   0.00000   0.00000   0.00000  -0.01257 ...
   ...  only 12  components have been written...


 Augmentation waves occupancies Rhoij:
 Atom #  1
   1.99721  -0.01586   0.00001   0.00000   0.00000  -0.00002   0.00000   0.00000   0.00000   0.00000  -0.00205  -0.00398 ...
  -0.01586   0.12812  -0.00210   0.00000   0.00000   0.00005   0.00000   0.00000   0.00000   0.00000   0.01825   0.02270 ...
   0.00001  -0.00210   2.00943   0.00000   0.00000  -0.00501   0.00000   0.00000   0.00000   0.00000   0.00106   0.00007 ...
   0.00000   0.00000   0.00000   2.01031   0.00266   0.00000  -0.00520  -0.00040   0.00029  -0.00077   0.00000   0.00000 ...
   0.00000   0.00000   0.00000   0.00266   2.00711   0.00000  -0.00040  -0.00466  -0.00250  -0.00003   0.00000   0.00000 ...
  -0.00002   0.00005  -0.00501   0.00000   0.00000   0.00009   0.00000   0.00000   0.00000   0.00000  -0.00003  -0.00001 ...
   0.00000   0.00000   0.00000  -0.00520  -0.00040   0.00000   0.00011   0.00002  -0.00002   0.00000   0.00000   0.00000 ...
   0.00000   0.00000   0.00000  -0.00040  -0.00466   0.00000   0.00002   0.00007   0.00007  -0.00000   0.00000   0.00000 ...
   0.00000   0.00000   0.00000   0.00029  -0.00250   0.00000  -0.00002   0.00007   0.01594   0.00022   0.00000   0.00000 ...
   0.00000   0.00000   0.00000  -0.00077  -0.00003   0.00000   0.00000  -0.00000   0.00022   0.05693   0.00000   0.00000 ...
  -0.00205   0.01825   0.00106   0.00000   0.00000  -0.00003   0.00000   0.00000   0.00000   0.00000   0.01697   0.00563 ...
  -0.00398   0.02270   0.00007   0.00000   0.00000  -0.00001   0.00000   0.00000   0.00000   0.00000   0.00563   0.04089 ...
   ...  only 12  components have been written...
 Atom #  9
   1.99252  -0.06925   0.00067   0.00000   0.00000   0.00350   0.00000   0.00000   0.00000   0.00000  -0.00437   0.00000 ...
  -0.06925   1.05562   0.00635   0.00000   0.00000  -0.06685   0.00000   0.00000   0.00000   0.00000   0.08151   0.00000 ...
   0.00067   0.00635   1.96579   0.00000   0.00000  -0.20810   0.00000   0.00000   0.00000   0.00000  -0.00115   0.00000 ...
   0.00000   0.00000   0.00000   1.96320   0.00000   0.00000  -0.22176   0.00000   0.00000  -0.00108   0.00000   0.00000 ...
   0.00000   0.00000   0.00000   0.00000   1.96758   0.00000   0.00000  -0.19754  -0.00126   0.00000   0.00000   0.00000 ...
   0.00350  -0.06685  -0.20810   0.00000   0.00000   1.62131   0.00000   0.00000   0.00000   0.00000   0.10030   0.00000 ...
   0.00000   0.00000   0.00000  -0.22176   0.00000   0.00000   1.90362   0.00000   0.00000   0.02163   0.00000   0.00000 ...
   0.00000   0.00000   0.00000   0.00000  -0.19754   0.00000   0.00000   1.41153   0.04026   0.00000   0.00000   0.00000 ...
   0.00000   0.00000   0.00000   0.00000  -0.00126   0.00000   0.00000   0.04026   0.44181   0.00000   0.00000   0.00000 ...
   0.00000   0.00000   0.00000  -0.00108   0.00000   0.00000   0.02163   0.00000   0.00000   0.51167   0.00000   0.00000 ...
  -0.00437   0.08151  -0.00115   0.00000   0.00000   0.10030   0.00000   0.00000   0.00000   0.00000   1.54614   0.00000 ...
   0.00000   0.00000   0.00000   0.00000   0.00000   0.00000   0.00000   0.00000   0.00000   0.00000   0.00000   0.48180 ...
   ...  only 12  components have been written...


================================================================================

 ----iterations are completed or convergence reached----

 Mean square residual over all n,k,spin=   37.774E-08; max=  28.889E-05
 reduced coordinates (array xred) for    9 atoms
       0.249171707760      0.250828292240      0.249171707760
       0.749171707760      0.750828292240      0.749171707760
       0.213958960390      0.224852184110      0.775147815890
       0.775147815890      0.786041039610      0.213958960390
       0.252569679540      0.747430320460      0.746672532010
       0.780343001700      0.219656998300      0.780343001700
       0.241853504960      0.758146495040      0.241853504960
       0.746672532010      0.253327467990      0.252569679540
      -0.008888909989      0.008888909989     -0.008888909989
 rms dE/dt=  4.7933E-04; max dE/dt=  1.1858E-03; dE/dt below (all hartree)
    1      -0.000034563268      0.000000000000     -0.000034563268
    2      -0.000034563268      0.000000000000     -0.000034563268
    3       0.001023283665      0.000906457850      0.000116825815
    4      -0.000789632036     -0.000906457850      0.000116825815
    5       0.000018473763     -0.000087958512     -0.000069484749
    6       0.001185783948      0.000000000000      0.001185783948
    7      -0.000028640543      0.000000000000     -0.000028640543
    8       0.000018473763      0.000087958512      0.000106432275
    9       0.000075305754      0.000000000000      0.000075305754

 cartesian coordinates (angstrom) at end:
    1      2.86872056875928     2.90632548399544     2.80072888358457
    2      8.60616170627784     8.73829876483596     8.40218665075354
    3      5.73744113751862     5.76844429118295     2.45798209368041
    4      5.73744113751850     5.76844429114356     8.74493344065869
    5      8.57232716944520     5.82755387886493     5.60145776719553
    6      5.73744113751862     9.10187907161057     5.60145776713887
    7      5.73744113751850     2.82096635760870     5.60145776719668
    8      2.90255510559192     5.82755387883024     5.60145776714248
    9     -0.00000000000000    -0.10367977109862     0.00000000000095

 cartesian forces (hartree/bohr) at end:
    1     -0.00000000000000     0.00001759285551     0.00000000000000
    2     -0.00000000000000     0.00001759285551     0.00000000000000
    3      0.00000000000000     0.00000385622663    -0.00008563428574
    4     -0.00000000000000     0.00000385622664     0.00008563428574
    5      0.00000811261303     0.00001278042120     0.00000000000000
    6      0.00000000000000    -0.00009313809307    -0.00000000000000
    7     -0.00000000000000     0.00001705544371     0.00000000000000
    8     -0.00000811261303     0.00001278042120     0.00000000000000
    9     -0.00000000000000     0.00000762364268     0.00000000000000
 frms,max,avg= 3.0305384E-05 9.3138093E-05   0.000E+00 -1.446E-05  0.000E+00 h/b

 cartesian forces (eV/Angstrom) at end:
    1     -0.00000000000001     0.00090466092760     0.00000000000001
    2     -0.00000000000001     0.00090466092760     0.00000000000001
    3      0.00000000000004     0.00019829512967    -0.00440349165257
    4     -0.00000000000004     0.00019829512975     0.00440349165257
    5      0.00041716730005     0.00065719562639     0.00000000000000
    6      0.00000000000003    -0.00478935290721    -0.00000000000003
    7     -0.00000000000001     0.00087702610399     0.00000000000001
    8     -0.00041716730006     0.00065719562639     0.00000000000000
    9     -0.00000000000000     0.00039202343583     0.00000000000000
 frms,max,avg= 1.5583654E-03 4.7893529E-03   0.000E+00 -7.434E-04  0.000E+00 e/A
 length scales= 15.280891701000 15.152558974000 15.460009124000 bohr
              =  8.086299615101  8.018388860857  8.181084473014 angstroms
 prteigrs : about to open file Cs2TiI6o_DS1_EIG
 Fermi (or HOMO) energy (hartree) =  -0.05267   Average Vxc (hartree)=  -0.28021
 Eigenvalues (hartree) for nkpt= 280  k points:
 kpt#   1, nband= 42, wtk=  0.00058, kpt=  0.0000  0.0000  0.0000 (reduced coord)
  -1.87161   -1.06337   -1.06273   -1.06153   -0.80667   -0.80650   -0.57967   -0.57300
  -0.56616   -0.47016   -0.46263   -0.45788   -0.32505   -0.32376   -0.32372   -0.32207
  -0.32204   -0.32196   -0.19619   -0.17561   -0.16798   -0.15840   -0.15670   -0.15113
  -0.14920   -0.14478   -0.13284   -0.11681   -0.11320   -0.10678   -0.08127   -0.08064
  -0.07453   -0.07331   -0.06972   -0.05267    0.01888    0.02572    0.03102    0.09785
   0.10249    0.11559
 prteigrs : prtvol=0 or 1, do not print more k-points.


--- !EnergyTerms
iteration_state     : {dtset: 1, }
comment             : Components of total free energy in Hartree
kinetic             :  5.24184768325746E+01
hartree             :  4.42892108105478E+01
xc                  : -5.52794495596193E+01
Ewald energy        : -1.15222375297940E+02
psp_core            :  1.08560242952573E+01
local_psp           : -1.38872821106244E+02
spherical_terms     :  3.24887777277358E+01
total_energy        : -1.69322156297688E+02
total_energy_eV     : -4.60749019101932E+03
...


--- !EnergyTermsDC
iteration_state     : {dtset: 1, }
comment             : '"Double-counting" decomposition of free energy'
band_energy         : -2.79504575759939E+01
Ewald energy        : -1.15222375297940E+02
psp_core            :  1.08560242952573E+01
xc_dc               : -5.62503555360117E+01
spherical_terms     :  1.92450212065200E+01
total_energy_dc     : -1.69322142908169E+02
total_energy_dc_eV  : -4.60748982667195E+03
...


 Cartesian components of stress tensor (hartree/bohr^3)
  sigma(1 1)= -3.82661324E-06  sigma(3 2)=  6.63359331E-14
  sigma(2 2)= -3.75192556E-06  sigma(3 1)= -4.00343380E-14
  sigma(3 3)= -3.72199057E-06  sigma(2 1)= -2.63127584E-14

-Cartesian components of stress tensor (GPa)         [Pressure=  1.1082E-01 GPa]
- sigma(1 1)= -1.12582829E-01  sigma(3 2)=  1.95167021E-09
- sigma(2 2)= -1.10385442E-01  sigma(3 1)= -1.17785069E-09
- sigma(3 3)= -1.09504725E-01  sigma(2 1)= -7.74147950E-10

================================================================================
== DATASET  2 ==================================================================
-   mpi_nproc: 4, omp_nthreads: -1 (-1 if OMP is not activated)


--- !DatasetInfo
iteration_state: {dtset: 2, }
dimensions: {natom: 9, nkpt: 280, mband: 42, nsppol: 1, nspinor: 1, nspden: 1, mpw: 7537, }
cutoff_energies: {ecut:  16.0, pawecutdg:  40.0, }
electrons: {nelect:   7.20000000E+01, charge:   0.00000000E+00, occopt:   1.00000000E+00, tsmear:   1.00000000E-02, }
meta: {optdriver: 0, ionmov: 0, optcell: 0, iscf: 17, paral_kgb: 0, }
...

 Real(R)+Recip(G) space primitive vectors, cartesian coordinates (Bohr,Bohr^-1):
 R(1)=  0.0000000 10.9250496 10.4900450  G(1)= -0.0467054  0.0457664  0.0476642
 R(2)= 10.7054103  0.0000000 10.4900450  G(2)=  0.0467054 -0.0457664  0.0476642
 R(3)= 10.7054103 10.9250496  0.0000000  G(3)=  0.0467054  0.0457664 -0.0476642
 Unit cell volume ucvol=  2.4537713E+03 bohr^3
 Angles (23,13,12)=  6.00066017E+01  5.89889175E+01  6.10044808E+01 degrees

 Coarse grid specifications (used for wave-functions):

 getcut: wavevector=  0.0000  0.0000  0.0000  ngfft=  60  60  60
         ecut(hartree)=     16.000   => boxcut(ratio)=   2.17893

 Fine grid specifications (used for densities):

 getcut: wavevector=  0.0000  0.0000  0.0000  ngfft=  90  90  90
         ecut(hartree)=     40.000   => boxcut(ratio)=   2.06669

--- Pseudopotential description ------------------------------------------------
- pspini: atom type   1  psp file is ../../../Psps_for_tests/ATOMICDATA/Cs.GGA_PBE-JTH.xml
- pspatm: opening atomic psp file    ../../../Psps_for_tests/ATOMICDATA/Cs.GGA_PBE-JTH.xml
- pspatm : Reading pseudopotential header in XML form from ../../../Psps_for_tests/ATOMICDATA/Cs.GGA_PBE-JTH.xml
 Pseudopotential format is: paw10
 basis_size (lnmax)=  6 (lmn_size= 18), orbitals=   0   0   1   1   2   2
 Spheres core radius: rc_sph= 2.20660278
 1 radial meshes are used:
  - mesh 1: r(i)=AA*[exp(BB*(i-1))-1], size=1500 , AA= 0.15922E-03 BB= 0.87573E-02
 Shapefunction is SIN type: shapef(r)=[sin(pi*r/rshp)/(pi*r/rshp)]**2
 Radius for shape functions =  2.00394208
 mmax= 1500
 Radial grid used for partial waves is grid 1
 Radial grid used for projectors is grid 1
 Radial grid used for (t)core density is grid 1
 Radial grid used for Vloc is grid 1
 Radial grid used for pseudo valence density is grid 1
 Mesh size for Vloc has been set to 1341 to avoid numerical noise.
 Compensation charge density is not taken into account in XC energy/potential
 pspatm: atomic psp has been read  and splines computed

- pspini: atom type   2  psp file is ../../../Psps_for_tests/ATOMICDATA/I.GGA_PBE-JTH.xml
- pspatm: opening atomic psp file    ../../../Psps_for_tests/ATOMICDATA/I.GGA_PBE-JTH.xml
- pspatm : Reading pseudopotential header in XML form from ../../../Psps_for_tests/ATOMICDATA/I.GGA_PBE-JTH.xml
 Pseudopotential format is: paw10
 basis_size (lnmax)=  4 (lmn_size=  8), orbitals=   0   0   1   1
 Spheres core radius: rc_sph= 2.30022271
 1 radial meshes are used:
  - mesh 1: r(i)=AA*[exp(BB*(i-1))-1], size=2000 , AA= 0.12610E-03 BB= 0.66836E-02
 Shapefunction is SIN type: shapef(r)=[sin(pi*r/rshp)/(pi*r/rshp)]**2
 Radius for shape functions =  2.10879093
 mmax= 2000
 Radial grid used for partial waves is grid 1
 Radial grid used for projectors is grid 1
 Radial grid used for (t)core density is grid 1
 Radial grid used for Vloc is grid 1
 Radial grid used for pseudo valence density is grid 1
 Mesh size for Vloc has been set to 1792 to avoid numerical noise.
 Compensation charge density is not taken into account in XC energy/potential
 pspatm: atomic psp has been read  and splines computed

- pspini: atom type   3  psp file is ../../../Psps_for_tests/ATOMICDATA/Zr.GGA_PBE-JTH.xml
- pspatm: opening atomic psp file    ../../../Psps_for_tests/ATOMICDATA/Zr.GGA_PBE-JTH.xml
- pspatm : Reading pseudopotential header in XML form from ../../../Psps_for_tests/ATOMICDATA/Zr.GGA_PBE-JTH.xml
 Pseudopotential format is: paw10
 basis_size (lnmax)=  6 (lmn_size= 18), orbitals=   0   0   1   1   2   2
 Spheres core radius: rc_sph= 2.21000000
 1 radial meshes are used:
  - mesh 1: r(i)=AA*[exp(BB*(i-1))-1], size= 941 , AA= 0.35256E-03 BB= 0.14102E-01
 Shapefunction is BESSEL type: shapef(r,l)=aa(1,l)*jl(q(1,l)*r)+aa(2,l)*jl(q(2,l)*r)
 Radius for shape functions =  2.21000000
 mmax=  941
 Radial grid used for partial waves is grid 1
 Radial grid used for projectors is grid 1
 Radial grid used for (t)core density is grid 1
 Radial grid used for Vloc is grid 1
 Radial grid used for pseudo valence density is grid 1
 Mesh size for Vloc has been set to  777 to avoid numerical noise.
 Compensation charge density is not taken into account in XC energy/potential
 pspatm: atomic psp has been read  and splines computed

- pspini: atom type   4  psp file is ../../../Psps_for_tests/ATOMICDATA/Cl.GGA_PBE-JTH.xml
- pspatm: opening atomic psp file    ../../../Psps_for_tests/ATOMICDATA/Cl.GGA_PBE-JTH.xml
- pspatm : Reading pseudopotential header in XML form from ../../../Psps_for_tests/ATOMICDATA/Cl.GGA_PBE-JTH.xml
 Pseudopotential format is: paw10
 basis_size (lnmax)=  4 (lmn_size=  8), orbitals=   0   0   1   1
 Spheres core radius: rc_sph= 1.80315674
 1 radial meshes are used:
  - mesh 1: r(i)=AA*[exp(BB*(i-1))-1], size=1400 , AA= 0.50355E-03 BB= 0.85603E-02
 Shapefunction is SIN type: shapef(r)=[sin(pi*r/rshp)/(pi*r/rshp)]**2
 Radius for shape functions =  1.61320365
 mmax= 1400
 Radial grid used for partial waves is grid 1
 Radial grid used for projectors is grid 1
 Radial grid used for (t)core density is grid 1
 Radial grid used for Vloc is grid 1
 Radial grid used for pseudo valence density is grid 1
 Mesh size for Vloc has been set to 1238 to avoid numerical noise.
 Compensation charge density is not taken into account in XC energy/potential
 pspatm: atomic psp has been read  and splines computed

--------------------------------------------------------------------------------

_setup2: Arith. and geom. avg. npw (full set) are    7500.748    7500.740

================================================================================

--- !BeginCycle
iteration_state: {dtset: 2, }
solver: {iscf: 17, nstep: 2500, nline: 4, wfoptalg: 10, }
tolerances: {toldfe: 1.00E-08, }
...

     iter   Etot(hartree)      deltaE(h)  residm     nres2
 ETOT  1  -169.15213626302    -1.692E+02 2.248E-01 1.895E+01
 ETOT  2  -169.32347894229    -1.713E-01 2.442E-02 4.252E+00
 ETOT  3  -169.32078038601     2.699E-03 4.299E-03 9.164E-01
 ETOT  4  -169.32140676504    -6.264E-04 2.843E-03 5.764E-02
 ETOT  5  -169.32117730820     2.295E-04 1.369E-03 7.629E-03
 ETOT  6  -169.32123251227    -5.520E-05 8.540E-04 9.657E-04
 ETOT  7  -169.32123541073    -2.898E-06 6.077E-04 2.408E-04
 ETOT  8  -169.32123753421    -2.123E-06 9.040E-04 4.618E-05
 ETOT  9  -169.32123776884    -2.346E-07 3.728E-04 7.250E-06
 ETOT 10  -169.32123779155    -2.271E-08 3.981E-04 8.471E-07
 ETOT 11  -169.32123779746    -5.913E-09 3.661E-04 1.975E-07
 ETOT 12  -169.32123779902    -1.556E-09 4.946E-04 5.261E-08

 At SCF step   12, etot is converged : 
  for the second time, diff in etot=  1.556E-09 < toldfe=  1.000E-08

 Cartesian components of stress tensor (hartree/bohr^3)
  sigma(1 1)= -1.27415329E-05  sigma(3 2)=  9.93966683E-14
  sigma(2 2)= -1.26162566E-05  sigma(3 1)= -1.03802795E-13
  sigma(3 3)= -1.25883453E-05  sigma(2 1)=  2.27198472E-15


--- !ResultsGS
iteration_state: {dtset: 2, }
comment   : Summary of ground state results
lattice_vectors:
- [  0.0000000,  10.9250496,  10.4900450, ]
- [ 10.7054103,   0.0000000,  10.4900450, ]
- [ 10.7054103,  10.9250496,   0.0000000, ]
lattice_lengths: [  15.14588,   14.98822,   15.29583, ]
lattice_angles: [ 60.007,  58.989,  61.004, ] # degrees, (23, 13, 12)
lattice_volume:   2.4537713E+03
convergence: {deltae: -1.556E-09, res2:  5.261E-08, residm:  4.946E-04, diffor: null, }
etotal    :  -1.69321238E+02
entropy   :   0.00000000E+00
fermie    :  -4.67396070E-02
cartesian_stress_tensor: # hartree/bohr^3
- [ -1.27415329E-05,   2.27198472E-15,  -1.03802795E-13, ]
- [  2.27198472E-15,  -1.26162566E-05,   9.93966683E-14, ]
- [ -1.03802795E-13,   9.93966683E-14,  -1.25883453E-05, ]
pressure_GPa:   3.7214E-01
xred      :
- [  2.4950E-01,   2.5050E-01,   2.4950E-01, Cs]
- [  7.4950E-01,   7.5050E-01,   7.4950E-01, Cs]
- [  2.1546E-01,   2.2732E-01,   7.7268E-01, Cl]
- [  7.7268E-01,   7.8454E-01,   2.1546E-01, Cl]
- [  2.5591E-01,   7.4409E-01,   7.4475E-01,  I]
- [  7.7816E-01,   2.2184E-01,   7.7816E-01, Cl]
- [  2.4321E-01,   7.5679E-01,   2.4321E-01,  I]
- [  7.4475E-01,   2.5525E-01,   2.5591E-01,  I]
- [ -9.1704E-03,   9.1704E-03,  -9.1704E-03, Zr]
cartesian_forces: # hartree/bohr
- [ -1.14676833E-17,   4.55614804E-06,   1.17032865E-17, ]
- [ -1.14676833E-17,   4.55614804E-06,   1.17032865E-17, ]
- [  6.51851242E-16,  -3.07882861E-05,  -2.91850960E-05, ]
- [ -4.96867736E-16,  -3.07882861E-05,   2.91850960E-05, ]
- [  1.11315043E-05,   1.19776481E-05,  -4.20468234E-18, ]
- [ -1.11657689E-17,   4.43618596E-06,   1.13951727E-17, ]
- [ -7.24472971E-17,   2.87843139E-05,   7.39356298E-17, ]
- [ -1.11315043E-05,   1.19776481E-05,   6.57362824E-17, ]
- [  1.18582964E-17,  -4.71152004E-06,  -1.21014763E-17, ]
[...]
                       5.2369127868E+00  2.7226787262E+00  5.1477936600E+00
                       2.8232801454E+00  5.4484358887E+00  5.1477936601E+00
                      -3.8929744631E-13 -1.2461749256E-01 -1.8410668361E-12
           xangst10    2.5942016255E+00  2.6809474221E+00  2.5414930981E+00
                       7.7826048764E+00  8.0204908851E+00  7.6244792944E+00
                       5.1884032509E+00  5.2758190429E+00  2.4386198748E+00
                       5.1884032509E+00  5.2758190427E+00  7.7273525178E+00
                       7.5682135978E+00  5.3915261195E+00  5.0829861964E+00
                       5.1884032509E+00  8.1038544000E+00  5.0829861962E+00
                       5.1884032509E+00  2.7050692609E+00  5.0829861964E+00
                       2.8085929040E+00  5.3915261193E+00  5.0829861962E+00
                      -2.0099080628E-12 -1.2870458848E-01  3.5641475312E-12
            xcart1     5.4210962267E+00  5.4921592178E+00  5.2926105624E+00
                       1.6263288680E+01  1.6512991533E+01  1.5877831687E+01
                       1.0842192453E+01  1.0900779923E+01  4.6449129966E+00
                       1.0842192453E+01  1.0900779923E+01  1.6525529253E+01
                       1.6199350672E+01  1.1012480856E+01  1.0585221125E+01
                       1.0842192453E+01  1.7200058740E+01  1.0585221125E+01
                       1.0842192453E+01  5.3308538460E+00  1.0585221125E+01
                       5.4850342352E+00  1.1012480856E+01  1.0585221125E+01
                      -3.7550269001E-15 -1.9592637290E-01  1.8035132049E-12
            xcart2     5.3527051567E+00  5.4515712004E+00  5.2450224858E+00
                       1.6058115470E+01  1.6376620794E+01  1.5735067458E+01
                       1.0705410313E+01  1.0795478505E+01  4.6447531314E+00
                       1.0705410313E+01  1.0795478505E+01  1.6335336812E+01
                       1.5938733002E+01  1.0932266797E+01  1.0490044972E+01
                       1.0705410313E+01  1.7002870125E+01  1.0490044972E+01
                       1.0705410313E+01  5.3142180303E+00  1.0490044972E+01
                       5.4720876244E+00  1.0932266797E+01  1.0490044972E+01
                       6.0439805620E-13 -2.0037400303E-01  3.8640606301E-12
            xcart3     5.2855938869E+00  5.4150938802E+00  5.1973431387E+00
                       1.5856781661E+01  1.6242037788E+01  1.5592029416E+01
                       1.0571187774E+01  1.0680979428E+01  4.6441042670E+00
                       1.0571187774E+01  1.0680979427E+01  1.6145268288E+01
                       1.5685129590E+01  1.0853752191E+01  1.0394686277E+01
                       1.0571187774E+01  1.6800111697E+01  1.0394686277E+01
                       1.0571187774E+01  5.2949903658E+00  1.0394686277E+01
                       5.4572459577E+00  1.0853752191E+01  1.0394686277E+01
                       4.0816955227E-13 -2.0614570772E-01  2.2195499998E-12
            xcart4     5.2233706929E+00  5.3654910711E+00  5.1439729964E+00
                       1.5670112079E+01  1.6096240089E+01  1.5431918989E+01
                       1.0446741386E+01  1.0587505476E+01  4.6423473030E+00
                       1.0446741386E+01  1.0587505476E+01  1.5933544682E+01
                       1.5451503619E+01  1.0767708316E+01  1.0287945993E+01
                       1.0446741386E+01  1.6605504146E+01  1.0287945993E+01
                       1.0446741386E+01  5.2767959925E+00  1.0287945993E+01
                       5.4419791527E+00  1.0767708316E+01  1.0287945993E+01
                      -2.3538090773E-12 -2.0846673473E-01  1.9804208654E-12
            xcart5     5.1618941810E+00  5.3189536231E+00  5.0915502463E+00
                       1.5485682543E+01  1.5950037652E+01  1.5274650739E+01
                       1.0323788362E+01  1.0483106690E+01  4.6398492408E+00
                       1.0323788362E+01  1.0483106690E+01  1.5726351744E+01
                       1.5223070912E+01  1.0683270792E+01  1.0183100493E+01
                       1.0323788362E+01  1.6403312111E+01  1.0183100492E+01
                       1.0323788362E+01  5.2557764818E+00  1.0183100493E+01
                       5.4245058124E+00  1.0683270792E+01  1.0183100492E+01
                       1.1407883791E-12 -2.1216260096E-01  3.0706434072E-12
            xcart6     5.1037422882E+00  5.2758819926E+00  5.0360912693E+00
                       1.5311226865E+01  1.5806821014E+01  1.5108273808E+01
                       1.0207484576E+01  1.0379280005E+01  4.6365540016E+00
                       1.0207484577E+01  1.0379280005E+01  1.5507811076E+01
                       1.5009774530E+01  1.0596536897E+01  1.0072182539E+01
                       1.0207484576E+01  1.6199557331E+01  1.0072182538E+01
                       1.0207484577E+01  5.2311392396E+00  1.0072182539E+01
                       5.4051946230E+00  1.0596536897E+01  1.0072182538E+01
                       3.4889656066E-12 -2.1752120788E-01  8.3231261679E-12
            xcart7     5.0488606572E+00  5.2251854902E+00  4.9804464529E+00
                       1.5146581972E+01  1.5649633120E+01  1.4941339359E+01
                       1.0097721314E+01  1.0276801062E+01  4.6318241515E+00
                       1.0097721314E+01  1.0276801062E+01  1.5289961660E+01
                       1.4811459815E+01  1.0500769300E+01  9.9608929058E+00
                       1.0097721314E+01  1.5983751727E+01  9.9608929057E+00
                       1.0097721314E+01  5.2048466065E+00  9.9608929059E+00
                       5.3839828137E+00  1.0500769300E+01  9.9608929057E+00
                      -1.8246913288E-12 -2.2297662883E-01  3.6469580264E-12
            xcart8     4.9981615652E+00  5.1720784988E+00  4.9216533168E+00
                       1.4994484696E+01  1.5488000247E+01  1.4764959950E+01
                       9.9963231303E+00  1.0177256659E+01  4.6254949257E+00
                       9.9963231306E+00  1.0177256659E+01  1.5061118342E+01
                       1.4631830705E+01  1.0399869319E+01  9.8433066337E+00
                       9.9963231303E+00  1.5765383462E+01  9.8433066336E+00
                       9.9963231305E+00  5.1763890593E+00  9.8433066337E+00
                       5.3608155556E+00  1.0399869319E+01  9.8433066336E+00
                       5.4397043633E-12 -2.2872923320E-01  3.3966083611E-12
            xcart9     4.9481654744E+00  5.1197111529E+00  4.8639601031E+00
                       1.4844496423E+01  1.5323367526E+01  1.4591880309E+01
                       9.8963309489E+00  1.0072044856E+01  4.6175705166E+00
                       9.8963309489E+00  1.0072044856E+01  1.4838269896E+01
                       1.4457435627E+01  1.0296051682E+01  9.7279202060E+00
                       9.8963309489E+00  1.5540355021E+01  9.7279202062E+00
                       9.8963309489E+00  5.1451171403E+00  9.7279202060E+00
                       5.3352262712E+00  1.0296051682E+01  9.7279202062E+00
                      -7.3566555776E-13 -2.3549293230E-01 -3.4791121125E-12
            xcart10    4.9023306056E+00  5.0662564045E+00  4.8027259241E+00
                       1.4706991817E+01  1.5156531224E+01  1.4408177772E+01
                       9.8046612113E+00  9.9698531177E+00  4.6083237056E+00
                       9.8046612111E+00  9.9698531173E+00  1.4602579991E+01
                       1.4301851015E+01  1.0188507804E+01  9.6054518484E+00
                       9.8046612113E+00  1.5314065437E+01  9.6054518481E+00
                       9.8046612111E+00  5.1118400736E+00  9.6054518484E+00
                       5.3074714073E+00  1.0188507804E+01  9.6054518481E+00
                      -3.7981757910E-12 -2.4321642427E-01  6.7352627311E-12
             xred1     2.4917170776E-01  2.5082829224E-01  2.4917170776E-01
                       7.4917170776E-01  7.5082829224E-01  7.4917170776E-01
                       2.1395896039E-01  2.2485218411E-01  7.7514781589E-01
                       7.7514781589E-01  7.8604103961E-01  2.1395896039E-01
                       2.5256967954E-01  7.4743032046E-01  7.4667253201E-01
                       7.8034300170E-01  2.1965699830E-01  7.8034300170E-01
                       2.4185350496E-01  7.5814649504E-01  2.4185350496E-01
                       7.4667253201E-01  2.5332746799E-01  2.5256967954E-01
                      -8.8889099886E-03  8.8889099886E-03 -8.8889099886E-03
             xred2     2.4949869351E-01  2.5050130649E-01  2.4949869351E-01
                       7.4949869351E-01  7.5050130649E-01  7.4949869351E-01
                       2.1545861860E-01  2.2731861867E-01  7.7268138133E-01
                       7.7268138133E-01  7.8454138140E-01  2.1545861860E-01
                       2.5590610595E-01  7.4409389405E-01  7.4475450464E-01
                       7.7815986001E-01  2.2184013999E-01  7.7815986001E-01
                       2.4321253577E-01  7.5678746423E-01  2.4321253577E-01
                       7.4475450464E-01  2.5524549536E-01  2.5590610595E-01
                      -9.1703932923E-03  9.1703932923E-03 -9.1703932923E-03
             xred3     2.5007490232E-01  2.4992509768E-01  2.5007490232E-01
                       7.5007490232E-01  7.4992509768E-01  7.5007490232E-01
                       2.1664758269E-01  2.3012917835E-01  7.6987082165E-01
                       7.6987082165E-01  7.8335241731E-01  2.1664758269E-01
                       2.5935689955E-01  7.4064310045E-01  7.4311917164E-01
                       7.7584736009E-01  2.2415263991E-01  7.7584736009E-01
                       2.4452839190E-01  7.5547160810E-01  2.4452839190E-01
                       7.4311917164E-01  2.5688082836E-01  2.5935689955E-01
                      -9.5200321290E-03  9.5200321290E-03 -9.5200321290E-03
             xred4     2.5000543121E-01  2.4999456879E-01  2.5000543121E-01
                       7.5000543121E-01  7.4999456879E-01  7.5000543121E-01
                       2.1894626442E-01  2.3229515017E-01  7.6770484983E-01
                       7.6770484983E-01  7.8105373558E-01  2.1894626442E-01
                       2.6218511863E-01  7.3781488137E-01  7.4125912345E-01
                       7.7373462551E-01  2.2626537449E-01  7.7373462551E-01
                       2.4587267783E-01  7.5412732217E-01  2.4587267783E-01
                       7.4125912345E-01  2.5874087655E-01  2.6218511863E-01
                      -9.7135220651E-03  9.7135220651E-03 -9.7135220651E-03
             xred5     2.5016045441E-01  2.4983954559E-01  2.5016045441E-01
                       7.5016045441E-01  7.4983954559E-01  7.5016045441E-01
                       2.2086139317E-01  2.3478070171E-01  7.6521929829E-01
                       7.6521929829E-01  7.7913860683E-01  2.2086139317E-01
                       2.6517320507E-01  7.3482679493E-01  7.3973567941E-01
                       7.7147880998E-01  2.2852119002E-01  7.7147880998E-01
                       2.4718911390E-01  7.5281088610E-01  2.4718911390E-01
                       7.3973567941E-01  2.6026432059E-01  2.6517320507E-01
                      -9.9784086169E-03  9.9784086169E-03 -9.9784086169E-03
             xred6     2.5049437575E-01  2.4950562425E-01  2.5049437575E-01
                       7.5049437575E-01  7.4950562425E-01  7.5049437575E-01
                       2.2296566057E-01  2.3736694200E-01  7.6263305800E-01
                       7.6263305800E-01  7.7703433943E-01  2.2296566057E-01
                       2.6788077120E-01  7.3211922880E-01  7.3834829113E-01
                       7.6914116099E-01  2.3085883901E-01  7.6914116099E-01
                       2.4837002801E-01  7.5162997199E-01  2.4837002801E-01
                       7.3834829113E-01  2.6165170887E-01  2.6788077120E-01
                      -1.0327721366E-02  1.0327721366E-02 -1.0327721366E-02
             xred7     2.5062169603E-01  2.4937830397E-01  2.5062169603E-01
                       7.5062169603E-01  7.4937830397E-01  7.5062169603E-01
                       2.2541870388E-01  2.3958219467E-01  7.6041780533E-01
                       7.6041780533E-01  7.7458129612E-01  2.2541870388E-01
                       2.7025465529E-01  7.2974534471E-01  7.3706675615E-01
                       7.6664741839E-01  2.3335258161E-01  7.6664741839E-01
                       2.4964615831E-01  7.5035384169E-01  2.4964615831E-01
                       7.3706675615E-01  2.6293324385E-01  2.7025465529E-01
                      -1.0694889396E-02  1.0694889396E-02 -1.0694889396E-02
             xred8     2.5068426384E-01  2.4931573616E-01  2.5068426384E-01
                       7.5068426384E-01  7.4931573616E-01  7.5068426384E-01
                       2.2823543071E-01  2.4167728235E-01  7.5832271765E-01
                       7.5832271765E-01  7.7176456929E-01  2.2823543071E-01
                       2.7220820428E-01  7.2779179572E-01  7.3592946602E-01
                       7.6412868602E-01  2.3587131398E-01  7.6412868602E-01
                       2.5089319139E-01  7.4910680861E-01  2.5089319139E-01
                       7.3592946602E-01  2.6407053398E-01  2.7220820428E-01
                      -1.1086223741E-02  1.1086223741E-02 -1.1086223741E-02
             xred9     2.5087630187E-01  2.4912369813E-01  2.5087630187E-01
                       7.5087630187E-01  7.4912369813E-01  7.5087630187E-01
                       2.3088672458E-01  2.4378519077E-01  7.5621480923E-01
                       7.5621480923E-01  7.6911327542E-01  2.3088672458E-01
                       2.7408333151E-01  7.2591666849E-01  7.3497178616E-01
                       7.6150913227E-01  2.3849086773E-01  7.6150913227E-01
                       2.5212124714E-01  7.4787875286E-01  2.5212124714E-01
                       7.3497178616E-01  2.6502821384E-01  2.7408333151E-01
                      -1.1539634602E-02  1.1539634602E-02 -1.1539634602E-02
             xred10    2.5104650245E-01  2.4895349755E-01  2.5104650245E-01
                       7.5104650245E-01  7.4895349755E-01  7.5104650245E-01
                       2.3391341508E-01  2.4584784742E-01  7.5415215258E-01
                       7.5415215258E-01  7.6608658492E-01  2.3391341508E-01
                       2.7552832826E-01  7.2447167174E-01  7.3420708391E-01
                       7.5885274239E-01  2.4114725761E-01  7.5885274239E-01
                       2.5330529470E-01  7.4669470530E-01  2.5330529470E-01
                       7.3420708391E-01  2.6579291609E-01  2.7552832826E-01
                      -1.2052021804E-02  1.2052021804E-02 -1.2052021804E-02
            znucl       55.00000   53.00000   40.00000   17.00000

================================================================================


- Timing analysis has been suppressed with timopt=0



================================================================================

 Suggested references for the acknowledgment of ABINIT usage.

 The users of ABINIT have little formal obligations with respect to the ABINIT group
 (those specified in the GNU General Public License, http://www.gnu.org/copyleft/gpl.txt).
 However, it is common practice in the scientific literature,
 to acknowledge the efforts of people that have made the research possible.
 In this spirit, please find below suggested citations of work written by ABINIT developers,
 corresponding to implementations inside of ABINIT that you have used in the present run.
 Note also that it will be of great value to readers of publications presenting these results,
 to read papers enabling them to understand the theoretical formalism and details
 of the ABINIT implementation.
 For information on why they are suggested, see also https://docs.abinit.org/theory/acknowledgments.
-
- [1] Implementation of the Projector Augmented-Wave Method in the ABINIT code.
- M. Torrent, F. Jollet, F. Bottin, G. Zerah, and X. Gonze Comput. Mat. Science 42, 337, (2008).
- Comment: PAW calculations. Strong suggestion to cite this paper.
- DOI and bibtex: see https://docs.abinit.org/theory/bibliography/#torrent2008
-
- [2] Libxc: A library of exchange and correlation functionals for density functional theory.
- M.A.L. Marques, M.J.T. Oliveira, T. Burnus, Computer Physics Communications 183, 2227 (2012).
- Comment: to be cited when LibXC is used (negative value of ixc)
- Strong suggestion to cite this paper.
- DOI and bibtex: see https://docs.abinit.org/theory/bibliography/#marques2012
-
- [3] The Abinit project: Impact, environment and recent developments.
- Computer Phys. Comm. 248, 107042 (2020).
- X.Gonze, B. Amadon, G. Antonius, F.Arnardi, L.Baguet, J.-M.Beuken,
- J.Bieder, F.Bottin, J.Bouchet, E.Bousquet, N.Brouwer, F.Bruneval,
- G.Brunin, T.Cavignac, J.-B. Charraud, Wei Chen, M.Cote, S.Cottenier,
- J.Denier, G.Geneste, Ph.Ghosez, M.Giantomassi, Y.Gillet, O.Gingras,
- D.R.Hamann, G.Hautier, Xu He, N.Helbig, N.Holzwarth, Y.Jia, F.Jollet,
- W.Lafargue-Dit-Hauret, K.Lejaeghere, M.A.L.Marques, A.Martin, C.Martins,
- H.P.C. Miranda, F.Naccarato, K. Persson, G.Petretto, V.Planes, Y.Pouillon,
- S.Prokhorenko, F.Ricci, G.-M.Rignanese, A.H.Romero, M.M.Schmitt, M.Torrent,
- M.J.van Setten, B.Van Troeye, M.J.Verstraete, G.Zerah and J.W.Zwanzig
- Comment: the fifth generic paper describing the ABINIT project.
- Note that a version of this paper, that is not formatted for Computer Phys. Comm. 
- is available at https://www.abinit.org/sites/default/files/ABINIT20.pdf .
- The licence allows the authors to put it on the Web.
- DOI and bibtex: see https://docs.abinit.org/theory/bibliography/#gonze2020
-
- [4] ABINIT: Overview, and focus on selected capabilities
- J. Chem. Phys. 152, 124102 (2020).
- A. Romero, D.C. Allan, B. Amadon, G. Antonius, T. Applencourt, L.Baguet,
- J.Bieder, F.Bottin, J.Bouchet, E.Bousquet, F.Bruneval,
- G.Brunin, D.Caliste, M.Cote,
- J.Denier, C. Dreyer, Ph.Ghosez, M.Giantomassi, Y.Gillet, O.Gingras,
- D.R.Hamann, G.Hautier, F.Jollet, G. Jomard,
- A.Martin, 
- H.P.C. Miranda, F.Naccarato, G.Petretto, N.A. Pike, V.Planes,
- S.Prokhorenko, T. Rangel, F.Ricci, G.-M.Rignanese, M.Royo, M.Stengel, M.Torrent,
- M.J.van Setten, B.Van Troeye, M.J.Verstraete, J.Wiktor, J.W.Zwanziger, and X.Gonze.
- Comment: a global overview of ABINIT, with focus on selected capabilities .
- Note that a version of this paper, that is not formatted for J. Chem. Phys 
- is available at https://www.abinit.org/sites/default/files/ABINIT20_JPC.pdf .
- The licence allows the authors to put it on the Web.
- DOI and bibtex: see https://docs.abinit.org/theory/bibliography/#romero2020
-
- [5] Recent developments in the ABINIT software package.
- Computer Phys. Comm. 205, 106 (2016).
- X.Gonze, F.Jollet, F.Abreu Araujo, D.Adams, B.Amadon, T.Applencourt,
- C.Audouze, J.-M.Beuken, J.Bieder, A.Bokhanchuk, E.Bousquet, F.Bruneval
- D.Caliste, M.Cote, F.Dahm, F.Da Pieve, M.Delaveau, M.Di Gennaro,
- B.Dorado, C.Espejo, G.Geneste, L.Genovese, A.Gerossier, M.Giantomassi,
- Y.Gillet, D.R.Hamann, L.He, G.Jomard, J.Laflamme Janssen, S.Le Roux,
- A.Levitt, A.Lherbier, F.Liu, I.Lukacevic, A.Martin, C.Martins,
- M.J.T.Oliveira, S.Ponce, Y.Pouillon, T.Rangel, G.-M.Rignanese,
- A.H.Romero, B.Rousseau, O.Rubel, A.A.Shukri, M.Stankovski, M.Torrent,
- M.J.Van Setten, B.Van Troeye, M.J.Verstraete, D.Waroquier, J.Wiktor,
- B.Xu, A.Zhou, J.W.Zwanziger.
- Comment: the fourth generic paper describing the ABINIT project.
- Note that a version of this paper, that is not formatted for Computer Phys. Comm. 
- is available at https://www.abinit.org/sites/default/files/ABINIT16.pdf .
- The licence allows the authors to put it on the Web.
- DOI and bibtex: see https://docs.abinit.org/theory/bibliography/#gonze2016
-
- Proc.   0 individual time (sec): cpu=      22968.1  wall=      23100.2

================================================================================

 Calculation completed.
.Delivered   0 WARNINGs and   7 COMMENTs to log file.
+Overall time at end (sec) : cpu=      91860.2  wall=      92400.6
