
.Version 9.2.2 of ABINIT 
.(MPI version, prepared for a x86_64_linux_gnu9.3 computer) 

.Copyright (C) 1998-2020 ABINIT group . 
 ABINIT comes with ABSOLUTELY NO WARRANTY.
 It is free software, and you are welcome to redistribute it
 under certain conditions (GNU General Public License,
 see ~abinit/COPYING or http://www.gnu.org/copyleft/gpl.txt).

 ABINIT is a project of the Universite Catholique de Louvain,
 Corning Inc. and other collaborators, see ~abinit/doc/developers/contributors.txt .
 Please read https://docs.abinit.org/theory/acknowledgments for suggested
 acknowledgments of the ABINIT effort.
 For more information, see https://www.abinit.org .

.Starting date : Mon 17 Oct 2022.
- ( at 13h11 )
  
- input  file    -> Cs2TiI6.in
- output file    -> Cs2TiI6.out
- root for input  files -> Cs2TiI6i
- root for output files -> Cs2TiI6o

- inpspheads : Reading pseudopotential header in XML form from 
-   ../../../Psps_for_tests/ATOMICDATA/Cs.GGA_PBE-JTH.xml
- inpspheads : Reading pseudopotential header in XML form from 
-   ../../../Psps_for_tests/ATOMICDATA/I.GGA_PBE-JTH.xml
- inpspheads : Reading pseudopotential header in XML form from 
-   ../../../Psps_for_tests/ATOMICDATA/Hf.GGA_PBE-JTH.xml
- inpspheads : Reading pseudopotential header in XML form from 
-   ../../../Psps_for_tests/ATOMICDATA/Br.GGA_PBE-JTH.xml

 DATASET    1 : space group I4 m m (#107); Bravais tI (body-center tetrag.)
================================================================================
 Values of the parameters that define the memory need for DATASET  1.
     intxc =       0    ionmov =       2      iscf =      17    lmnmax =      18
     lnmax =       6     mgfft =      72  mpssoang =       3    mqgrid =    4172
     natom =       9  nloc_mem =       2    nspden =       1   nspinor =       1
    nsppol =       1      nsym =       8    n1xccc =       1    ntypat =       4
    occopt =       1   xclevel =       2
-    mband =          42        mffmem =           1         mkmem =           5
       mpw =       12538          nfft =      373248          nkpt =          20
Pmy_natom=         3
 PAW method is used; the additional fine FFT grid is defined by:
   mgfftf=       108    nfftf =   1259712
================================================================================
P This job should need less than                     429.048 Mbytes of memory.
  Rough estimation (10% accuracy) of disk space for files :
_ WF disk file :    160.706 Mbytes ; DEN or POT disk file :      9.613 Mbytes.
================================================================================


 DATASET    2 : space group I4 m m (#107); Bravais tI (body-center tetrag.)
================================================================================
 Values of the parameters that define the memory need for DATASET  2.
     intxc =       0    ionmov =       2      iscf =      17    lmnmax =      18
     lnmax =       6     mgfft =      72  mpssoang =       3    mqgrid =    4129
     natom =       9  nloc_mem =       2    nspden =       1   nspinor =       1
    nsppol =       1      nsym =       8    n1xccc =       1    ntypat =       4
    occopt =       1   xclevel =       2
-    mband =          42        mffmem =           1         mkmem =           5
       mpw =       12156          nfft =      373248          nkpt =          20
Pmy_natom=         3
 PAW method is used; the additional fine FFT grid is defined by:
   mgfftf=       108    nfftf =   1259712
================================================================================
P This job should need less than                     428.585 Mbytes of memory.
  Rough estimation (10% accuracy) of disk space for files :
_ WF disk file :    155.810 Mbytes ; DEN or POT disk file :      9.613 Mbytes.
================================================================================


 DATASET    3 : space group I4 m m (#107); Bravais tI (body-center tetrag.)
================================================================================
 Values of the parameters that define the memory need for DATASET  3.
     intxc =       0    ionmov =       2      iscf =      17    lmnmax =      18
     lnmax =       6     mgfft =      72  mpssoang =       3    mqgrid =    4087
     natom =       9  nloc_mem =       2    nspden =       1   nspinor =       1
    nsppol =       1      nsym =       8    n1xccc =       1    ntypat =       4
    occopt =       1   xclevel =       2
-    mband =          42        mffmem =           1         mkmem =           5
       mpw =       11768          nfft =      373248          nkpt =          20
Pmy_natom=         3
 PAW method is used; the additional fine FFT grid is defined by:
   mgfftf=       108    nfftf =   1259712
================================================================================
P This job should need less than                     428.139 Mbytes of memory.
  Rough estimation (10% accuracy) of disk space for files :
_ WF disk file :    150.837 Mbytes ; DEN or POT disk file :      9.613 Mbytes.
================================================================================


 DATASET    4 : space group I4 m m (#107); Bravais tI (body-center tetrag.)
================================================================================
 Values of the parameters that define the memory need for DATASET  4.
     intxc =       0    ionmov =       2      iscf =      17    lmnmax =      18
     lnmax =       6     mgfft =      64  mpssoang =       3    mqgrid =    4045
     natom =       9  nloc_mem =       2    nspden =       1   nspinor =       1
    nsppol =       1      nsym =       8    n1xccc =       1    ntypat =       4
    occopt =       1   xclevel =       2
-    mband =          42        mffmem =           1         mkmem =           5
       mpw =       11424          nfft =      262144          nkpt =          20
Pmy_natom=         3
 PAW method is used; the additional fine FFT grid is defined by:
   mgfftf=       108    nfftf =   1259712
================================================================================
P This job should need less than                     411.356 Mbytes of memory.
  Rough estimation (10% accuracy) of disk space for files :
_ WF disk file :    146.428 Mbytes ; DEN or POT disk file :      9.613 Mbytes.
================================================================================


 DATASET    5 : space group I4 m m (#107); Bravais tI (body-center tetrag.)
================================================================================
 Values of the parameters that define the memory need for DATASET  5.
     intxc =       0    ionmov =       2      iscf =      17    lmnmax =      18
     lnmax =       6     mgfft =      64  mpssoang =       3    mqgrid =    4003
     natom =       9  nloc_mem =       2    nspden =       1   nspinor =       1
    nsppol =       1      nsym =       8    n1xccc =       1    ntypat =       4
    occopt =       1   xclevel =       2
-    mband =          42        mffmem =           1         mkmem =           5
       mpw =       11083          nfft =      262144          nkpt =          20
Pmy_natom=         3
 PAW method is used; the additional fine FFT grid is defined by:
   mgfftf=       100    nfftf =   1000000
================================================================================
P This job should need less than                     343.711 Mbytes of memory.
  Rough estimation (10% accuracy) of disk space for files :
_ WF disk file :    142.057 Mbytes ; DEN or POT disk file :      7.631 Mbytes.
================================================================================


 DATASET    6 : space group I4 m m (#107); Bravais tI (body-center tetrag.)
================================================================================
 Values of the parameters that define the memory need for DATASET  6.
     intxc =       0    ionmov =       2      iscf =      17    lmnmax =      18
     lnmax =       6     mgfft =      64  mpssoang =       3    mqgrid =    3961
     natom =       9  nloc_mem =       2    nspden =       1   nspinor =       1
    nsppol =       1      nsym =       8    n1xccc =       1    ntypat =       4
    occopt =       1   xclevel =       2
-    mband =          42        mffmem =           1         mkmem =           5
       mpw =       10722          nfft =      262144          nkpt =          20
Pmy_natom=         3
 PAW method is used; the additional fine FFT grid is defined by:
   mgfftf=       100    nfftf =   1000000
================================================================================
P This job should need less than                     343.267 Mbytes of memory.
  Rough estimation (10% accuracy) of disk space for files :
_ WF disk file :    137.430 Mbytes ; DEN or POT disk file :      7.631 Mbytes.
================================================================================


 DATASET    7 : space group I4 m m (#107); Bravais tI (body-center tetrag.)
================================================================================
 Values of the parameters that define the memory need for DATASET  7.
     intxc =       0    ionmov =       2      iscf =      17    lmnmax =      18
     lnmax =       6     mgfft =      64  mpssoang =       3    mqgrid =    3919
     natom =       9  nloc_mem =       2    nspden =       1   nspinor =       1
    nsppol =       1      nsym =       8    n1xccc =       1    ntypat =       4
    occopt =       1   xclevel =       2
-    mband =          42        mffmem =           1         mkmem =           5
       mpw =       10379          nfft =      262144          nkpt =          20
Pmy_natom=         3
 PAW method is used; the additional fine FFT grid is defined by:
   mgfftf=       100    nfftf =   1000000
================================================================================
P This job should need less than                     342.925 Mbytes of memory.
  Rough estimation (10% accuracy) of disk space for files :
_ WF disk file :    133.034 Mbytes ; DEN or POT disk file :      7.631 Mbytes.
================================================================================


 DATASET    8 : space group I4 m m (#107); Bravais tI (body-center tetrag.)
================================================================================
 Values of the parameters that define the memory need for DATASET  8.
     intxc =       0    ionmov =       2      iscf =      17    lmnmax =      18
     lnmax =       6     mgfft =      64  mpssoang =       3    mqgrid =    3877
     natom =       9  nloc_mem =       2    nspden =       1   nspinor =       1
    nsppol =       1      nsym =       8    n1xccc =       1    ntypat =       4
    occopt =       1   xclevel =       2
-    mband =          42        mffmem =           1         mkmem =           5
       mpw =       10058          nfft =      262144          nkpt =          20
Pmy_natom=         3
 PAW method is used; the additional fine FFT grid is defined by:
   mgfftf=       100    nfftf =   1000000
================================================================================
P This job should need less than                     342.700 Mbytes of memory.
  Rough estimation (10% accuracy) of disk space for files :
_ WF disk file :    128.919 Mbytes ; DEN or POT disk file :      7.631 Mbytes.
================================================================================


 DATASET    9 : space group I4 m m (#107); Bravais tI (body-center tetrag.)
================================================================================
 Values of the parameters that define the memory need for DATASET  9.
     intxc =       0    ionmov =       2      iscf =      17    lmnmax =      18
     lnmax =       6     mgfft =      64  mpssoang =       3    mqgrid =    3834
     natom =       9  nloc_mem =       2    nspden =       1   nspinor =       1
    nsppol =       1      nsym =       8    n1xccc =       1    ntypat =       4
    occopt =       1   xclevel =       2
-    mband =          42        mffmem =           1         mkmem =           5
       mpw =        9721          nfft =      262144          nkpt =          20
Pmy_natom=         3
 PAW method is used; the additional fine FFT grid is defined by:
   mgfftf=        96    nfftf =    884736
================================================================================
P This job should need less than                     312.098 Mbytes of memory.
  Rough estimation (10% accuracy) of disk space for files :
_ WF disk file :    124.600 Mbytes ; DEN or POT disk file :      6.752 Mbytes.
================================================================================


 DATASET   10 : space group I4 m m (#107); Bravais tI (body-center tetrag.)
================================================================================
 Values of the parameters that define the memory need for DATASET 10.
     intxc =       0    ionmov =       2      iscf =      17    lmnmax =      18
     lnmax =       6     mgfft =      60  mpssoang =       3    mqgrid =    3792
     natom =       9  nloc_mem =       2    nspden =       1   nspinor =       1
    nsppol =       1      nsym =       8    n1xccc =       1    ntypat =       4
    occopt =       1   xclevel =       2
-    mband =          42        mffmem =           1         mkmem =           5
       mpw =        9408          nfft =      216000          nkpt =          20
Pmy_natom=         3
 PAW method is used; the additional fine FFT grid is defined by:
   mgfftf=        96    nfftf =    884736
================================================================================
P This job should need less than                     305.003 Mbytes of memory.
  Rough estimation (10% accuracy) of disk space for files :
_ WF disk file :    120.588 Mbytes ; DEN or POT disk file :      6.752 Mbytes.
================================================================================

--------------------------------------------------------------------------------
------------- Echo of variables that govern the present computation ------------
--------------------------------------------------------------------------------
-
- outvars: echo of selected default values                                      
-   iomode0 =  0 , fftalg0 =112 , wfoptalg0 = 10
-
- outvars: echo of global parameters not present in the input file              
-  max_nthreads =    0
-
 -outvars: echo values of preprocessed input variables --------
            acell1     1.5519020732E+01  1.5794425924E+01  1.5519020732E+01 Bohr
            acell2     1.5362262947E+01  1.5634886268E+01  1.5362262947E+01 Bohr
            acell3     1.5205505161E+01  1.5475346613E+01  1.5205505161E+01 Bohr
            acell4     1.5048747376E+01  1.5315806957E+01  1.5048747376E+01 Bohr
            acell5     1.4891989591E+01  1.5156267301E+01  1.4891989591E+01 Bohr
            acell6     1.4735231806E+01  1.4996727645E+01  1.4735231806E+01 Bohr
            acell7     1.4578474021E+01  1.4837187989E+01  1.4578474021E+01 Bohr
            acell8     1.4421716236E+01  1.4677648334E+01  1.4421716236E+01 Bohr
            acell9     1.4264958450E+01  1.4518108678E+01  1.4264958450E+01 Bohr
            acell10    1.4108200665E+01  1.4358569022E+01  1.4108200665E+01 Bohr
              amu      1.32905430E+02  1.26904470E+02  1.78490000E+02
                       7.99040000E+01
           diemac      1.20000000E+01
          dilatmx      1.15000000E+00
             ecut      1.60000000E+01 Hartree
           ecutsm      5.00000000E-01 Hartree
-          fftalg         112
          getxred1          0
          getxred2         -1
          getxred3         -1
          getxred4         -1
          getxred5         -1
          getxred6         -1
          getxred7         -1
          getxred8         -1
          getxred9         -1
          getxred10        -1
           ionmov           2
              ixc     -101130
           jdtset        1    2    3    4    5    6    7    8    9   10
              kpt      0.00000000E+00 -1.25000000E-01  0.00000000E+00
                       0.00000000E+00 -3.75000000E-01  0.00000000E+00
                       1.25000000E-01 -2.50000000E-01  0.00000000E+00
                       1.25000000E-01 -1.25000000E-01  1.25000000E-01
                       1.25000000E-01  5.00000000E-01  0.00000000E+00
                       2.50000000E-01 -3.75000000E-01  0.00000000E+00
                       1.25000000E-01 -3.75000000E-01  1.25000000E-01
                       2.50000000E-01 -2.50000000E-01  1.25000000E-01
                       2.50000000E-01 -1.25000000E-01  2.50000000E-01
                       1.25000000E-01  2.50000000E-01  0.00000000E+00
                       2.50000000E-01  3.75000000E-01  0.00000000E+00
                       3.75000000E-01  5.00000000E-01  0.00000000E+00
                       1.25000000E-01  3.75000000E-01  1.25000000E-01
                       2.50000000E-01  5.00000000E-01  1.25000000E-01
                       3.75000000E-01 -3.75000000E-01  1.25000000E-01
                       2.50000000E-01 -3.75000000E-01  2.50000000E-01
                       3.75000000E-01 -2.50000000E-01  2.50000000E-01
                       3.75000000E-01 -1.25000000E-01  3.75000000E-01
                       5.00000000E-01  2.50000000E-01  1.25000000E-01
                      -3.75000000E-01  3.75000000E-01  1.25000000E-01
         kptrlatt        4    4   -4     -4    4    4      4   -4    4
          kptrlen1     8.62027598E+01
          kptrlen2     8.53320249E+01
          kptrlen3     8.44612899E+01
          kptrlen4     8.35905550E+01
          kptrlen5     8.27198200E+01
          kptrlen6     8.18490851E+01
          kptrlen7     8.09783501E+01
          kptrlen8     8.01076152E+01
          kptrlen9     7.92368802E+01
          kptrlen10    7.83661453E+01
P           mkmem           5
            natom           9
            nband          42
           ndtset          10
            ngfft1         72      72      72
            ngfft2         72      72      72
            ngfft3         72      72      72
            ngfft4         64      64      64
            ngfft5         64      64      64
            ngfft6         64      64      64
            ngfft7         64      64      64
            ngfft8         64      64      64
            ngfft9         64      64      64
            ngfft10        60      60      60
          ngfftdg1        108     108     108
          ngfftdg2        108     108     108
          ngfftdg3        108     108     108
          ngfftdg4        108     108     108
          ngfftdg5        100     100     100
          ngfftdg6        100     100     100
          ngfftdg7        100     100     100
          ngfftdg8        100     100     100
          ngfftdg9         96      96      96
          ngfftdg10        96      96      96
             nkpt          20
            nstep        2500
             nsym           8
            ntime        1000
           ntypat           4
              occ      2.000000  2.000000  2.000000  2.000000  2.000000  2.000000
                       2.000000  2.000000  2.000000  2.000000  2.000000  2.000000
                       2.000000  2.000000  2.000000  2.000000  2.000000  2.000000
                       2.000000  2.000000  2.000000  2.000000  2.000000  2.000000
                       2.000000  2.000000  2.000000  2.000000  2.000000  2.000000
                       2.000000  2.000000  2.000000  2.000000  2.000000  2.000000
                       0.000000  0.000000  0.000000  0.000000  0.000000  0.000000
          optcell           3
        optforces           1
        pawecutdg      4.00000000E+01 Hartree
            prtwf           0
            rprim      0.0000000000E+00  6.9433150207E-01  7.1965531001E-01
                       7.0710678119E-01  0.0000000000E+00  7.0710678119E-01
                       7.1965531001E-01  6.9433150207E-01  0.0000000000E+00
           shiftk     -5.00000000E-01  5.00000000E-01  5.00000000E-01
          spgroup         107
           symrel      1  0  0   0  1  0   0  0  1       0  0  1   0  1  0   1  0  0
                       0 -1  1   0 -1  0   1 -1  0       1 -1  0   0 -1  0   0 -1  1
                       0 -1  1  -1  0  1   0  0  1       0  0  1  -1  0  1   0 -1  1
                       1  0  0   1  0 -1   1 -1  0       1 -1  0   1  0 -1   1  0  0
           toldff      1.00000000E-08
           tolmxf      1.00000000E-06
            typat      1  1  4  2  2  4  2  2  3
           useylm           1
              wtk        0.03125    0.03125    0.06250    0.03125    0.06250    0.06250
                         0.03125    0.06250    0.03125    0.06250    0.06250    0.06250
                         0.03125    0.06250    0.06250    0.03125    0.06250    0.03125
                         0.06250    0.06250
           xangst1     2.9550169947E+00  2.8511582749E+00  2.9550169947E+00
                       8.8650509840E+00  8.5532252506E+00  8.8650509840E+00
                       5.9100339893E+00  8.8288864770E+00  5.9100339893E+00
                       5.9100339893E+00  5.7020526285E+00  2.8505580421E+00
                       5.9100339894E+00  5.7020526285E+00  8.9695099366E+00
                       5.9100339894E+00  2.5751414857E+00  5.9100339894E+00
                       8.9695099366E+00  5.7020526285E+00  5.9100339894E+00
                       2.8505580421E+00  5.7020526285E+00  5.9100339893E+00
                       4.3409652079E-16 -4.9703504488E-05  4.3409652079E-16
           xangst2     2.9251683382E+00  2.8223586964E+00  2.9251683382E+00
                       8.7755050145E+00  8.4668290360E+00  8.7755050145E+00
                       5.8503366763E+00  8.7397058055E+00  5.8503366763E+00
                       5.8503366763E+00  5.6444561373E+00  2.8217645265E+00
                       5.8503366763E+00  5.6444561373E+00  8.8789088261E+00
                       5.8503366764E+00  2.5491299555E+00  5.8503366764E+00
                       8.8789088261E+00  5.6444561373E+00  5.8503366763E+00
                       2.8217645265E+00  5.6444561373E+00  5.8503366763E+00
                       4.2971136632E-16 -4.9201448887E-05  4.2971136632E-16
           xangst3     2.8953196816E+00  2.7935591179E+00  2.8953196816E+00
                       8.6859590449E+00  8.3804328213E+00  8.6859590449E+00
                       5.7906393633E+00  8.6505251340E+00  5.7906393633E+00
                       5.7906393633E+00  5.5868596461E+00  2.7929710110E+00
                       5.7906393633E+00  5.5868596461E+00  8.7883077156E+00
                       5.7906393633E+00  2.5231184254E+00  5.7906393633E+00
                       8.7883077156E+00  5.5868596461E+00  5.7906393633E+00
                       2.7929710110E+00  5.5868596461E+00  5.7906393633E+00
                       4.2531904016E-16 -4.8699393286E-05  4.2531904016E-16
           xangst4     2.8654710251E+00  2.7647595393E+00  2.8654710251E+00
                       8.5964130754E+00  8.2940366067E+00  8.5964130754E+00
                       5.7309420502E+00  8.5613444626E+00  5.7309420502E+00
                       5.7309420503E+00  5.5292631549E+00  2.7641774954E+00
                       5.7309420503E+00  5.5292631549E+00  8.6977066052E+00
                       5.7309420503E+00  2.4971068952E+00  5.7309420503E+00
                       8.6977066052E+00  5.5292631549E+00  5.7309420503E+00
                       2.7641774954E+00  5.5292631549E+00  5.7309420503E+00
                       4.2094515428E-16 -4.8197337685E-05  4.2094515428E-16
           xangst5     2.8356223686E+00  2.7359599608E+00  2.8356223686E+00
                       8.5068671059E+00  8.2076403920E+00  8.5068671059E+00
                       5.6712447372E+00  8.4721637911E+00  5.6712447372E+00
                       5.6712447372E+00  5.4716666637E+00  2.7353839798E+00
                       5.6712447373E+00  5.4716666637E+00  8.6071054947E+00
                       5.6712447373E+00  2.4710953650E+00  5.6712447373E+00
                       8.6071054947E+00  5.4716666637E+00  5.6712447373E+00
                       2.7353839798E+00  5.4716666637E+00  5.6712447372E+00
                       4.1654924227E-16 -4.7695282084E-05  4.1654924227E-16
           xangst6     2.8057737121E+00  2.7071603823E+00  2.8057737121E+00
                       8.4173211363E+00  8.1212441774E+00  8.4173211363E+00
                       5.6115474242E+00  8.3829831196E+00  5.6115474242E+00
                       5.6115474242E+00  5.4140701725E+00  2.7065904642E+00
                       5.6115474243E+00  5.4140701725E+00  8.5165043842E+00
                       5.6115474243E+00  2.4450838349E+00  5.6115474243E+00
                       8.5165043842E+00  5.4140701725E+00  5.6115474243E+00
                       2.7065904642E+00  5.4140701725E+00  5.6115474242E+00
                       4.1217652371E-16 -4.7193226483E-05  4.1217652371E-16
           xangst7     2.7759250556E+00  2.6783608037E+00  2.7759250556E+00
                       8.3277751668E+00  8.0348479627E+00  8.3277751668E+00
                       5.5518501112E+00  8.2938024481E+00  5.5518501112E+00
                       5.5518501112E+00  5.3564736813E+00  2.6777969487E+00
                       5.5518501112E+00  5.3564736813E+00  8.4259032738E+00
                       5.5518501112E+00  2.4190723047E+00  5.5518501112E+00
                       8.4259032738E+00  5.3564736813E+00  5.5518501112E+00
                       2.6777969487E+00  5.3564736813E+00  5.5518501112E+00
                       4.0777781657E-16 -4.6691170882E-05  4.0777781657E-16
           xangst8     2.7460763991E+00  2.6495612252E+00  2.7460763991E+00
                       8.2382291973E+00  7.9484517480E+00  8.2382291973E+00
                       5.4921527982E+00  8.2046217766E+00  5.4921527982E+00
                       5.4921527982E+00  5.2988771901E+00  2.6490034331E+00
                       5.4921527982E+00  5.2988771901E+00  8.3353021633E+00
                       5.4921527982E+00  2.3930607746E+00  5.4921527982E+00
                       8.3353021633E+00  5.2988771901E+00  5.4921527982E+00
                       2.6490034331E+00  5.2988771901E+00  5.4921527982E+00
                       4.0341221913E-16 -4.6189115281E-05  4.0341221913E-16
           xangst9     2.7162277426E+00  2.6207616467E+00  2.7162277426E+00
                       8.1486832277E+00  7.8620555334E+00  8.1486832277E+00
                       5.4324554851E+00  8.1154411051E+00  5.4324554851E+00
                       5.4324554851E+00  5.2412806989E+00  2.6202099175E+00
                       5.4324554852E+00  5.2412806989E+00  8.2447010528E+00
                       5.4324554852E+00  2.3670492444E+00  5.4324554852E+00
                       8.2447010528E+00  5.2412806989E+00  5.4324554852E+00
                       2.6202099175E+00  5.2412806989E+00  5.4324554851E+00
                       3.9901015106E-16 -4.5687059680E-05  3.9901015106E-16
           xangst10    2.6863790861E+00  2.5919620681E+00  2.6863790861E+00
                       8.0591372582E+00  7.7756593187E+00  8.0591372582E+00
                       5.3727581721E+00  8.0262604337E+00  5.3727581721E+00
                       5.3727581721E+00  5.1836842077E+00  2.5914164019E+00
                       5.3727581722E+00  5.1836842077E+00  8.1540999423E+00
                       5.3727581722E+00  2.3410377142E+00  5.3727581722E+00
                       8.1540999423E+00  5.1836842077E+00  5.3727581722E+00
                       2.5914164019E+00  5.1836842077E+00  5.3727581721E+00
                       3.9463524956E-16 -4.5185004080E-05  3.9463524956E-16
            xcart1     5.5841728380E+00  5.3879083012E+00  5.5841728380E+00
                       1.6752518514E+01  1.6163253277E+01  1.6752518514E+01
                       1.1168345676E+01  1.6684177500E+01  1.1168345676E+01
                       1.1168345676E+01  1.0775317863E+01  5.3867740255E+00
                       1.1168345676E+01  1.0775317863E+01  1.6949917326E+01
                       1.1168345676E+01  4.8663121613E+00  1.1168345676E+01
                       1.6949917326E+01  1.0775317863E+01  1.1168345676E+01
                       5.3867740255E+00  1.0775317863E+01  1.1168345676E+01
                       8.2032353954E-16 -9.3926011326E-05  8.2032353954E-16
            xcart2     5.5277670517E+00  5.3334849850E+00  5.5277670517E+00
                       1.6583301155E+01  1.5999988092E+01  1.6583301155E+01
                       1.1055534103E+01  1.6515650454E+01  1.1055534103E+01
                       1.1055534103E+01  1.0666476269E+01  5.3323621667E+00
                       1.1055534103E+01  1.0666476269E+01  1.6778706040E+01
                       1.1055534103E+01  4.8171574931E+00  1.1055534103E+01
                       1.6778706040E+01  1.0666476269E+01  1.1055534103E+01
                       5.3323621667E+00  1.0666476269E+01  1.1055534103E+01
                       8.1203679853E-16 -9.2977263737E-05  8.1203679853E-16
            xcart3     5.4713612655E+00  5.2790616688E+00  5.4713612655E+00
                       1.6414083796E+01  1.5836722907E+01  1.6414083796E+01
                       1.0942722531E+01  1.6347123409E+01  1.0942722531E+01
                       1.0942722531E+01  1.0557634674E+01  5.2779503078E+00
                       1.0942722531E+01  1.0557634674E+01  1.6607494754E+01
                       1.0942722531E+01  4.7680028248E+00  1.0942722531E+01
                       1.6607494754E+01  1.0557634674E+01  1.0942722531E+01
                       5.2779503078E+00  1.0557634674E+01  1.0942722531E+01
                       8.0373650500E-16 -9.2028516148E-05  8.0373650500E-16
            xcart4     5.4149554792E+00  5.2246383526E+00  5.4149554792E+00
                       1.6244866438E+01  1.5673457723E+01  1.6244866438E+01
                       1.0829910958E+01  1.6178596364E+01  1.0829910958E+01
                       1.0829910958E+01  1.0448793079E+01  5.2235384490E+00
                       1.0829910959E+01  1.0448793079E+01  1.6436283468E+01
                       1.0829910959E+01  4.7188481565E+00  1.0829910959E+01
                       1.6436283468E+01  1.0448793079E+01  1.0829910959E+01
                       5.2235384490E+00  1.0448793079E+01  1.0829910958E+01
                       7.9547105855E-16 -9.1079768559E-05  7.9547105855E-16
            xcart5     5.3585496930E+00  5.1702150365E+00  5.3585496930E+00
                       1.6075649079E+01  1.5510192538E+01  1.6075649079E+01
                       1.0717099386E+01  1.6010069318E+01  1.0717099386E+01
                       1.0717099386E+01  1.0339951485E+01  5.1691265901E+00
                       1.0717099386E+01  1.0339951485E+01  1.6265072182E+01
                       1.0717099386E+01  4.6696934882E+00  1.0717099386E+01
                       1.6265072182E+01  1.0339951485E+01  1.0717099386E+01
                       5.1691265901E+00  1.0339951485E+01  1.0717099386E+01
                       7.8716398875E-16 -9.0131020969E-05  7.8716398875E-16
            xcart6     5.3021439067E+00  5.1157917203E+00  5.3021439067E+00
                       1.5906431720E+01  1.5346927353E+01  1.5906431720E+01
                       1.0604287813E+01  1.5841542273E+01  1.0604287813E+01
                       1.0604287813E+01  1.0231109890E+01  5.1147147313E+00
                       1.0604287814E+01  1.0231109890E+01  1.6093860896E+01
                       1.0604287814E+01  4.6205388199E+00  1.0604287814E+01
                       1.6093860896E+01  1.0231109890E+01  1.0604287814E+01
                       5.1147147313E+00  1.0231109890E+01  1.0604287813E+01
                       7.7890074822E-16 -8.9182273380E-05  7.7890074822E-16
            xcart7     5.2457381205E+00  5.0613684041E+00  5.2457381205E+00
                       1.5737214362E+01  1.5183662169E+01  1.5737214362E+01
                       1.0491476241E+01  1.5673015227E+01  1.0491476241E+01
                       1.0491476241E+01  1.0122268296E+01  5.0603028724E+00
                       1.0491476241E+01  1.0122268296E+01  1.5922649610E+01
                       1.0491476241E+01  4.5713841516E+00  1.0491476241E+01
                       1.5922649610E+01  1.0122268296E+01  1.0491476241E+01
                       5.0603028724E+00  1.0122268296E+01  1.0491476241E+01
                       7.7058839638E-16 -8.8233525791E-05  7.7058839638E-16
            xcart8     5.1893323343E+00  5.0069450879E+00  5.1893323343E+00
                       1.5567997003E+01  1.5020396984E+01  1.5567997003E+01
                       1.0378664668E+01  1.5504488182E+01  1.0378664668E+01
                       1.0378664668E+01  1.0013426701E+01  5.0058910136E+00
                       1.0378664669E+01  1.0013426701E+01  1.5751438323E+01
                       1.0378664669E+01  4.5222294833E+00  1.0378664669E+01
                       1.5751438323E+01  1.0013426701E+01  1.0378664669E+01
                       5.0058910136E+00  1.0013426701E+01  1.0378664668E+01
                       7.6233861282E-16 -8.7284778202E-05  7.6233861282E-16
            xcart9     5.1329265480E+00  4.9525217718E+00  5.1329265480E+00
                       1.5398779644E+01  1.4857131800E+01  1.5398779644E+01
                       1.0265853096E+01  1.5335961136E+01  1.0265853096E+01
                       1.0265853096E+01  9.9045851065E+00  4.9514791548E+00
                       1.0265853096E+01  9.9045851065E+00  1.5580227037E+01
                       1.0265853096E+01  4.4730748150E+00  1.0265853096E+01
                       1.5580227037E+01  9.9045851065E+00  1.0265853096E+01
                       4.9514791548E+00  9.9045851065E+00  1.0265853096E+01
                       7.5401990974E-16 -8.6336030613E-05  7.5401990974E-16
            xcart10    5.0765207618E+00  4.8980984556E+00  5.0765207618E+00
                       1.5229562285E+01  1.4693866615E+01  1.5229562285E+01
                       1.0153041524E+01  1.5167434091E+01  1.0153041524E+01
                       1.0153041524E+01  9.7957435119E+00  4.8970672959E+00
                       1.0153041524E+01  9.7957435119E+00  1.5409015751E+01
                       1.0153041524E+01  4.4239201467E+00  1.0153041524E+01
                       1.5409015751E+01  9.7957435119E+00  1.0153041524E+01
                       4.8970672959E+00  9.7957435119E+00  1.0153041524E+01
                       7.4575254404E-16 -8.5387283024E-05  7.4575254404E-16
             xred      2.5001094227E-01  2.4998905773E-01  2.5001094227E-01
                       7.5001094227E-01  7.4998905773E-01  7.5001094227E-01
                       7.7418298616E-01  2.2581701384E-01  7.7418298616E-01
                       2.4116131792E-01  2.4116383406E-01  7.5883616594E-01
                       7.5883616594E-01  7.5883868208E-01  2.4116131792E-01
                       2.2580771996E-01  7.7419228004E-01  2.2580771996E-01
                       2.4116131792E-01  7.5883868208E-01  7.5883616594E-01
                       7.5883616594E-01  2.4116383406E-01  2.4116131792E-01
                      -4.3583760678E-06  4.3583760678E-06 -4.3583760678E-06
            znucl       55.00000   53.00000   72.00000   35.00000

================================================================================

 chkinp: Checking input parameters for consistency, jdtset=   1.

 chkinp: Checking input parameters for consistency, jdtset=   2.

 chkinp: Checking input parameters for consistency, jdtset=   3.

 chkinp: Checking input parameters for consistency, jdtset=   4.

 chkinp: Checking input parameters for consistency, jdtset=   5.

 chkinp: Checking input parameters for consistency, jdtset=   6.

 chkinp: Checking input parameters for consistency, jdtset=   7.

 chkinp: Checking input parameters for consistency, jdtset=   8.

 chkinp: Checking input parameters for consistency, jdtset=   9.

 chkinp: Checking input parameters for consistency, jdtset=  10.

================================================================================
== DATASET  1 ==================================================================
-   mpi_nproc: 4, omp_nthreads: -1 (-1 if OMP is not activated)


--- !DatasetInfo
iteration_state: {dtset: 1, }
dimensions: {natom: 9, nkpt: 20, mband: 42, nsppol: 1, nspinor: 1, nspden: 1, mpw: 12538, }
cutoff_energies: {ecut:  16.0, pawecutdg:  40.0, }
electrons: {nelect:   7.20000000E+01, charge:   0.00000000E+00, occopt:   1.00000000E+00, tsmear:   1.00000000E-02, }
meta: {optdriver: 0, ionmov: 2, optcell: 3, iscf: 17, paral_kgb: 0, }
...

 Real(R)+Recip(G) space primitive vectors, cartesian coordinates (Bohr,Bohr^-1):
 R(1)=  0.0000000 10.7753450 11.1683457  G(1)= -0.0447694  0.0464022  0.0447694
 R(2)= 11.1683457  0.0000000 11.1683457  G(2)=  0.0447694 -0.0464022  0.0447694
 R(3)= 11.1683457 10.7753450  0.0000000  G(3)=  0.0447694  0.0464022 -0.0447694
 Unit cell volume ucvol=  2.6880595E+03 bohr^3
 Angles (23,13,12)=  5.94112001E+01  6.11775999E+01  5.94112001E+01 degrees

 Coarse grid specifications (used for wave-functions):

 getcut: wavevector=  0.0000  0.0000  0.0000  ngfft=  72  72  72
         ecut(hartree)=     21.160   => boxcut(ratio)=   2.20143

 getcut : COMMENT -
  Note that boxcut > 2.2 ; recall that boxcut=Gcut(box)/Gcut(sphere) = 2
  is sufficient for exact treatment of convolution.
  Such a large boxcut is a waste : you could raise ecut
  e.g. ecut=   25.636992 Hartrees makes boxcut=2


 Fine grid specifications (used for densities):

 getcut: wavevector=  0.0000  0.0000  0.0000  ngfft= 108 108 108
         ecut(hartree)=     52.900   => boxcut(ratio)=   2.08846

--- Pseudopotential description ------------------------------------------------
- pspini: atom type   1  psp file is ../../../Psps_for_tests/ATOMICDATA/Cs.GGA_PBE-JTH.xml
- pspatm: opening atomic psp file    ../../../Psps_for_tests/ATOMICDATA/Cs.GGA_PBE-JTH.xml
- pspatm : Reading pseudopotential header in XML form from ../../../Psps_for_tests/ATOMICDATA/Cs.GGA_PBE-JTH.xml
 Pseudopotential format is: paw10
 basis_size (lnmax)=  6 (lmn_size= 18), orbitals=   0   0   1   1   2   2
 Spheres core radius: rc_sph= 2.20660278
 1 radial meshes are used:
  - mesh 1: r(i)=AA*[exp(BB*(i-1))-1], size=1500 , AA= 0.15922E-03 BB= 0.87573E-02
 Shapefunction is SIN type: shapef(r)=[sin(pi*r/rshp)/(pi*r/rshp)]**2
 Radius for shape functions =  2.00394208
 mmax= 1500
 Radial grid used for partial waves is grid 1
 Radial grid used for projectors is grid 1
 Radial grid used for (t)core density is grid 1
 Radial grid used for Vloc is grid 1
 Radial grid used for pseudo valence density is grid 1
 Mesh size for Vloc has been set to 1341 to avoid numerical noise.
 Compensation charge density is not taken into account in XC energy/potential
 pspatm: atomic psp has been read  and splines computed

- pspini: atom type   2  psp file is ../../../Psps_for_tests/ATOMICDATA/I.GGA_PBE-JTH.xml
- pspatm: opening atomic psp file    ../../../Psps_for_tests/ATOMICDATA/I.GGA_PBE-JTH.xml
- pspatm : Reading pseudopotential header in XML form from ../../../Psps_for_tests/ATOMICDATA/I.GGA_PBE-JTH.xml
 Pseudopotential format is: paw10
 basis_size (lnmax)=  4 (lmn_size=  8), orbitals=   0   0   1   1
 Spheres core radius: rc_sph= 2.30022271
 1 radial meshes are used:
  - mesh 1: r(i)=AA*[exp(BB*(i-1))-1], size=2000 , AA= 0.12610E-03 BB= 0.66836E-02
 Shapefunction is SIN type: shapef(r)=[sin(pi*r/rshp)/(pi*r/rshp)]**2
 Radius for shape functions =  2.10879093
 mmax= 2000
 Radial grid used for partial waves is grid 1
 Radial grid used for projectors is grid 1
 Radial grid used for (t)core density is grid 1
 Radial grid used for Vloc is grid 1
 Radial grid used for pseudo valence density is grid 1
 Mesh size for Vloc has been set to 1792 to avoid numerical noise.
 Compensation charge density is not taken into account in XC energy/potential
 pspatm: atomic psp has been read  and splines computed

- pspini: atom type   3  psp file is ../../../Psps_for_tests/ATOMICDATA/Hf.GGA_PBE-JTH.xml
- pspatm: opening atomic psp file    ../../../Psps_for_tests/ATOMICDATA/Hf.GGA_PBE-JTH.xml
- pspatm : Reading pseudopotential header in XML form from ../../../Psps_for_tests/ATOMICDATA/Hf.GGA_PBE-JTH.xml
 Pseudopotential format is: paw10
 basis_size (lnmax)=  6 (lmn_size= 18), orbitals=   0   0   1   1   2   2
 Spheres core radius: rc_sph= 2.41000000
 1 radial meshes are used:
  - mesh 1: r(i)=AA*[exp(BB*(i-1))-1], size= 972 , AA= 0.19796E-03 BB= 0.14253E-01
 Shapefunction is SIN type: shapef(r)=[sin(pi*r/rshp)/(pi*r/rshp)]**2
 Radius for shape functions =  2.41000000
 mmax=  972
 Radial grid used for partial waves is grid 1
 Radial grid used for projectors is grid 1
 Radial grid used for (t)core density is grid 1
 Radial grid used for Vloc is grid 1
 Radial grid used for pseudo valence density is grid 1
 Mesh size for Vloc has been set to  809 to avoid numerical noise.
 Compensation charge density is not taken into account in XC energy/potential
 pspatm: atomic psp has been read  and splines computed

- pspini: atom type   4  psp file is ../../../Psps_for_tests/ATOMICDATA/Br.GGA_PBE-JTH.xml
- pspatm: opening atomic psp file    ../../../Psps_for_tests/ATOMICDATA/Br.GGA_PBE-JTH.xml
- pspatm : Reading pseudopotential header in XML form from ../../../Psps_for_tests/ATOMICDATA/Br.GGA_PBE-JTH.xml
 Pseudopotential format is: paw10
 basis_size (lnmax)=  4 (lmn_size=  8), orbitals=   0   0   1   1
 Spheres core radius: rc_sph= 2.20000000
 1 radial meshes are used:
  - mesh 1: r(i)=AA*[exp(BB*(i-1))-1], size= 927 , AA= 0.40483E-03 BB= 0.14169E-01
 Shapefunction is BESSEL type: shapef(r,l)=aa(1,l)*jl(q(1,l)*r)+aa(2,l)*jl(q(2,l)*r)
 Radius for shape functions =  2.02066386
 mmax=  927
 Radial grid used for partial waves is grid 1
 Radial grid used for projectors is grid 1
 Radial grid used for (t)core density is grid 1
 Radial grid used for Vloc is grid 1
 Radial grid used for pseudo valence density is grid 1
 Mesh size for Vloc has been set to  763 to avoid numerical noise.
 Compensation charge density is not taken into account in XC energy/potential
 pspatm: atomic psp has been read  and splines computed

   4.24151776E+04                                ecore*ucvol(ha*bohr**3)
--------------------------------------------------------------------------------

_setup2: Arith. and geom. avg. npw (full set) are   12497.125   12497.119

================================================================================

=== [ionmov= 2] Broyden-Fletcher-Goldfard-Shanno method (forces)            
================================================================================

--- Iteration: (   1/1000) Internal Cycle: (1/1)
--------------------------------------------------------------------------------

---SELF-CONSISTENT-FIELD CONVERGENCE--------------------------------------------

--- !BeginCycle
iteration_state: {dtset: 1, itime: 1, icycle: 1, }
solver: {iscf: 17, nstep: 2500, nline: 4, wfoptalg: 10, }
tolerances: {toldff: 1.00E-08, }
...

     iter   Etot(hartree)      deltaE(h)  residm     nres2    diffor    maxfor
 ETOT  1  -163.59492843728    -1.636E+02 7.436E+00 8.991E+00 2.390E-02 2.390E-02
 ETOT  2  -165.27693633057    -1.682E+00 1.657E-02 3.820E+00 2.575E-02 5.519E-03
 ETOT  3  -165.26575532957     1.118E-02 1.762E-02 7.244E-01 2.677E-02 2.508E-02
 ETOT  4  -165.26624133699    -4.860E-04 5.283E-03 1.591E-01 3.440E-02 9.988E-03
 ETOT  5  -165.26622121939     2.012E-05 2.104E-03 1.755E-02 8.601E-03 1.443E-03
 ETOT  6  -165.26631439390    -9.317E-05 1.467E-03 1.721E-03 4.096E-03 5.505E-03
 ETOT  7  -165.26632526068    -1.087E-05 2.266E-03 6.324E-04 1.752E-04 5.632E-03
 ETOT  8  -165.26633098192    -5.721E-06 8.423E-04 7.005E-05 1.400E-04 5.518E-03
 ETOT  9  -165.26633103408    -5.216E-08 1.088E-03 1.538E-05 1.826E-04 5.675E-03
 ETOT 10  -165.26633113042    -9.634E-08 5.219E-04 6.991E-06 2.555E-05 5.696E-03
 ETOT 11  -165.26633111919     1.123E-08 4.227E-04 1.336E-06 2.872E-05 5.667E-03
 ETOT 12  -165.26633111945    -2.552E-10 4.912E-04 6.057E-08 1.093E-05 5.659E-03
 ETOT 13  -165.26633112028    -8.378E-10 4.732E-04 3.496E-08 4.427E-06 5.660E-03
 ETOT 14  -165.26633112032    -3.874E-11 5.652E-04 1.309E-08 2.260E-06 5.661E-03
 ETOT 15  -165.26633112025     7.074E-11 3.780E-04 3.332E-09 2.607E-06 5.662E-03
 ETOT 16  -165.26633112024     1.208E-11 3.919E-04 4.052E-09 6.725E-07 5.662E-03
 ETOT 17  -165.26633112022     1.816E-11 2.168E-04 3.196E-10 1.138E-06 5.662E-03
 ETOT 18  -165.26633112021     8.129E-12 2.170E-04 2.097E-10 5.687E-07 5.662E-03
 ETOT 19  -165.26633112022    -5.997E-12 1.108E-04 1.319E-10 1.419E-07 5.662E-03
 ETOT 20  -165.26633112022     3.439E-12 1.116E-04 4.274E-12 2.196E-07 5.662E-03
 ETOT 21  -165.26633112022    -6.622E-12 5.474E-05 4.691E-12 8.582E-08 5.662E-03
 ETOT 22  -165.26633112022     4.349E-12 5.558E-05 9.391E-13 2.446E-08 5.662E-03
 ETOT 23  -165.26633112022    -4.576E-12 2.671E-05 1.019E-13 2.290E-08 5.662E-03
 ETOT 24  -165.26633112021     8.527E-12 2.724E-05 4.471E-14 3.343E-09 5.662E-03
 ETOT 25  -165.26633112022    -4.178E-12 1.295E-05 4.740E-15 4.855E-09 5.662E-03

 At SCF step   25, forces are converged : 
  for the second time, max diff in force=  4.855E-09 < toldff=  1.000E-08

 Cartesian components of stress tensor (hartree/bohr^3)
  sigma(1 1)= -2.32279730E-05  sigma(3 2)=  5.10639109E-14
  sigma(2 2)= -2.61102528E-05  sigma(3 1)= -9.85350567E-14
  sigma(3 3)= -2.32279730E-05  sigma(2 1)=  5.10641308E-14


--- !ResultsGS
iteration_state: {dtset: 1, itime: 1, icycle: 1, }
comment   : Summary of ground state results
lattice_vectors:
- [  0.0000000,  10.7753450,  11.1683457, ]
- [ 11.1683457,   0.0000000,  11.1683457, ]
- [ 11.1683457,  10.7753450,   0.0000000, ]
lattice_lengths: [  15.51902,   15.79443,   15.51902, ]
lattice_angles: [ 59.411,  61.178,  59.411, ] # degrees, (23, 13, 12)
lattice_volume:   2.6880595E+03
convergence: {deltae: -4.178E-12, res2:  4.740E-15, residm:  1.295E-05, diffor:  4.855E-09, }
etotal    :  -1.65266331E+02
entropy   :   0.00000000E+00
fermie    :  -1.16068012E-01
cartesian_stress_tensor: # hartree/bohr^3
- [ -2.32279730E-05,   5.10641308E-14,  -9.85350567E-14, ]
- [  5.10641308E-14,  -2.61102528E-05,   5.10639109E-14, ]
- [ -9.85350567E-14,   5.10639109E-14,  -2.32279730E-05, ]
pressure_GPa:   7.1166E-01
xred      :
- [  2.5001E-01,   2.4999E-01,   2.5001E-01, Cs]
- [  7.5001E-01,   7.4999E-01,   7.5001E-01, Cs]
- [  7.7418E-01,   2.2582E-01,   7.7418E-01, Br]
- [  2.4116E-01,   2.4116E-01,   7.5884E-01,  I]
- [  7.5884E-01,   7.5884E-01,   2.4116E-01,  I]
- [  2.2581E-01,   7.7419E-01,   2.2581E-01, Br]
- [  2.4116E-01,   7.5884E-01,   7.5884E-01,  I]
- [  7.5884E-01,   2.4116E-01,   2.4116E-01,  I]
- [ -4.3584E-06,   4.3584E-06,  -4.3584E-06, Hf]
cartesian_forces: # hartree/bohr
- [  1.58462823E-23,  -1.49798145E-06,   1.18616892E-19, ]
- [ -2.99591857E-23,  -1.49798145E-06,   1.18662697E-19, ]
- [  1.32683014E-19,  -5.65861863E-03,  -1.40502757E-20, ]
- [ -3.71241136E-14,  -4.66115050E-08,   4.40571263E-03, ]
- [  3.71241912E-14,  -4.66115819E-08,  -4.40571263E-03, ]
- [ -8.62486615E-20,   5.66162900E-03,   2.04881399E-19, ]
- [ -4.40571263E-03,  -4.66115819E-08,   3.71239724E-14, ]
- [  4.40571263E-03,  -4.66115050E-08,  -3.71240217E-14, ]
- [  3.91761604E-23,   1.72038413E-07,   1.18593562E-19, ]
force_length_stats: {min:   1.72038413E-07, max:   5.66162900E-03, mean:   3.21625180E-03, }
...

 Integrated electronic density in atomic spheres:
 ------------------------------------------------
 Atom  Sphere_radius  Integrated_density
    1        2.20660          5.37374456
    2        2.20660          5.37374456
    3        2.20000          4.93120659
    4        2.30022          4.01946155
    5        2.30022          4.01946155
    6        2.20000          4.93117202
    7        2.30022          4.01946155
    8        2.30022          4.01946155
    9        2.41000          9.29856369

 PAW TEST:
 ==== Compensation charge inside spheres ============
 The following values must be close to each other ...
 Compensation charge over spherical meshes =     -0.478422334760958
 Compensation charge over fine fft grid    =     -0.478433527199637

 ==== Results concerning PAW augmentation regions ====

 Total pseudopotential strength Dij (hartree):
 Atom #  1
   0.44733  -0.14809  -0.00000   0.00000   0.00000   0.00000   0.00000   0.00000   0.00000   0.00000   0.00000  -0.00000 ...
  -0.14809   0.04468   0.00000   0.00000   0.00000  -0.00000   0.00000   0.00000   0.00000   0.00000  -0.00000   0.00000 ...
  -0.00000   0.00000  -0.09445   0.00000   0.00000  -0.16603   0.00000   0.00000   0.00000   0.00000   0.00000   0.00000 ...
   0.00000   0.00000   0.00000  -0.09445   0.00000   0.00000  -0.16603   0.00000   0.00000  -0.00000   0.00000   0.00000 ...
   0.00000   0.00000   0.00000   0.00000  -0.09445   0.00000   0.00000  -0.16603  -0.00000   0.00000   0.00000   0.00000 ...
   0.00000  -0.00000  -0.16603   0.00000   0.00000   0.40613   0.00000   0.00000   0.00000   0.00000  -0.00000   0.00000 ...
   0.00000   0.00000   0.00000  -0.16603   0.00000   0.00000   0.40614  -0.00000   0.00000   0.00000   0.00000   0.00000 ...
   0.00000   0.00000   0.00000   0.00000  -0.16603   0.00000  -0.00000   0.40614   0.00000   0.00000   0.00000   0.00000 ...
   0.00000   0.00000   0.00000   0.00000  -0.00000   0.00000   0.00000   0.00000   0.00510   0.00000   0.00000   0.00000 ...
   0.00000   0.00000   0.00000  -0.00000   0.00000   0.00000   0.00000   0.00000   0.00000   0.00510   0.00000   0.00000 ...
   0.00000  -0.00000   0.00000   0.00000   0.00000  -0.00000   0.00000   0.00000   0.00000   0.00000   0.00510   0.00000 ...
  -0.00000   0.00000   0.00000   0.00000   0.00000   0.00000   0.00000   0.00000   0.00000   0.00000   0.00000   0.00510 ...
   ...  only 12  components have been written...
 Atom #  9
  -3.52718   0.43141   0.00000   0.00000   0.00000  -0.00000   0.00000   0.00000   0.00000   0.00000  -0.00013   0.00000 ...
   0.43141   0.00224   0.00000   0.00000   0.00000  -0.00000   0.00000   0.00000   0.00000   0.00000   0.00002   0.00000 ...
   0.00000   0.00000  -1.46986   0.00000   0.00000   0.12620   0.00000   0.00000   0.00000   0.00000  -0.00000   0.00000 ...
   0.00000   0.00000   0.00000  -1.47079   0.00000   0.00000   0.12636   0.00000   0.00000   0.00000   0.00000   0.00000 ...
   0.00000   0.00000   0.00000   0.00000  -1.47079   0.00000   0.00000   0.12636   0.00000   0.00000   0.00000   0.00000 ...
  -0.00000  -0.00000   0.12620   0.00000   0.00000   0.01293   0.00000   0.00000   0.00000   0.00000   0.00000   0.00000 ...
   0.00000   0.00000   0.00000   0.12636   0.00000   0.00000   0.01290   0.00000   0.00000  -0.00000   0.00000   0.00000 ...
   0.00000   0.00000   0.00000   0.00000   0.12636   0.00000   0.00000   0.01290  -0.00000   0.00000   0.00000   0.00000 ...
   0.00000   0.00000   0.00000   0.00000   0.00000   0.00000   0.00000  -0.00000  -0.39671   0.00000   0.00000   0.00000 ...
   0.00000   0.00000   0.00000   0.00000   0.00000   0.00000  -0.00000   0.00000   0.00000  -0.39671   0.00000   0.00000 ...
  -0.00013   0.00002  -0.00000   0.00000   0.00000   0.00000   0.00000   0.00000   0.00000   0.00000  -0.39614   0.00000 ...
   0.00000   0.00000   0.00000   0.00000   0.00000   0.00000   0.00000   0.00000   0.00000   0.00000   0.00000  -0.39689 ...
   ...  only 12  components have been written...


 Augmentation waves occupancies Rhoij:
 Atom #  1
   1.99682  -0.01678  -0.00000   0.00000   0.00000  -0.00000   0.00000   0.00000   0.00000   0.00000   0.00082   0.00000 ...
  -0.01678   0.12961  -0.00001   0.00000   0.00000   0.00000   0.00000   0.00000   0.00000   0.00000  -0.00745  -0.00000 ...
  -0.00000  -0.00001   2.00913   0.00000   0.00000  -0.00527   0.00000   0.00000   0.00000   0.00000   0.00000   0.00075 ...
   0.00000   0.00000   0.00000   2.00761   0.00000   0.00000  -0.00498  -0.00000   0.00045  -0.00001   0.00000   0.00000 ...
   0.00000   0.00000   0.00000   0.00000   2.00761   0.00000  -0.00000  -0.00498  -0.00001   0.00045   0.00000   0.00000 ...
  -0.00000   0.00000  -0.00527   0.00000   0.00000   0.00010   0.00000   0.00000   0.00000   0.00000  -0.00000  -0.00004 ...
   0.00000   0.00000   0.00000  -0.00498  -0.00000   0.00000   0.00008  -0.00000  -0.00002   0.00000   0.00000   0.00000 ...
   0.00000   0.00000   0.00000  -0.00000  -0.00498   0.00000  -0.00000   0.00008   0.00000  -0.00002   0.00000   0.00000 ...
   0.00000   0.00000   0.00000   0.00045  -0.00001   0.00000  -0.00002   0.00000   0.04816  -0.00000   0.00000   0.00000 ...
   0.00000   0.00000   0.00000  -0.00001   0.00045   0.00000   0.00000  -0.00002  -0.00000   0.04816   0.00000   0.00000 ...
   0.00082  -0.00745   0.00000   0.00000   0.00000  -0.00000   0.00000   0.00000   0.00000   0.00000   0.02885  -0.00000 ...
   0.00000  -0.00000   0.00075   0.00000   0.00000  -0.00004   0.00000   0.00000   0.00000   0.00000  -0.00000   0.02016 ...
   ...  only 12  components have been written...
 Atom #  9
   1.99792  -0.02079  -0.00000   0.00000   0.00000  -0.00000   0.00000   0.00000   0.00000   0.00000  -0.00106   0.00000 ...
  -0.02079   1.01413  -0.00000   0.00000   0.00000   0.00001   0.00000   0.00000   0.00000   0.00000  -0.03342   0.00000 ...
  -0.00000  -0.00000   1.99239   0.00000   0.00000  -0.06551   0.00000   0.00000   0.00000   0.00000   0.00000   0.00000 ...
   0.00000   0.00000   0.00000   1.99267   0.00000   0.00000  -0.06090   0.00000   0.00000  -0.00000   0.00000   0.00000 ...
   0.00000   0.00000   0.00000   0.00000   1.99267   0.00000   0.00000  -0.06090  -0.00000   0.00000   0.00000   0.00000 ...
  -0.00000   0.00001  -0.06551   0.00000   0.00000   1.43540   0.00000   0.00000   0.00000   0.00000  -0.00000   0.00000 ...
   0.00000   0.00000   0.00000  -0.06090   0.00000   0.00000   1.17600   0.00000   0.00000   0.00001   0.00000   0.00000 ...
   0.00000   0.00000   0.00000   0.00000  -0.06090   0.00000   0.00000   1.17600   0.00001   0.00000   0.00000   0.00000 ...
   0.00000   0.00000   0.00000   0.00000  -0.00000   0.00000   0.00000   0.00001   0.49190   0.00000   0.00000   0.00000 ...
   0.00000   0.00000   0.00000  -0.00000   0.00000   0.00000   0.00001   0.00000   0.00000   0.49190   0.00000   0.00000 ...
  -0.00106  -0.03342   0.00000   0.00000   0.00000  -0.00000   0.00000   0.00000   0.00000   0.00000   1.38953   0.00000 ...
   0.00000   0.00000   0.00000   0.00000   0.00000   0.00000   0.00000   0.00000   0.00000   0.00000   0.00000   0.43126 ...
   ...  only 12  components have been written...



---OUTPUT-----------------------------------------------------------------------

 Cartesian coordinates (xcart) [bohr]
  5.58417283795542E+00  5.38790830116163E+00  5.58417283795542E+00
  1.67525185138663E+01  1.61632532765486E+01  1.67525185138663E+01
  1.11683456758592E+01  1.66841774998985E+01  1.11683456758592E+01
  1.11683456758621E+01  1.07753178631105E+01  5.38677402549887E+00
  1.11683456759596E+01  1.07753178631105E+01  1.69499173263228E+01
  1.11683456759625E+01  4.86631216134916E+00  1.11683456759625E+01
  1.69499173263228E+01  1.07753178631105E+01  1.11683456759596E+01
  5.38677402549887E+00  1.07753178631105E+01  1.11683456758621E+01
  8.20323539537073E-16 -9.39260113260313E-05  8.20323539537073E-16
 Reduced coordinates (xred)
  2.50010942270000E-01  2.49989057730000E-01  2.50010942270000E-01
  7.50010942270000E-01  7.49989057730000E-01  7.50010942270000E-01
  7.74182986160000E-01  2.25817013840000E-01  7.74182986160000E-01
  2.41161317920000E-01  2.41163834060000E-01  7.58836165940000E-01
  7.58836165940000E-01  7.58838682080000E-01  2.41161317920000E-01
  2.25807719960000E-01  7.74192280040000E-01  2.25807719960000E-01
  2.41161317920000E-01  7.58838682080000E-01  7.58836165940000E-01
  7.58836165940000E-01  2.41163834060000E-01  2.41161317920000E-01
 -4.35837606780000E-06  4.35837606780000E-06 -4.35837606780000E-06
 Cartesian forces (fcart) [Ha/bohr]; max,rms= 5.66163E-03 2.29101E-03 (free atoms)
  1.58462823056547E-23 -1.49798145065337E-06  1.18616891648996E-19
 -2.99591856786138E-23 -1.49798145065337E-06  1.18662697116981E-19
  1.32683013660386E-19 -5.65861862809558E-03 -1.40502757290835E-20
 -3.71241135972489E-14 -4.66115049737898E-08  4.40571263202956E-03
  3.71241912498286E-14 -4.66115819300257E-08 -4.40571263202956E-03
 -8.62486615054924E-20  5.66162899875794E-03  2.04881399436794E-19
 -4.40571263202956E-03 -4.66115819295007E-08  3.71239724478108E-14
  4.40571263202956E-03 -4.66115049735868E-08 -3.71240217492088E-14
  3.91761604061888E-23  1.72038412754456E-07  1.18593561770896E-19
 Reduced forces (fred)
  1.61412668975194E-05 -1.32493142570769E-18  1.61412668975207E-05
  1.61412668975194E-05 -1.32493142570769E-18  1.61412668975207E-05
  6.09735678018809E-02 -1.32493142570769E-18  6.09735678018809E-02
 -4.92040193677726E-02 -4.92045216232331E-02  5.02255460529485E-07
  4.92050238786937E-02  4.92045216232331E-02  5.02255460528741E-07
 -6.10060055842716E-02 -1.32493142570769E-18 -6.10060055842716E-02
  5.02255460525528E-07  4.92045216232331E-02  4.92050238786936E-02
  5.02255460526272E-07 -4.92045216232331E-02 -4.92040193677726E-02
 -1.85377324644861E-06 -1.32493142570769E-18 -1.85377324644728E-06
 Scale of Primitive Cell (acell) [bohr]
  1.55190207318300E+01  1.57944259242000E+01  1.55190207318300E+01
 Real space primitive translations (rprimd) [bohr]
  0.00000000000000E+00  1.07753449753870E+01  1.11683456758167E+01
  1.11683456760050E+01  0.00000000000000E+00  1.11683456760050E+01
  1.11683456758167E+01  1.07753449753870E+01  0.00000000000000E+00
 Unitary Cell Volume (ucvol) [Bohr^3]=  2.68805947659660E+03
 Angles (23,13,12)= [degrees]
  5.94112000689744E+01  6.11775998620512E+01  5.94112000689744E+01
 Lengths [Bohr]
  1.55190207317708E+01  1.57944259242771E+01  1.55190207317708E+01
 Stress tensor in cartesian coordinates (strten) [Ha/bohr^3]
 -2.32279730377552E-05  5.10641308210957E-14 -9.85350567443205E-14
  5.10641308210957E-14 -2.61102528209623E-05  5.10639109186750E-14
 -9.85350567443205E-14  5.10639109186750E-14 -2.32279730377561E-05
 Total energy (etotal) [Ha]= -1.65266331120218E+02

--- Iteration: (   2/1000) Internal Cycle: (1/1)
--------------------------------------------------------------------------------

---SELF-CONSISTENT-FIELD CONVERGENCE--------------------------------------------

--- !BeginCycle
iteration_state: {dtset: 1, itime: 2, icycle: 1, }
solver: {iscf: 17, nstep: 2500, nline: 4, wfoptalg: 10, }
tolerances: {toldff: 1.00E-08, }
...

     iter   Etot(hartree)      deltaE(h)  residm     nres2    diffor    maxfor
 ETOT  1  -165.26662862482    -1.653E+02 6.005E-03 2.891E-02 1.356E-02 1.922E-02
 ETOT  2  -165.26647809857     1.505E-04 1.978E-05 2.982E-03 1.413E-02 5.094E-03
 ETOT  3  -165.26646609995     1.200E-05 6.491E-04 2.564E-04 1.335E-03 6.428E-03
 ETOT  4  -165.26646521360     8.863E-07 4.618E-06 5.911E-05 1.276E-03 5.151E-03
 ETOT  5  -165.26646533898    -1.254E-07 2.062E-06 2.318E-05 4.152E-07 5.151E-03
 ETOT  6  -165.26646539885    -5.987E-08 1.565E-06 3.031E-06 1.416E-04 5.009E-03
 ETOT  7  -165.26646541398    -1.513E-08 1.162E-06 1.525E-06 1.514E-05 5.008E-03
 ETOT  8  -165.26646543572    -2.174E-08 1.027E-06 1.600E-07 3.286E-05 4.978E-03
 ETOT  9  -165.26646543596    -2.389E-10 7.643E-07 7.812E-08 2.246E-06 4.979E-03
 ETOT 10  -165.26646543549     4.673E-10 6.745E-07 2.577E-08 4.021E-06 4.975E-03
 ETOT 11  -165.26646543538     1.099E-10 5.028E-07 7.018E-09 1.048E-06 4.976E-03
 ETOT 12  -165.26646543445     9.298E-10 4.439E-07 2.015E-09 6.381E-07 4.976E-03
 ETOT 13  -165.26646543427     1.845E-10 3.656E-07 6.733E-10 2.804E-07 4.976E-03
 ETOT 14  -165.26646543404     2.237E-10 3.118E-07 1.658E-11 2.247E-07 4.976E-03
 ETOT 15  -165.26646543398     6.281E-11 2.810E-07 2.137E-11 1.227E-07 4.976E-03
 ETOT 16  -165.26646543395     3.470E-11 2.397E-07 3.475E-12 4.452E-08 4.976E-03
 ETOT 17  -165.26646543390     4.920E-11 2.160E-07 1.368E-12 2.023E-08 4.976E-03
 ETOT 18  -165.26646543389     1.012E-11 1.843E-07 1.260E-12 3.100E-09 4.976E-03
 ETOT 19  -165.26646543385     3.496E-11 1.661E-07 2.811E-13 9.727E-09 4.976E-03

 At SCF step   19, forces are converged : 
  for the second time, max diff in force=  9.727E-09 < toldff=  1.000E-08

 Cartesian components of stress tensor (hartree/bohr^3)
  sigma(1 1)= -2.16630073E-05  sigma(3 2)=  5.10763088E-14
  sigma(2 2)= -2.38528442E-05  sigma(3 1)= -9.85658278E-14
  sigma(3 3)= -2.16630073E-05  sigma(2 1)=  5.10761404E-14


--- !ResultsGS
iteration_state: {dtset: 1, itime: 2, icycle: 1, }
comment   : Summary of ground state results
lattice_vectors:
- [  0.0000000,  10.7759661,  11.1680238, ]
- [ 11.1680238,   0.0000000,  11.1680238, ]
- [ 11.1680238,  10.7759661,   0.0000000, ]
lattice_lengths: [  15.51922,   15.79397,   15.51922, ]
lattice_angles: [ 59.413,  61.175,  59.413, ] # degrees, (23, 13, 12)
lattice_volume:   2.6880595E+03
convergence: {deltae:  3.496E-11, res2:  2.811E-13, residm:  1.661E-07, diffor:  9.727E-09, }
etotal    :  -1.65266465E+02
entropy   :   0.00000000E+00
fermie    :  -1.16094101E-01
cartesian_stress_tensor: # hartree/bohr^3
- [ -2.16630073E-05,   5.10761404E-14,  -9.85658278E-14, ]
- [  5.10761404E-14,  -2.38528442E-05,   5.10763088E-14, ]
- [ -9.85658278E-14,   5.10763088E-14,  -2.16630073E-05, ]
pressure_GPa:   6.5882E-01
xred      :
- [  2.5001E-01,   2.4999E-01,   2.5001E-01, Cs]
- [  7.5001E-01,   7.4999E-01,   7.5001E-01, Cs]
- [  7.7392E-01,   2.2608E-01,   7.7392E-01, Br]
- [  2.4136E-01,   2.4136E-01,   7.5864E-01,  I]
- [  7.5864E-01,   7.5864E-01,   2.4136E-01,  I]
- [  2.2607E-01,   7.7393E-01,   2.2607E-01, Br]
- [  2.4136E-01,   7.5864E-01,   7.5864E-01,  I]
- [  7.5864E-01,   2.4136E-01,   2.4136E-01,  I]
- [ -4.3504E-06,   4.3504E-06,  -4.3504E-06, Hf]
cartesian_forces: # hartree/bohr
- [ -4.33886768E-23,  -1.50358740E-06,   1.19052006E-21, ]
- [ -4.33886768E-23,  -1.50358740E-06,   1.19052006E-21, ]
- [ -8.59161170E-20,  -4.97330965E-03,   8.70632484E-20, ]
- [ -3.34266712E-14,  -3.80783050E-08,   3.96671217E-03, ]
- [  3.34264382E-14,  -3.80783743E-08,  -3.96671217E-03, ]
- [ -9.03465093E-20,   4.97611242E-03,   9.14936407E-20, ]
- [ -3.96671217E-03,  -3.80783743E-08,   3.34264732E-14, ]
- [  3.96671217E-03,  -3.80783050E-08,  -3.34265716E-14, ]
- [ -9.61816730E-24,   3.56715431E-07,   1.15674955E-21, ]
force_length_stats: {min:   3.56715431E-07, max:   4.97611242E-03, mean:   2.86884829E-03, }
...

 Integrated electronic density in atomic spheres:
 ------------------------------------------------
 Atom  Sphere_radius  Integrated_density
    1        2.20660          5.37375045
    2        2.20660          5.37375045
    3        2.20000          4.93339952
    4        2.30022          4.02072508
    5        2.30022          4.02072508
    6        2.20000          4.93336440
    7        2.30022          4.02072508
    8        2.30022          4.02072508
    9        2.41000          9.29488730

 PAW TEST:
 ==== Compensation charge inside spheres ============
 The following values must be close to each other ...
 Compensation charge over spherical meshes =     -0.478685819488439
 Compensation charge over fine fft grid    =     -0.478696871825632

 ==== Results concerning PAW augmentation regions ====

 Total pseudopotential strength Dij (hartree):
 Atom #  1
   0.44731  -0.14808  -0.00000   0.00000   0.00000   0.00000   0.00000   0.00000   0.00000   0.00000   0.00000  -0.00000 ...
  -0.14808   0.04468   0.00000   0.00000   0.00000  -0.00000   0.00000   0.00000   0.00000   0.00000  -0.00000   0.00000 ...
  -0.00000   0.00000  -0.09445   0.00000   0.00000  -0.16603   0.00000   0.00000   0.00000   0.00000   0.00000   0.00000 ...
   0.00000   0.00000   0.00000  -0.09445   0.00000   0.00000  -0.16603   0.00000   0.00000  -0.00000   0.00000   0.00000 ...
   0.00000   0.00000   0.00000   0.00000  -0.09445   0.00000   0.00000  -0.16603  -0.00000   0.00000   0.00000   0.00000 ...
   0.00000  -0.00000  -0.16603   0.00000   0.00000   0.40613   0.00000   0.00000   0.00000   0.00000  -0.00000   0.00000 ...
   0.00000   0.00000   0.00000  -0.16603   0.00000   0.00000   0.40614  -0.00000   0.00000   0.00000   0.00000   0.00000 ...
   0.00000   0.00000   0.00000   0.00000  -0.16603   0.00000  -0.00000   0.40614   0.00000   0.00000   0.00000   0.00000 ...
   0.00000   0.00000   0.00000   0.00000  -0.00000   0.00000   0.00000   0.00000   0.00510   0.00000   0.00000   0.00000 ...
   0.00000   0.00000   0.00000  -0.00000   0.00000   0.00000   0.00000   0.00000   0.00000   0.00510   0.00000   0.00000 ...
   0.00000  -0.00000   0.00000   0.00000   0.00000  -0.00000   0.00000   0.00000   0.00000   0.00000   0.00510   0.00000 ...
  -0.00000   0.00000   0.00000   0.00000   0.00000   0.00000   0.00000   0.00000   0.00000   0.00000   0.00000   0.00510 ...
   ...  only 12  components have been written...
 Atom #  9
  -3.52740   0.43148   0.00000   0.00000   0.00000  -0.00000   0.00000   0.00000   0.00000   0.00000  -0.00013   0.00000 ...
   0.43148   0.00222   0.00000   0.00000   0.00000  -0.00000   0.00000   0.00000   0.00000   0.00000   0.00002   0.00000 ...
   0.00000   0.00000  -1.47019   0.00000   0.00000   0.12627   0.00000   0.00000   0.00000   0.00000  -0.00000   0.00000 ...
   0.00000   0.00000   0.00000  -1.47111   0.00000   0.00000   0.12643   0.00000   0.00000   0.00000   0.00000   0.00000 ...
   0.00000   0.00000   0.00000   0.00000  -1.47111   0.00000   0.00000   0.12643   0.00000   0.00000   0.00000   0.00000 ...
  -0.00000  -0.00000   0.12627   0.00000   0.00000   0.01292   0.00000   0.00000   0.00000   0.00000   0.00000   0.00000 ...
   0.00000   0.00000   0.00000   0.12643   0.00000   0.00000   0.01289   0.00000   0.00000  -0.00000   0.00000   0.00000 ...
   0.00000   0.00000   0.00000   0.00000   0.12643   0.00000   0.00000   0.01289  -0.00000   0.00000   0.00000   0.00000 ...
   0.00000   0.00000   0.00000   0.00000   0.00000   0.00000   0.00000  -0.00000  -0.39678   0.00000   0.00000   0.00000 ...
   0.00000   0.00000   0.00000   0.00000   0.00000   0.00000  -0.00000   0.00000   0.00000  -0.39678   0.00000   0.00000 ...
  -0.00013   0.00002  -0.00000   0.00000   0.00000   0.00000   0.00000   0.00000   0.00000   0.00000  -0.39621   0.00000 ...
   0.00000   0.00000   0.00000   0.00000   0.00000   0.00000   0.00000   0.00000   0.00000   0.00000   0.00000  -0.39695 ...
   ...  only 12  components have been written...


 Augmentation waves occupancies Rhoij:
 Atom #  1
   1.99682  -0.01678  -0.00000   0.00000   0.00000  -0.00000   0.00000   0.00000   0.00000   0.00000   0.00081   0.00000 ...
  -0.01678   0.12962  -0.00001   0.00000   0.00000   0.00000   0.00000   0.00000   0.00000   0.00000  -0.00744  -0.00000 ...
  -0.00000  -0.00001   2.00912   0.00000   0.00000  -0.00527   0.00000   0.00000   0.00000   0.00000   0.00000   0.00073 ...
   0.00000   0.00000   0.00000   2.00762   0.00000   0.00000  -0.00498  -0.00000   0.00043  -0.00001   0.00000   0.00000 ...
   0.00000   0.00000   0.00000   0.00000   2.00762   0.00000  -0.00000  -0.00498  -0.00001   0.00043   0.00000   0.00000 ...
  -0.00000   0.00000  -0.00527   0.00000   0.00000   0.00010   0.00000   0.00000   0.00000   0.00000  -0.00000  -0.00004 ...
   0.00000   0.00000   0.00000  -0.00498  -0.00000   0.00000   0.00008  -0.00000  -0.00002   0.00000   0.00000   0.00000 ...
   0.00000   0.00000   0.00000  -0.00000  -0.00498   0.00000  -0.00000   0.00008   0.00000  -0.00002   0.00000   0.00000 ...
   0.00000   0.00000   0.00000   0.00043  -0.00001   0.00000  -0.00002   0.00000   0.04815  -0.00000   0.00000   0.00000 ...
   0.00000   0.00000   0.00000  -0.00001   0.00043   0.00000   0.00000  -0.00002  -0.00000   0.04815   0.00000   0.00000 ...
   0.00081  -0.00744   0.00000   0.00000   0.00000  -0.00000   0.00000   0.00000   0.00000   0.00000   0.02884  -0.00000 ...
   0.00000  -0.00000   0.00073   0.00000   0.00000  -0.00004   0.00000   0.00000   0.00000   0.00000  -0.00000   0.02021 ...
   ...  only 12  components have been written...
 Atom #  9
   1.99791  -0.02088  -0.00000   0.00000   0.00000  -0.00000   0.00000   0.00000   0.00000   0.00000  -0.00102   0.00000 ...
  -0.02088   1.01266  -0.00000   0.00000   0.00000   0.00001   0.00000   0.00000   0.00000   0.00000  -0.03270   0.00000 ...
  -0.00000  -0.00000   1.99231   0.00000   0.00000  -0.06611   0.00000   0.00000   0.00000   0.00000   0.00000   0.00000 ...
   0.00000   0.00000   0.00000   1.99261   0.00000   0.00000  -0.06144   0.00000   0.00000  -0.00000   0.00000   0.00000 ...
   0.00000   0.00000   0.00000   0.00000   1.99261   0.00000   0.00000  -0.06144  -0.00000   0.00000   0.00000   0.00000 ...
  -0.00000   0.00001  -0.06611   0.00000   0.00000   1.42679   0.00000   0.00000   0.00000   0.00000  -0.00000   0.00000 ...
   0.00000   0.00000   0.00000  -0.06144   0.00000   0.00000   1.17172   0.00000   0.00000   0.00001   0.00000   0.00000 ...
   0.00000   0.00000   0.00000   0.00000  -0.06144   0.00000   0.00000   1.17172   0.00001   0.00000   0.00000   0.00000 ...
   0.00000   0.00000   0.00000   0.00000  -0.00000   0.00000   0.00000   0.00001   0.48896   0.00000   0.00000   0.00000 ...
   0.00000   0.00000   0.00000  -0.00000   0.00000   0.00000   0.00001   0.00000   0.00000   0.48896   0.00000   0.00000 ...
  -0.00102  -0.03270   0.00000   0.00000   0.00000  -0.00000   0.00000   0.00000   0.00000   0.00000   1.38328   0.00000 ...
   0.00000   0.00000   0.00000   0.00000   0.00000   0.00000   0.00000   0.00000   0.00000   0.00000   0.00000   0.42947 ...
   ...  only 12  components have been written...



---OUTPUT-----------------------------------------------------------------------

 Cartesian coordinates (xcart) [bohr]
  5.58401189110950E+00  5.38821739675342E+00  5.58401189110950E+00
  1.67520356733285E+01  1.61641835322720E+01  1.67520356733285E+01
  1.11680237821674E+01  1.66794803382824E+01  1.11680237821674E+01
  1.11680237821703E+01  1.07759389750649E+01  5.39102435372576E+00
  1.11680237822677E+01  1.07759389750649E+01  1.69450232107123E+01
  1.11680237822706E+01  4.87225464222669E+00  1.11680237822706E+01
  1.69450232107122E+01  1.07759389750649E+01  1.11680237822677E+01
  5.39102435372576E+00  1.07759389750649E+01  1.11680237821703E+01
  8.18836093601207E-16 -9.37593774947809E-05  8.18836093601207E-16
 Reduced coordinates (xred)
  2.50010872760325E-01  2.49989127239675E-01  2.50010872760325E-01
  7.50010872760325E-01  7.49989127239675E-01  7.50010872760325E-01
  7.73920413655777E-01  2.26079586344222E-01  7.73920413655778E-01
  2.41358556815012E-01  2.41361077280771E-01  7.58638922719229E-01
  7.58638922719229E-01  7.58641443184988E-01  2.41358556815012E-01
  2.26070432152124E-01  7.73929567847876E-01  2.26070432152124E-01
  2.41358556815012E-01  7.58641443184988E-01  7.58638922719229E-01
  7.58638922719229E-01  2.41361077280771E-01  2.41358556815012E-01
 -4.35039310237535E-06  4.35039310237535E-06 -4.35039310237535E-06
 Cartesian forces (fcart) [Ha/bohr]; max,rms= 4.97611E-03 2.04065E-03 (free atoms)
 -4.33886767698223E-23 -1.50358740459954E-06  1.19052006083870E-21
 -4.33886767698223E-23 -1.50358740459954E-06  1.19052006083870E-21
 -8.59161169851947E-20 -4.97330964784092E-03  8.70632483692636E-20
 -3.34266711921112E-14 -3.80783049761237E-08  3.96671217071439E-03
  3.34264382002940E-14 -3.80783742624076E-08 -3.96671217071439E-03
 -9.03465093232266E-20  4.97611242057774E-03  9.14936407072955E-20
 -3.96671217071439E-03 -3.80783742619078E-08  3.34264731985424E-14
  3.96671217071439E-03 -3.80783049765898E-08 -3.34265715785783E-14
 -9.61816730257713E-24  3.56715430857345E-07  1.15674955137146E-21
 Reduced forces (fred)
  1.62026069537569E-05 -1.28111905787190E-20  1.62026069537569E-05
  1.62026069537569E-05 -1.28111905787190E-20  1.62026069537569E-05
  5.35922163465817E-02 -1.28111905787191E-20  5.35922163465817E-02
 -4.42999255288577E-02 -4.43003358597559E-02  4.10330898230517E-07
  4.43007461906541E-02  4.43003358597559E-02  4.10330898240050E-07
 -5.36224189306792E-02 -1.28111905787190E-20 -5.36224189306792E-02
  4.10330898234274E-07  4.43003358597559E-02  4.43007461906541E-02
  4.10330898234427E-07 -4.43003358597559E-02 -4.42999255288576E-02
 -3.84395340293569E-06 -1.28111905787190E-20 -3.84395340293568E-06
 Scale of Primitive Cell (acell) [bohr]
  1.55192203847987E+01  1.57939706978525E+01  1.55192203847987E+01
 Real space primitive translations (rprimd) [bohr]
  0.00000000000000E+00  1.07759661355186E+01  1.11680237821249E+01
  1.11680237823131E+01  0.00000000000000E+00  1.11680237823131E+01
  1.11680237821249E+01  1.07759661355186E+01  0.00000000000000E+00
 Unitary Cell Volume (ucvol) [Bohr^3]=  2.68805947659660E+03
 Angles (23,13,12)= [degrees]
  5.94126119596456E+01  6.11747760807089E+01  5.94126119596456E+01
 Lengths [Bohr]
  1.55192203847987E+01  1.57939706978525E+01  1.55192203847987E+01
 Stress tensor in cartesian coordinates (strten) [Ha/bohr^3]
 -2.16630073320255E-05  5.10761403731091E-14 -9.85658277775818E-14
  5.10761403731091E-14 -2.38528441951491E-05  5.10763087550503E-14
 -9.85658277775818E-14  5.10763087550503E-14 -2.16630073320255E-05
 Total energy (etotal) [Ha]= -1.65266465433852E+02

 Difference of energy with previous step (new-old):
           Absolute (Ha)=-1.34314E-04
           Relative     =-8.12710E-07

--- Iteration: (   3/1000) Internal Cycle: (1/1)
--------------------------------------------------------------------------------

---SELF-CONSISTENT-FIELD CONVERGENCE--------------------------------------------

--- !BeginCycle
iteration_state: {dtset: 1, itime: 3, icycle: 1, }
solver: {iscf: 17, nstep: 2500, nline: 4, wfoptalg: 10, }
tolerances: {toldff: 1.00E-08, }
...

     iter   Etot(hartree)      deltaE(h)  residm     nres2    diffor    maxfor
 ETOT  1  -165.27764873852    -1.653E+02 2.128E-02 1.855E+00 1.094E-01 1.144E-01
 ETOT  2  -165.26776374936     9.885E-03 1.195E-04 1.825E-01 1.132E-01 3.158E-03
 ETOT  3  -165.26704848191     7.153E-04 3.251E-05 1.709E-02 1.032E-02 1.155E-02
 ETOT  4  -165.26698615453     6.233E-05 3.257E-05 3.888E-03 1.046E-02 1.765E-03
 ETOT  5  -165.26699154064    -5.386E-06 6.249E-06 1.447E-03 6.977E-06 1.772E-03
 ETOT  6  -165.26699347676    -1.936E-06 9.747E-06 1.724E-04 1.042E-03 8.644E-04
 ETOT  7  -165.26699408683    -6.101E-07 2.268E-06 8.400E-05 1.443E-04 7.201E-04
 ETOT  8  -165.26699483670    -7.499E-07 3.649E-06 7.967E-06 2.392E-04 4.809E-04
 ETOT  9  -165.26699486092    -2.422E-08 1.061E-06 3.750E-06 1.245E-05 4.934E-04
 ETOT 10  -165.26699487787    -1.695E-08 1.797E-06 1.296E-06 3.014E-05 4.899E-04
 ETOT 11  -165.26699487852    -6.425E-10 5.217E-07 3.792E-07 9.321E-06 4.831E-04
 ETOT 12  -165.26699487372     4.801E-09 9.202E-07 1.436E-07 5.784E-06 4.774E-04
 ETOT 13  -165.26699487230     1.415E-09 2.665E-07 4.292E-08 1.993E-06 4.793E-04
 ETOT 14  -165.26699487110     1.202E-09 4.805E-07 9.531E-10 1.801E-06 4.792E-04
 ETOT 15  -165.26699487070     4.009E-10 1.387E-07 8.960E-10 7.071E-07 4.785E-04
 ETOT 16  -165.26699487050     1.960E-10 2.530E-07 1.713E-10 3.106E-07 4.786E-04
 ETOT 17  -165.26699487019     3.087E-10 7.293E-08 3.899E-11 1.095E-07 4.785E-04
 ETOT 18  -165.26699487012     6.958E-11 1.339E-07 5.022E-11 2.366E-08 4.785E-04
 ETOT 19  -165.26699486995     1.716E-10 4.040E-08 7.331E-12 4.253E-08 4.785E-04
 ETOT 20  -165.26699486985     1.018E-10 7.118E-08 1.068E-11 1.830E-08 4.785E-04
 ETOT 21  -165.26699486977     7.992E-11 2.565E-08 1.121E-12 2.443E-08 4.785E-04
 ETOT 22  -165.26699486965     1.164E-10 3.793E-08 6.483E-13 1.310E-08 4.785E-04
 ETOT 23  -165.26699486964     1.819E-11 1.628E-08 1.306E-14 2.399E-09 4.785E-04
 ETOT 24  -165.26699486963     6.963E-12 2.026E-08 2.115E-14 1.063E-09 4.785E-04

 At SCF step   24, forces are converged : 
  for the second time, max diff in force=  1.063E-09 < toldff=  1.000E-08

 Cartesian components of stress tensor (hartree/bohr^3)
  sigma(1 1)= -9.22410399E-06  sigma(3 2)=  5.11692718E-14
  sigma(2 2)= -6.55145018E-06  sigma(3 1)= -9.88060117E-14
  sigma(3 3)= -9.22410399E-06  sigma(2 1)=  5.11706169E-14


--- !ResultsGS
iteration_state: {dtset: 1, itime: 3, icycle: 1, }
comment   : Summary of ground state results
lattice_vectors:
- [  0.0000000,  10.7802755,  11.1657914, ]
- [ 11.1657914,   0.0000000,  11.1657914, ]
- [ 11.1657914,  10.7802755,   0.0000000, ]
lattice_lengths: [  15.52061,   15.79081,   15.52061, ]
lattice_angles: [ 59.422,  61.155,  59.422, ] # degrees, (23, 13, 12)
lattice_volume:   2.6880595E+03
convergence: {deltae:  6.963E-12, res2:  2.115E-14, residm:  2.026E-08, diffor:  1.063E-09, }
etotal    :  -1.65266995E+02
entropy   :   0.00000000E+00
fermie    :  -1.16272980E-01
cartesian_stress_tensor: # hartree/bohr^3
- [ -9.22410399E-06,   5.11706169E-14,  -9.88060117E-14, ]
- [  5.11706169E-14,  -6.55145018E-06,   5.11692718E-14, ]
- [ -9.88060117E-14,   5.11692718E-14,  -9.22410399E-06, ]
pressure_GPa:   2.4517E-01
xred      :
- [  2.5001E-01,   2.4999E-01,   2.5001E-01, Cs]
- [  7.5001E-01,   7.4999E-01,   7.5001E-01, Cs]
- [  7.7181E-01,   2.2819E-01,   7.7181E-01, Br]
- [  2.4298E-01,   2.4298E-01,   7.5702E-01,  I]
- [  7.5702E-01,   7.5702E-01,   2.4298E-01,  I]
- [  2.2818E-01,   7.7182E-01,   2.2818E-01, Br]
- [  2.4298E-01,   7.5702E-01,   7.5702E-01,  I]
- [  7.5702E-01,   2.4298E-01,   2.4298E-01,  I]
- [ -4.1994E-06,   4.1994E-06,  -4.1994E-06, Hf]
cartesian_forces: # hartree/bohr
- [ -2.04005270E-23,  -1.46586579E-06,  -1.32071415E-20, ]
- [  3.96384241E-23,  -1.46586579E-06,  -1.32671805E-20, ]
- [  7.84661745E-21,   2.53617693E-04,  -2.10741595E-20, ]
- [ -4.03372100E-15,   5.39522997E-08,   4.78536449E-04, ]
- [  4.03369188E-15,   5.39522913E-08,  -4.78536449E-04, ]
- [ -2.17255902E-20,  -2.52282272E-04,   8.49804811E-21, ]
- [ -4.78536449E-04,   5.39522913E-08,   4.03370709E-15, ]
- [  4.78536449E-04,   5.39522997E-08,  -4.03369043E-15, ]
- [  1.51130250E-24,   1.38050098E-06,  -1.32290534E-20, ]
force_length_stats: {min:   1.38050098E-06, max:   4.78536452E-04, mean:   2.69373112E-04, }
...

 Integrated electronic density in atomic spheres:
 ------------------------------------------------
 Atom  Sphere_radius  Integrated_density
    1        2.20660          5.37379728
    2        2.20660          5.37379728
    3        2.20000          4.93035054
    4        2.30022          4.01511868
    5        2.30022          4.01511868
    6        2.20000          4.93032045
    7        2.30022          4.01511868
    8        2.30022          4.01511868
    9        2.41000          9.26614150

 PAW TEST:
 ==== Compensation charge inside spheres ============
 The following values must be close to each other ...
 Compensation charge over spherical meshes =     -0.480850158784999
 Compensation charge over fine fft grid    =     -0.480857684251612

 ==== Results concerning PAW augmentation regions ====

 Total pseudopotential strength Dij (hartree):
 Atom #  1
   0.44721  -0.14805  -0.00000   0.00000   0.00000   0.00000   0.00000   0.00000   0.00000   0.00000   0.00000  -0.00000 ...
  -0.14805   0.04466   0.00000   0.00000   0.00000  -0.00000   0.00000   0.00000   0.00000   0.00000  -0.00000   0.00000 ...
  -0.00000   0.00000  -0.09443   0.00000   0.00000  -0.16604   0.00000   0.00000   0.00000   0.00000   0.00000  -0.00000 ...
   0.00000   0.00000   0.00000  -0.09443   0.00000   0.00000  -0.16604   0.00000  -0.00000  -0.00000   0.00000   0.00000 ...
   0.00000   0.00000   0.00000   0.00000  -0.09443   0.00000   0.00000  -0.16604  -0.00000  -0.00000   0.00000   0.00000 ...
   0.00000  -0.00000  -0.16604   0.00000   0.00000   0.40610   0.00000   0.00000   0.00000   0.00000  -0.00000   0.00000 ...
   0.00000   0.00000   0.00000  -0.16604   0.00000   0.00000   0.40610  -0.00000   0.00000   0.00000   0.00000   0.00000 ...
[...]
                       8.1204571072E+00  5.1805282614E+00  5.4642252561E+00
                       2.8079934051E+00  5.1805282614E+00  5.4642252561E+00
                      -2.7482368749E-17  3.2934844340E-06 -2.7476004728E-17
           xangst10    2.7043970653E+00  2.5574317875E+00  2.7043970653E+00
                       8.1131911960E+00  7.6722866229E+00  8.1131911960E+00
                       5.4087941306E+00  7.6684972539E+00  5.4087941306E+00
                       5.4087941306E+00  5.1148579828E+00  2.7941095312E+00
                       5.4087941307E+00  5.1148579828E+00  8.0234787300E+00
                       5.4087941307E+00  2.5612200318E+00  5.4087941307E+00
                       8.0234787300E+00  5.1148579828E+00  5.4087941307E+00
                       2.7941095312E+00  5.1148579828E+00  5.4087941306E+00
                      -3.4160263959E-17  3.7914191142E-06 -3.4212377689E-17
            xcart1     5.5856832824E+00  5.3847073926E+00  5.5856832824E+00
                       1.6757049847E+01  1.6154225557E+01  1.6757049847E+01
                       1.1171366565E+01  1.6624886758E+01  1.1171366565E+01
                       1.1171366565E+01  1.0769545372E+01  5.4335589857E+00
                       1.1171366565E+01  1.0769545372E+01  1.6909174144E+01
                       1.1171366565E+01  4.9141910034E+00  1.1171366565E+01
                       1.6909174144E+01  1.0769545372E+01  1.1171366565E+01
                       5.4335589857E+00  1.0769545372E+01  1.1171366565E+01
                      -2.3460248058E-16  2.2042753113E-05 -2.3461430872E-16
            xcart2     5.5302290865E+00  5.3285644847E+00  5.5302290865E+00
                       1.6590687259E+01  1.5985572341E+01  1.6590687259E+01
                       1.1060458173E+01  1.6402402327E+01  1.1060458173E+01
                       1.1060458173E+01  1.0656991232E+01  5.4241061431E+00
                       1.1060458173E+01  1.0656991232E+01  1.6696810203E+01
                       1.1060458173E+01  4.9116245320E+00  1.1060458173E+01
                       1.6696810203E+01  1.0656991232E+01  1.1060458173E+01
                       5.4241061431E+00  1.0656991232E+01  1.1060458173E+01
                      -1.6753487832E-17  2.4432733630E-06 -1.6764613012E-17
            xcart3     5.4763928810E+00  5.2690961245E+00  5.4763928810E+00
                       1.6429178643E+01  1.5807365880E+01  1.6429178643E+01
                       1.0952785762E+01  1.6168187143E+01  1.0952785762E+01
                       1.0952785762E+01  1.0538307526E+01  5.4132714692E+00
                       1.0952785762E+01  1.0538307526E+01  1.6492300055E+01
                       1.0952785762E+01  4.9083450236E+00  1.0952785762E+01
                       1.6492300055E+01  1.0538307526E+01  1.0952785762E+01
                       5.4132714692E+00  1.0538307526E+01  1.0952785762E+01
                      -2.5919115776E-17  1.2152756058E-06 -2.5905852036E-17
            xcart4     5.4220504882E+00  5.2107676682E+00  5.4220504882E+00
                       1.6266151465E+01  1.5632259383E+01  1.6266151465E+01
                       1.0844100976E+01  1.5939010919E+01  1.0844100976E+01
                       1.0844100976E+01  1.0421496834E+01  5.4006937638E+00
                       1.0844100976E+01  1.0421496834E+01  1.6287508189E+01
                       1.0844100976E+01  4.9039709242E+00  1.0844100976E+01
                       1.6287508189E+01  1.0421496834E+01  1.0844100976E+01
                       5.4006937638E+00  1.0421496834E+01  1.0844100976E+01
                      -1.0196838658E-16  4.1856258657E-06 -1.0198101638E-16
            xcart5     5.3706543111E+00  5.1467075958E+00  5.3706543111E+00
                       1.6111962933E+01  1.5440128226E+01  1.6111962933E+01
                       1.0741308622E+01  1.5688963669E+01  1.0741308622E+01
                       1.0741308622E+01  1.0293429736E+01  5.3864911335E+00
                       1.0741308622E+01  1.0293429736E+01  1.6096126111E+01
                       1.0741308622E+01  4.8979040316E+00  1.0741308622E+01
                       1.6096126111E+01  1.0293429736E+01  1.0741308622E+01
                       5.3864911335E+00  1.0293429736E+01  1.0741308622E+01
                      -3.5090708732E-17  8.4536599357E-06 -3.5095826494E-17
            xcart6     5.3181643152E+00  5.0848088535E+00  5.3181643152E+00
                       1.5954492946E+01  1.5254396898E+01  1.5954492946E+01
                       1.0636328630E+01  1.5448778221E+01  1.0636328630E+01
                       1.0636328630E+01  1.0169593565E+01  5.3698151651E+00
                       1.0636328630E+01  1.0169593565E+01  1.5902842096E+01
                       1.0636328630E+01  4.8904045561E+00  1.0636328630E+01
                       1.5902842096E+01  1.0169593565E+01  1.0636328630E+01
                       5.3698151651E+00  1.0169593565E+01  1.0636328630E+01
                      -8.2420727902E-17  6.6518889980E-06 -8.2408903169E-17
            xcart7     5.2659496007E+00  5.0223726495E+00  5.2659496007E+00
                       1.5797848802E+01  1.5067113859E+01  1.5797848802E+01
                       1.0531899201E+01  1.5208371367E+01  1.0531899201E+01
                       1.0531899201E+01  1.0044750299E+01  5.3509816607E+00
                       1.0531899201E+01  1.0044750299E+01  1.5712816742E+01
                       1.0531899201E+01  4.8811284897E+00  1.0531899201E+01
                       1.5712816742E+01  1.0044750299E+01  1.0531899201E+01
                       5.3509816607E+00  1.0044750299E+01  1.0531899201E+01
                      -5.4660662066E-17  6.4010076317E-06 -5.4651175209E-17
            xcart8     5.2145640747E+00  4.9584015523E+00  5.2145640747E+00
                       1.5643692224E+01  1.4875183603E+01  1.5643692224E+01
                       1.0429128149E+01  1.4963909399E+01  1.0429128149E+01
                       1.0429128149E+01  9.9167872307E+00  5.3300733855E+00
                       1.0429128149E+01  9.9167872307E+00  1.5528182913E+01
                       1.0429128149E+01  4.8696683069E+00  1.0429128149E+01
                       1.5528182913E+01  9.9167872307E+00  1.0429128149E+01
                       5.3300733855E+00  9.9167872307E+00  1.0429128149E+01
                      -7.4374950804E-17  8.0868844651E-06 -7.4385993073E-17
            xcart9     5.1629446312E+00  4.8948902838E+00  5.1629446312E+00
                       1.5488833894E+01  1.4684661549E+01  1.5488833894E+01
                       1.0325889262E+01  1.4723657853E+01  1.0325889262E+01
                       1.0325889262E+01  9.7897796376E+00  5.3063385186E+00
                       1.0325889263E+01  9.7897796376E+00  1.5345440006E+01
                       1.0325889263E+01  4.8558983187E+00  1.0325889263E+01
                       1.5345440006E+01  9.7897796376E+00  1.0325889263E+01
                       5.3063385186E+00  9.7897796376E+00  1.0325889262E+01
                      -5.1934150418E-17  6.2237836033E-06 -5.1922124162E-17
            xcart10    5.1105698080E+00  4.8328456818E+00  5.1105698080E+00
                       1.5331709424E+01  1.4498520530E+01  1.5331709424E+01
                       1.0221139616E+01  1.4491359661E+01  1.0221139616E+01
                       1.0221139616E+01  9.6656807961E+00  5.2801017993E+00
                       1.0221139616E+01  9.6656807961E+00  1.5162177433E+01
                       1.0221139616E+01  4.8400044262E+00  1.0221139616E+01
                       1.5162177433E+01  9.6656807961E+00  1.0221139616E+01
                       5.2801017993E+00  9.6656807961E+00  1.0221139616E+01
                      -6.4553543510E-17  7.1647437808E-06 -6.4652024187E-17
             xred1     2.4999760019E-01  2.5000239981E-01  2.4999760019E-01
                       7.4999760019E-01  7.5000239981E-01  7.4999760019E-01
                       7.7184914423E-01  2.2815085577E-01  7.7184914423E-01
                       2.4319259316E-01  2.4319006684E-01  7.5680993316E-01
                       7.5680993316E-01  7.5680740684E-01  2.4319259316E-01
                       2.2815277937E-01  7.7184722063E-01  2.2815277937E-01
                       2.4319259316E-01  7.5680740684E-01  7.5680993316E-01
                       7.5680993316E-01  2.4319006684E-01  2.4319259316E-01
                       1.0233862266E-06 -1.0233862266E-06  1.0233862266E-06
             xred2     2.5000284116E-01  2.4999715884E-01  2.5000284116E-01
                       7.5000284116E-01  7.4999715884E-01  7.5000284116E-01
                       7.6955945552E-01  2.3044054448E-01  7.6955945552E-01
                       2.4520181734E-01  2.4520337729E-01  7.5479662271E-01
                       7.5479662271E-01  7.5479818266E-01  2.4520181734E-01
                       2.3044106743E-01  7.6955893257E-01  2.3044106743E-01
                       2.4520181734E-01  7.5479818266E-01  7.5479662271E-01
                       7.5479662271E-01  2.4520337729E-01  2.4520181734E-01
                       1.1463223993E-07 -1.1463223993E-07  1.1463223993E-07
             xred3     2.4999816130E-01  2.5000183870E-01  2.4999816130E-01
                       7.4999816130E-01  7.5000183870E-01  7.4999816130E-01
                       7.6711772985E-01  2.3288227015E-01  7.6711772985E-01
                       2.4712026889E-01  2.4711668478E-01  7.5288331522E-01
                       7.5288331522E-01  7.5287973111E-01  2.4712026889E-01
                       2.3288192166E-01  7.6711807834E-01  2.3288192166E-01
                       2.4712026889E-01  7.5287973111E-01  7.5288331522E-01
                       7.5288331522E-01  2.4711668478E-01  2.4712026889E-01
                       5.7660110907E-08 -5.7660110909E-08  5.7660110907E-08
             xred4     2.5000104643E-01  2.4999895357E-01  2.5000104643E-01
                       7.5000104643E-01  7.4999895357E-01  7.5000104643E-01
                       7.6471830305E-01  2.3528169695E-01  7.6471830305E-01
                       2.4901552938E-01  2.4901503816E-01  7.5098496184E-01
                       7.5098496184E-01  7.5098447062E-01  2.4901552938E-01
                       2.3528162083E-01  7.6471837917E-01  2.3528162083E-01
                       2.4901552938E-01  7.5098447062E-01  7.5098496184E-01
                       7.5098496184E-01  2.4901503816E-01  2.4901552938E-01
                       2.0081702218E-07 -2.0081702219E-07  2.0081702218E-07
             xred5     2.4999986791E-01  2.5000013209E-01  2.4999986791E-01
                       7.4999986791E-01  7.5000013209E-01  7.4999986791E-01
                       7.6208697927E-01  2.3791302073E-01  7.6208697927E-01
                       2.5073763472E-01  2.5073675011E-01  7.4926324989E-01
                       7.4926324989E-01  7.4926236528E-01  2.5073763472E-01
                       2.3791430505E-01  7.6208569495E-01  2.3791430505E-01
                       2.5073763472E-01  7.4926236528E-01  7.4926324989E-01
                       7.4926324989E-01  2.5073675011E-01  2.5073763472E-01
                       4.1063414386E-07 -4.1063414385E-07  4.1063414386E-07
             xred6     2.5000072920E-01  2.4999927080E-01  2.5000072920E-01
                       7.5000072920E-01  7.4999927080E-01  7.5000072920E-01
                       7.5955772022E-01  2.4044227978E-01  7.5955772022E-01
                       2.5242831083E-01  2.5242776797E-01  7.4757223203E-01
                       7.4757223203E-01  7.4757168917E-01  2.5242831083E-01
                       2.4044260863E-01  7.5955739137E-01  2.4044260863E-01
                       2.5242831083E-01  7.4757168917E-01  7.4757223203E-01
                       7.4757223203E-01  2.5242776797E-01  2.5242831083E-01
                       3.2704810504E-07 -3.2704810505E-07  3.2704810504E-07
             xred7     2.5000010178E-01  2.4999989822E-01  2.5000010178E-01
                       7.5000010178E-01  7.4999989822E-01  7.5000010178E-01
                       7.5703151777E-01  2.4296848223E-01  7.5703151777E-01
                       2.5403733405E-01  2.5403642913E-01  7.4596357087E-01
                       7.4596357087E-01  7.4596266595E-01  2.5403733405E-01
                       2.4296935022E-01  7.5703064978E-01  2.4296935022E-01
                       2.5403733405E-01  7.4596266595E-01  7.4596357087E-01
                       7.4596357087E-01  2.5403642913E-01  2.5403733405E-01
                       3.1862481562E-07 -3.1862481562E-07  3.1862481562E-07
             xred8     2.5000053077E-01  2.4999946923E-01  2.5000053077E-01
                       7.5000053077E-01  7.4999946923E-01  7.5000053077E-01
                       7.5447404828E-01  2.4552595172E-01  7.5447404828E-01
                       2.5553808320E-01  2.5553756082E-01  7.4446243918E-01
                       7.4446243918E-01  7.4446191680E-01  2.5553808320E-01
                       2.4552663768E-01  7.5447336232E-01  2.4552663768E-01
                       2.5553808320E-01  7.4446191680E-01  7.4446243918E-01
                       7.4446243918E-01  2.5553756082E-01  2.5553808320E-01
                       4.0773732971E-07 -4.0773732971E-07  4.0773732971E-07
             xred9     2.5000023754E-01  2.4999976246E-01  2.5000023754E-01
                       7.5000023754E-01  7.4999976246E-01  7.5000023754E-01
                       7.5199192371E-01  2.4800807629E-01  7.5199192371E-01
                       2.5694384349E-01  2.5694298831E-01  7.4305701169E-01
                       7.4305701169E-01  7.4305615651E-01  2.5694384349E-01
                       2.4800877298E-01  7.5199122702E-01  2.4800877298E-01
                       2.5694384349E-01  7.4305615651E-01  7.4305701169E-01
                       7.4305701169E-01  2.5694298831E-01  2.5694384349E-01
                       3.1787175790E-07 -3.1787175790E-07  3.1787175790E-07
             xred10    2.5000042716E-01  2.4999957284E-01  2.5000042716E-01
                       7.5000042716E-01  7.4999957284E-01  7.5000042716E-01
                       7.4962999935E-01  2.5037000065E-01  7.4962999935E-01
                       2.5829351164E-01  2.5829289630E-01  7.4170710370E-01
                       7.4170710370E-01  7.4170648836E-01  2.5829351164E-01
                       2.5037074504E-01  7.4962925496E-01  2.5037074504E-01
                       2.5829351164E-01  7.4170648836E-01  7.4170710370E-01
                       7.4170710370E-01  2.5829289630E-01  2.5829351164E-01
                       3.7062822271E-07 -3.7062822271E-07  3.7062822271E-07
            znucl       55.00000   53.00000   72.00000   35.00000

================================================================================


- Timing analysis has been suppressed with timopt=0



================================================================================

 Suggested references for the acknowledgment of ABINIT usage.

 The users of ABINIT have little formal obligations with respect to the ABINIT group
 (those specified in the GNU General Public License, http://www.gnu.org/copyleft/gpl.txt).
 However, it is common practice in the scientific literature,
 to acknowledge the efforts of people that have made the research possible.
 In this spirit, please find below suggested citations of work written by ABINIT developers,
 corresponding to implementations inside of ABINIT that you have used in the present run.
 Note also that it will be of great value to readers of publications presenting these results,
 to read papers enabling them to understand the theoretical formalism and details
 of the ABINIT implementation.
 For information on why they are suggested, see also https://docs.abinit.org/theory/acknowledgments.
-
- [1] Implementation of the Projector Augmented-Wave Method in the ABINIT code.
- M. Torrent, F. Jollet, F. Bottin, G. Zerah, and X. Gonze Comput. Mat. Science 42, 337, (2008).
- Comment: PAW calculations. Strong suggestion to cite this paper.
- DOI and bibtex: see https://docs.abinit.org/theory/bibliography/#torrent2008
-
- [2] Libxc: A library of exchange and correlation functionals for density functional theory.
- M.A.L. Marques, M.J.T. Oliveira, T. Burnus, Computer Physics Communications 183, 2227 (2012).
- Comment: to be cited when LibXC is used (negative value of ixc)
- Strong suggestion to cite this paper.
- DOI and bibtex: see https://docs.abinit.org/theory/bibliography/#marques2012
-
- [3] The Abinit project: Impact, environment and recent developments.
- Computer Phys. Comm. 248, 107042 (2020).
- X.Gonze, B. Amadon, G. Antonius, F.Arnardi, L.Baguet, J.-M.Beuken,
- J.Bieder, F.Bottin, J.Bouchet, E.Bousquet, N.Brouwer, F.Bruneval,
- G.Brunin, T.Cavignac, J.-B. Charraud, Wei Chen, M.Cote, S.Cottenier,
- J.Denier, G.Geneste, Ph.Ghosez, M.Giantomassi, Y.Gillet, O.Gingras,
- D.R.Hamann, G.Hautier, Xu He, N.Helbig, N.Holzwarth, Y.Jia, F.Jollet,
- W.Lafargue-Dit-Hauret, K.Lejaeghere, M.A.L.Marques, A.Martin, C.Martins,
- H.P.C. Miranda, F.Naccarato, K. Persson, G.Petretto, V.Planes, Y.Pouillon,
- S.Prokhorenko, F.Ricci, G.-M.Rignanese, A.H.Romero, M.M.Schmitt, M.Torrent,
- M.J.van Setten, B.Van Troeye, M.J.Verstraete, G.Zerah and J.W.Zwanzig
- Comment: the fifth generic paper describing the ABINIT project.
- Note that a version of this paper, that is not formatted for Computer Phys. Comm. 
- is available at https://www.abinit.org/sites/default/files/ABINIT20.pdf .
- The licence allows the authors to put it on the Web.
- DOI and bibtex: see https://docs.abinit.org/theory/bibliography/#gonze2020
-
- [4] ABINIT: Overview, and focus on selected capabilities
- J. Chem. Phys. 152, 124102 (2020).
- A. Romero, D.C. Allan, B. Amadon, G. Antonius, T. Applencourt, L.Baguet,
- J.Bieder, F.Bottin, J.Bouchet, E.Bousquet, F.Bruneval,
- G.Brunin, D.Caliste, M.Cote,
- J.Denier, C. Dreyer, Ph.Ghosez, M.Giantomassi, Y.Gillet, O.Gingras,
- D.R.Hamann, G.Hautier, F.Jollet, G. Jomard,
- A.Martin, 
- H.P.C. Miranda, F.Naccarato, G.Petretto, N.A. Pike, V.Planes,
- S.Prokhorenko, T. Rangel, F.Ricci, G.-M.Rignanese, M.Royo, M.Stengel, M.Torrent,
- M.J.van Setten, B.Van Troeye, M.J.Verstraete, J.Wiktor, J.W.Zwanziger, and X.Gonze.
- Comment: a global overview of ABINIT, with focus on selected capabilities .
- Note that a version of this paper, that is not formatted for J. Chem. Phys 
- is available at https://www.abinit.org/sites/default/files/ABINIT20_JPC.pdf .
- The licence allows the authors to put it on the Web.
- DOI and bibtex: see https://docs.abinit.org/theory/bibliography/#romero2020
-
- [5] Recent developments in the ABINIT software package.
- Computer Phys. Comm. 205, 106 (2016).
- X.Gonze, F.Jollet, F.Abreu Araujo, D.Adams, B.Amadon, T.Applencourt,
- C.Audouze, J.-M.Beuken, J.Bieder, A.Bokhanchuk, E.Bousquet, F.Bruneval
- D.Caliste, M.Cote, F.Dahm, F.Da Pieve, M.Delaveau, M.Di Gennaro,
- B.Dorado, C.Espejo, G.Geneste, L.Genovese, A.Gerossier, M.Giantomassi,
- Y.Gillet, D.R.Hamann, L.He, G.Jomard, J.Laflamme Janssen, S.Le Roux,
- A.Levitt, A.Lherbier, F.Liu, I.Lukacevic, A.Martin, C.Martins,
- M.J.T.Oliveira, S.Ponce, Y.Pouillon, T.Rangel, G.-M.Rignanese,
- A.H.Romero, B.Rousseau, O.Rubel, A.A.Shukri, M.Stankovski, M.Torrent,
- M.J.Van Setten, B.Van Troeye, M.J.Verstraete, D.Waroquier, J.Wiktor,
- B.Xu, A.Zhou, J.W.Zwanziger.
- Comment: the fourth generic paper describing the ABINIT project.
- Note that a version of this paper, that is not formatted for Computer Phys. Comm. 
- is available at https://www.abinit.org/sites/default/files/ABINIT16.pdf .
- The licence allows the authors to put it on the Web.
- DOI and bibtex: see https://docs.abinit.org/theory/bibliography/#gonze2016
-
- Proc.   0 individual time (sec): cpu=      54411.3  wall=      54702.4

================================================================================

 Calculation completed.
.Delivered   0 WARNINGs and 183 COMMENTs to log file.
+Overall time at end (sec) : cpu=     217671.9  wall=     218809.6
