
.Version 9.2.2 of ABINIT 
.(MPI version, prepared for a x86_64_linux_gnu9.3 computer) 

.Copyright (C) 1998-2020 ABINIT group . 
 ABINIT comes with ABSOLUTELY NO WARRANTY.
 It is free software, and you are welcome to redistribute it
 under certain conditions (GNU General Public License,
 see ~abinit/COPYING or http://www.gnu.org/copyleft/gpl.txt).

 ABINIT is a project of the Universite Catholique de Louvain,
 Corning Inc. and other collaborators, see ~abinit/doc/developers/contributors.txt .
 Please read https://docs.abinit.org/theory/acknowledgments for suggested
 acknowledgments of the ABINIT effort.
 For more information, see https://www.abinit.org .

.Starting date : Sat 26 Nov 2022.
- ( at 08h55 )
  
- input  file    -> Cs2TiI6.in
- output file    -> Cs2TiI6.out
- root for input  files -> Cs2TiI6i
- root for output files -> Cs2TiI6o

- inpspheads : Reading pseudopotential header in XML form from 
-   ../../../Psps_for_tests/ATOMICDATA/Cs.GGA_PBE-JTH.xml
- inpspheads : Reading pseudopotential header in XML form from 
-   ../../../Psps_for_tests/ATOMICDATA/I.GGA_PBE-JTH.xml
- inpspheads : Reading pseudopotential header in XML form from 
-   ../../../Psps_for_tests/ATOMICDATA/Zr.GGA_PBE-JTH.xml
- inpspheads : Reading pseudopotential header in XML form from 
-   ../../../Psps_for_tests/ATOMICDATA/Br.GGA_PBE-JTH.xml

 DATASET    1 : space group I4/m m m (#139); Bravais tI (body-center tetrag.)
================================================================================
 Values of the parameters that define the memory need for DATASET  1.
     intxc =       0    ionmov =       2      iscf =      17    lmnmax =      18
     lnmax =       6     mgfft =      64  mpssoang =       3    mqgrid =    3874
     natom =       9  nloc_mem =       2    nspden =       1   nspinor =       1
    nsppol =       1      nsym =      16    n1xccc =       1    ntypat =       4
    occopt =       1   xclevel =       2
-    mband =          42        mffmem =           1         mkmem =           4
       mpw =       10058          nfft =      262144          nkpt =          20
Pmy_natom=         2
 PAW method is used; the additional fine FFT grid is defined by:
   mgfftf=       100    nfftf =   1000000
================================================================================
P This job should need less than                     330.628 Mbytes of memory.
  Rough estimation (10% accuracy) of disk space for files :
_ WF disk file :    128.919 Mbytes ; DEN or POT disk file :      7.631 Mbytes.
================================================================================


 DATASET    2 : space group I4/m m m (#139); Bravais tI (body-center tetrag.)
================================================================================
 Values of the parameters that define the memory need for DATASET  2.
     intxc =       0    ionmov =       2      iscf =      17    lmnmax =      18
     lnmax =       6     mgfft =      64  mpssoang =       3    mqgrid =    3870
     natom =       9  nloc_mem =       2    nspden =       1   nspinor =       1
    nsppol =       1      nsym =      16    n1xccc =       1    ntypat =       4
    occopt =       1   xclevel =       2
-    mband =          42        mffmem =           1         mkmem =           4
       mpw =       10018          nfft =      262144          nkpt =          20
Pmy_natom=         2
 PAW method is used; the additional fine FFT grid is defined by:
   mgfftf=       100    nfftf =   1000000
================================================================================
P This job should need less than                     330.587 Mbytes of memory.
  Rough estimation (10% accuracy) of disk space for files :
_ WF disk file :    128.407 Mbytes ; DEN or POT disk file :      7.631 Mbytes.
================================================================================


 DATASET    3 : space group I4/m m m (#139); Bravais tI (body-center tetrag.)
================================================================================
 Values of the parameters that define the memory need for DATASET  3.
     intxc =       0    ionmov =       2      iscf =      17    lmnmax =      18
     lnmax =       6     mgfft =      64  mpssoang =       3    mqgrid =    3866
     natom =       9  nloc_mem =       2    nspden =       1   nspinor =       1
    nsppol =       1      nsym =      16    n1xccc =       1    ntypat =       4
    occopt =       1   xclevel =       2
-    mband =          42        mffmem =           1         mkmem =           4
       mpw =        9997          nfft =      262144          nkpt =          20
Pmy_natom=         2
 PAW method is used; the additional fine FFT grid is defined by:
   mgfftf=       100    nfftf =   1000000
================================================================================
P This job should need less than                     330.599 Mbytes of memory.
  Rough estimation (10% accuracy) of disk space for files :
_ WF disk file :    128.137 Mbytes ; DEN or POT disk file :      7.631 Mbytes.
================================================================================


 DATASET    4 : space group I4/m m m (#139); Bravais tI (body-center tetrag.)
================================================================================
 Values of the parameters that define the memory need for DATASET  4.
     intxc =       0    ionmov =       2      iscf =      17    lmnmax =      18
     lnmax =       6     mgfft =      64  mpssoang =       3    mqgrid =    3862
     natom =       9  nloc_mem =       2    nspden =       1   nspinor =       1
    nsppol =       1      nsym =      16    n1xccc =       1    ntypat =       4
    occopt =       1   xclevel =       2
-    mband =          42        mffmem =           1         mkmem =           4
       mpw =        9974          nfft =      262144          nkpt =          20
Pmy_natom=         2
 PAW method is used; the additional fine FFT grid is defined by:
   mgfftf=       100    nfftf =   1000000
================================================================================
P This job should need less than                     330.607 Mbytes of memory.
  Rough estimation (10% accuracy) of disk space for files :
_ WF disk file :    127.843 Mbytes ; DEN or POT disk file :      7.631 Mbytes.
================================================================================


 DATASET    5 : space group I4/m m m (#139); Bravais tI (body-center tetrag.)
================================================================================
 Values of the parameters that define the memory need for DATASET  5.
     intxc =       0    ionmov =       2      iscf =      17    lmnmax =      18
     lnmax =       6     mgfft =      64  mpssoang =       3    mqgrid =    3859
     natom =       9  nloc_mem =       2    nspden =       1   nspinor =       1
    nsppol =       1      nsym =      16    n1xccc =       1    ntypat =       4
    occopt =       1   xclevel =       2
-    mband =          42        mffmem =           1         mkmem =           4
       mpw =        9944          nfft =      262144          nkpt =          20
Pmy_natom=         2
 PAW method is used; the additional fine FFT grid is defined by:
   mgfftf=       100    nfftf =   1000000
================================================================================
P This job should need less than                     330.595 Mbytes of memory.
  Rough estimation (10% accuracy) of disk space for files :
_ WF disk file :    127.458 Mbytes ; DEN or POT disk file :      7.631 Mbytes.
================================================================================


 DATASET    6 : space group I4/m m m (#139); Bravais tI (body-center tetrag.)
================================================================================
 Values of the parameters that define the memory need for DATASET  6.
     intxc =       0    ionmov =       2      iscf =      17    lmnmax =      18
     lnmax =       6     mgfft =      64  mpssoang =       3    mqgrid =    3855
     natom =       9  nloc_mem =       2    nspden =       1   nspinor =       1
    nsppol =       1      nsym =      16    n1xccc =       1    ntypat =       4
    occopt =       1   xclevel =       2
-    mband =          42        mffmem =           1         mkmem =           4
       mpw =        9905          nfft =      262144          nkpt =          20
Pmy_natom=         2
 PAW method is used; the additional fine FFT grid is defined by:
   mgfftf=       100    nfftf =   1000000
================================================================================
P This job should need less than                     330.558 Mbytes of memory.
  Rough estimation (10% accuracy) of disk space for files :
_ WF disk file :    126.958 Mbytes ; DEN or POT disk file :      7.631 Mbytes.
================================================================================


 DATASET    7 : space group I4/m m m (#139); Bravais tI (body-center tetrag.)
================================================================================
 Values of the parameters that define the memory need for DATASET  7.
     intxc =       0    ionmov =       2      iscf =      17    lmnmax =      18
     lnmax =       6     mgfft =      64  mpssoang =       3    mqgrid =    3851
     natom =       9  nloc_mem =       2    nspden =       1   nspinor =       1
    nsppol =       1      nsym =      16    n1xccc =       1    ntypat =       4
    occopt =       1   xclevel =       2
-    mband =          42        mffmem =           1         mkmem =           4
       mpw =        9862          nfft =      262144          nkpt =          20
Pmy_natom=         2
 PAW method is used; the additional fine FFT grid is defined by:
   mgfftf=        96    nfftf =    884736
================================================================================
P This job should need less than                     300.761 Mbytes of memory.
  Rough estimation (10% accuracy) of disk space for files :
_ WF disk file :    126.407 Mbytes ; DEN or POT disk file :      6.752 Mbytes.
================================================================================


 DATASET    8 : space group I4/m m m (#139); Bravais tI (body-center tetrag.)
================================================================================
 Values of the parameters that define the memory need for DATASET  8.
     intxc =       0    ionmov =       2      iscf =      17    lmnmax =      18
     lnmax =       6     mgfft =      64  mpssoang =       3    mqgrid =    3847
     natom =       9  nloc_mem =       2    nspden =       1   nspinor =       1
    nsppol =       1      nsym =      16    n1xccc =       1    ntypat =       4
    occopt =       1   xclevel =       2
-    mband =          42        mffmem =           1         mkmem =           4
       mpw =        9830          nfft =      262144          nkpt =          20
Pmy_natom=         2
 PAW method is used; the additional fine FFT grid is defined by:
   mgfftf=        96    nfftf =    884736
================================================================================
P This job should need less than                     300.735 Mbytes of memory.
  Rough estimation (10% accuracy) of disk space for files :
_ WF disk file :    125.997 Mbytes ; DEN or POT disk file :      6.752 Mbytes.
================================================================================


 DATASET    9 : space group I4/m m m (#139); Bravais tI (body-center tetrag.)
================================================================================
 Values of the parameters that define the memory need for DATASET  9.
     intxc =       0    ionmov =       2      iscf =      17    lmnmax =      18
     lnmax =       6     mgfft =      64  mpssoang =       3    mqgrid =    3843
     natom =       9  nloc_mem =       2    nspden =       1   nspinor =       1
    nsppol =       1      nsym =      16    n1xccc =       1    ntypat =       4
    occopt =       1   xclevel =       2
-    mband =          42        mffmem =           1         mkmem =           4
       mpw =        9797          nfft =      262144          nkpt =          20
Pmy_natom=         2
 PAW method is used; the additional fine FFT grid is defined by:
   mgfftf=        96    nfftf =    884736
================================================================================
P This job should need less than                     300.707 Mbytes of memory.
  Rough estimation (10% accuracy) of disk space for files :
_ WF disk file :    125.574 Mbytes ; DEN or POT disk file :      6.752 Mbytes.
================================================================================

--------------------------------------------------------------------------------
------------- Echo of variables that govern the present computation ------------
--------------------------------------------------------------------------------
-
- outvars: echo of selected default values                                      
-   iomode0 =  0 , fftalg0 =112 , wfoptalg0 = 10
-
- outvars: echo of global parameters not present in the input file              
-  max_nthreads =    0
-
 -outvars: echo values of preprocessed input variables --------
            acell1     1.4384684566E+01  1.4384684566E+01  1.4747946689E+01 Bohr
            acell2     1.4370285483E+01  1.4370285483E+01  1.4733183979E+01 Bohr
            acell3     1.4355886399E+01  1.4355886399E+01  1.4718421270E+01 Bohr
            acell4     1.4341487315E+01  1.4341487315E+01  1.4703658560E+01 Bohr
            acell5     1.4327088232E+01  1.4327088232E+01  1.4688895851E+01 Bohr
            acell6     1.4312689148E+01  1.4312689148E+01  1.4674133142E+01 Bohr
            acell7     1.4298290064E+01  1.4298290064E+01  1.4659370432E+01 Bohr
            acell8     1.4283890981E+01  1.4283890981E+01  1.4644607723E+01 Bohr
            acell9     1.4269491897E+01  1.4269491897E+01  1.4629845013E+01 Bohr
              amu      1.32905430E+02  1.26904470E+02  9.12240000E+01
                       7.99040000E+01
           diemac      1.20000000E+01
          dilatmx      1.15000000E+00
             ecut      1.60000000E+01 Hartree
           ecutsm      5.00000000E-01 Hartree
-          fftalg         112
          getxred1          0
          getxred2         -1
          getxred3         -1
          getxred4         -1
          getxred5         -1
          getxred6         -1
          getxred7         -1
          getxred8         -1
          getxred9         -1
           ionmov           2
              ixc     -101130
           jdtset        1    2    3    4    5    6    7    8    9
              kpt     -1.25000000E-01 -2.50000000E-01  0.00000000E+00
                      -1.25000000E-01  5.00000000E-01  0.00000000E+00
                      -2.50000000E-01 -3.75000000E-01  0.00000000E+00
                      -1.25000000E-01 -3.75000000E-01  1.25000000E-01
                      -1.25000000E-01  2.50000000E-01  0.00000000E+00
                      -2.50000000E-01  3.75000000E-01  0.00000000E+00
                      -1.25000000E-01  3.75000000E-01  1.25000000E-01
                      -3.75000000E-01  5.00000000E-01  0.00000000E+00
                      -2.50000000E-01  5.00000000E-01  1.25000000E-01
                      -1.25000000E-01  5.00000000E-01  2.50000000E-01
                      -1.25000000E-01  0.00000000E+00  0.00000000E+00
                      -1.25000000E-01  1.25000000E-01  1.25000000E-01
                      -1.25000000E-01  2.50000000E-01  2.50000000E-01
                      -1.25000000E-01  3.75000000E-01  3.75000000E-01
                      -3.75000000E-01  0.00000000E+00  0.00000000E+00
                      -2.50000000E-01  0.00000000E+00  1.25000000E-01
                      -3.75000000E-01  1.25000000E-01  1.25000000E-01
                      -2.50000000E-01  1.25000000E-01  2.50000000E-01
                      -3.75000000E-01  2.50000000E-01  2.50000000E-01
                      -2.50000000E-01  2.50000000E-01  3.75000000E-01
         kptrlatt        4   -4    4     -4    4    4     -4   -4    4
          kptrlen1     7.92638871E+01
          kptrlen2     7.91845439E+01
          kptrlen3     7.91052006E+01
          kptrlen4     7.90258574E+01
          kptrlen5     7.89465142E+01
          kptrlen6     7.88671709E+01
          kptrlen7     7.87878277E+01
          kptrlen8     7.87084845E+01
          kptrlen9     7.86291412E+01
P           mkmem           4
            natom           9
            nband          42
           ndtset           9
            ngfft          64      64      64
          ngfftdg1        100     100     100
          ngfftdg2        100     100     100
          ngfftdg3        100     100     100
          ngfftdg4        100     100     100
          ngfftdg5        100     100     100
          ngfftdg6        100     100     100
          ngfftdg7         96      96      96
          ngfftdg8         96      96      96
          ngfftdg9         96      96      96
             nkpt          20
            nstep        2500
             nsym          16
            ntime        1000
           ntypat           4
              occ      2.000000  2.000000  2.000000  2.000000  2.000000  2.000000
                       2.000000  2.000000  2.000000  2.000000  2.000000  2.000000
                       2.000000  2.000000  2.000000  2.000000  2.000000  2.000000
                       2.000000  2.000000  2.000000  2.000000  2.000000  2.000000
                       2.000000  2.000000  2.000000  2.000000  2.000000  2.000000
                       2.000000  2.000000  2.000000  2.000000  2.000000  2.000000
                       0.000000  0.000000  0.000000  0.000000  0.000000  0.000000
          optcell           3
        optforces           1
        pawecutdg      4.00000000E+01 Hartree
            prtwf           0
            rprim      0.0000000000E+00  7.2496362806E-01  6.8878714998E-01
                       7.2496362806E-01  0.0000000000E+00  6.8878714998E-01
                       7.0710678119E-01  7.0710678119E-01  0.0000000000E+00
           shiftk      5.00000000E-01  5.00000000E-01  5.00000000E-01
          spgroup         139
           symrel      1  0  0   0  1  0   0  0  1      -1  0  0   0 -1  0   0  0 -1
                      -1  0  1   0 -1  1   0  0  1       1  0 -1   0  1 -1   0  0 -1
                       0  1 -1   1  0 -1   0  0 -1       0 -1  1  -1  0  1   0  0  1
                       0 -1  0  -1  0  0   0  0 -1       0  1  0   1  0  0   0  0  1
                       1  0  0   1  0 -1   1 -1  0      -1  0  0  -1  0  1  -1  1  0
                       0 -1  0   0 -1  1   1 -1  0       0  1  0   0  1 -1  -1  1  0
                       0  1 -1   0  1  0  -1  1  0       0 -1  1   0 -1  0   1 -1  0
                      -1  0  1  -1  0  0  -1  1  0       1  0 -1   1  0  0   1 -1  0
           toldff      1.00000000E-08
           tolmxf      1.00000000E-05
            typat      1  1  4  4  2  2  2  2  3
           useylm           1
              wtk        0.03125    0.03125    0.03125    0.06250    0.03125    0.03125
                         0.06250    0.03125    0.06250    0.06250    0.03125    0.06250
                         0.06250    0.06250    0.03125    0.06250    0.06250    0.06250
                         0.06250    0.06250
           xangst1     2.7592286868E+00  2.7592286868E+00  2.6215401569E+00
                       8.2776860603E+00  8.2776860603E+00  7.8646204707E+00
                       5.5184573736E+00  5.5184573736E+00  2.5918061227E+00
                       5.5184573734E+00  5.5184573734E+00  7.8943545049E+00
                       8.2033133228E+00  5.5184573736E+00  5.2430803138E+00
                       5.5184573736E+00  8.2033133228E+00  5.2430803138E+00
                       5.5184573735E+00  2.8336014242E+00  5.2430803138E+00
                       2.8336014242E+00  5.5184573735E+00  5.2430803138E+00
                      -1.8808354113E-21  4.1798698460E-21 -1.0238234088E-20
           xangst2     2.7564666961E+00  2.7564666961E+00  2.6189159926E+00
                       8.2694000882E+00  8.2694000882E+00  7.8567479777E+00
                       5.5129333922E+00  5.5129333922E+00  2.5892117221E+00
                       5.5129333921E+00  5.5129333921E+00  7.8864522482E+00
                       8.1951017980E+00  5.5129333922E+00  5.2378319852E+00
                       5.5129333922E+00  8.1951017980E+00  5.2378319852E+00
                       5.5129333921E+00  2.8307649863E+00  5.2378319852E+00
                       2.8307649863E+00  5.5129333921E+00  5.2378319852E+00
                      -1.8789526932E-21  4.1756857921E-21 -1.0227985605E-20
           xangst3     2.7537047054E+00  2.7537047054E+00  2.6162918283E+00
                       8.2611141162E+00  8.2611141162E+00  7.8488754848E+00
                       5.5074094109E+00  5.5074094109E+00  2.5866173216E+00
                       5.5074094107E+00  5.5074094107E+00  7.8785499914E+00
                       8.1868902732E+00  5.5074094108E+00  5.2325836565E+00
                       5.5074094108E+00  8.1868902732E+00  5.2325836565E+00
                       5.5074094107E+00  2.8279285484E+00  5.2325836565E+00
                       2.8279285484E+00  5.5074094107E+00  5.2325836565E+00
                      -1.8770699751E-21  4.1715017382E-21 -1.0217737123E-20
           xangst4     2.7509427147E+00  2.7509427147E+00  2.6136676639E+00
                       8.2528281442E+00  8.2528281442E+00  7.8410029918E+00
                       5.5018854295E+00  5.5018854295E+00  2.5840229211E+00
                       5.5018854294E+00  5.5018854294E+00  7.8706477347E+00
                       8.1786787483E+00  5.5018854295E+00  5.2273353279E+00
                       5.5018854295E+00  8.1786787483E+00  5.2273353279E+00
                       5.5018854294E+00  2.8250921106E+00  5.2273353279E+00
                       2.8250921106E+00  5.5018854294E+00  5.2273353279E+00
                      -1.8751872569E-21  4.1673176843E-21 -1.0207488640E-20
           xangst5     2.7481807240E+00  2.7481807240E+00  2.6110434996E+00
                       8.2445421721E+00  8.2445421721E+00  7.8331304989E+00
                       5.4963614481E+00  5.4963614481E+00  2.5814285206E+00
                       5.4963614480E+00  5.4963614480E+00  7.8627454779E+00
                       8.1704672235E+00  5.4963614481E+00  5.2220869992E+00
                       5.4963614481E+00  8.1704672235E+00  5.2220869992E+00
                       5.4963614480E+00  2.8222556727E+00  5.2220869992E+00
                       2.8222556727E+00  5.4963614480E+00  5.2220869992E+00
                      -1.8733045388E-21  4.1631336304E-21 -1.0197240158E-20
           xangst6     2.7454187334E+00  2.7454187334E+00  2.6084193353E+00
                       8.2362562001E+00  8.2362562001E+00  7.8252580059E+00
                       5.4908374668E+00  5.4908374668E+00  2.5788341201E+00
                       5.4908374667E+00  5.4908374667E+00  7.8548432211E+00
                       8.1622556986E+00  5.4908374668E+00  5.2168386706E+00
                       5.4908374668E+00  8.1622556986E+00  5.2168386706E+00
                       5.4908374667E+00  2.8194192349E+00  5.2168386706E+00
                       2.8194192349E+00  5.4908374667E+00  5.2168386706E+00
                      -1.8714218207E-21  4.1589495765E-21 -1.0186991675E-20
           xangst7     2.7426567427E+00  2.7426567427E+00  2.6057951710E+00
                       8.2279702281E+00  8.2279702281E+00  7.8173855129E+00
                       5.4853134854E+00  5.4853134854E+00  2.5762397195E+00
                       5.4853134853E+00  5.4853134853E+00  7.8469409644E+00
                       8.1540441738E+00  5.4853134854E+00  5.2115903420E+00
                       5.4853134854E+00  8.1540441738E+00  5.2115903420E+00
                       5.4853134853E+00  2.8165827970E+00  5.2115903420E+00
                       2.8165827970E+00  5.4853134853E+00  5.2115903420E+00
                      -1.8695391026E-21  4.1547655226E-21 -1.0176743192E-20
           xangst8     2.7398947520E+00  2.7398947520E+00  2.6031710067E+00
                       8.2196842560E+00  8.2196842560E+00  7.8095130200E+00
                       5.4797895041E+00  5.4797895041E+00  2.5736453190E+00
                       5.4797895040E+00  5.4797895040E+00  7.8390387076E+00
                       8.1458326489E+00  5.4797895041E+00  5.2063420133E+00
                       5.4797895041E+00  8.1458326489E+00  5.2063420133E+00
                       5.4797895040E+00  2.8137463591E+00  5.2063420133E+00
                       2.8137463591E+00  5.4797895040E+00  5.2063420133E+00
                      -1.8676563844E-21  4.1505814687E-21 -1.0166494710E-20
           xangst9     2.7371327613E+00  2.7371327613E+00  2.6005468423E+00
                       8.2113982840E+00  8.2113982840E+00  7.8016405270E+00
                       5.4742655227E+00  5.4742655227E+00  2.5710509185E+00
                       5.4742655226E+00  5.4742655226E+00  7.8311364509E+00
                       8.1376211241E+00  5.4742655227E+00  5.2010936847E+00
                       5.4742655227E+00  8.1376211241E+00  5.2010936847E+00
                       5.4742655226E+00  2.8109099213E+00  5.2010936847E+00
                       2.8109099213E+00  5.4742655226E+00  5.2010936847E+00
                      -1.8657736663E-21  4.1463974148E-21 -1.0156246227E-20
            xcart1     5.2141865560E+00  5.2141865560E+00  4.9539929429E+00
                       1.5642559668E+01  1.5642559668E+01  1.4861978829E+01
                       1.0428373112E+01  1.0428373112E+01  4.8978037614E+00
                       1.0428373112E+01  1.0428373112E+01  1.4918168010E+01
                       1.5502015562E+01  1.0428373112E+01  9.9079858858E+00
                       1.0428373112E+01  1.5502015562E+01  9.9079858858E+00
                       1.0428373112E+01  5.3547306614E+00  9.9079858858E+00
                       5.3547306614E+00  1.0428373112E+01  9.9079858858E+00
                      -3.5542638284E-21  7.8988092800E-21 -1.9347458511E-20
            xcart2     5.2089671500E+00  5.2089671500E+00  4.9490339910E+00
                       1.5626901450E+01  1.5626901450E+01  1.4847101973E+01
                       1.0417934300E+01  1.0417934300E+01  4.8929010549E+00
                       1.0417934300E+01  1.0417934300E+01  1.4903234909E+01
                       1.5486498029E+01  1.0417934300E+01  9.8980679820E+00
                       1.0417934300E+01  1.5486498029E+01  9.8980679820E+00
                       1.0417934300E+01  5.3493705707E+00  9.8980679820E+00
                       5.3493705707E+00  1.0417934300E+01  9.8980679820E+00
                      -3.5507060068E-21  7.8909025640E-21 -1.9328091685E-20
            xcart3     5.2037477440E+00  5.2037477440E+00  4.9440750391E+00
                       1.5611243232E+01  1.5611243232E+01  1.4832225117E+01
                       1.0407495488E+01  1.0407495488E+01  4.8879983484E+00
                       1.0407495488E+01  1.0407495488E+01  1.4888301808E+01
                       1.5470980496E+01  1.0407495488E+01  9.8881500782E+00
                       1.0407495488E+01  1.5470980496E+01  9.8881500782E+00
                       1.0407495488E+01  5.3440104799E+00  9.8881500782E+00
                       5.3440104799E+00  1.0407495488E+01  9.8881500782E+00
                      -3.5471481851E-21  7.8829958480E-21 -1.9308724860E-20
            xcart4     5.1985283381E+00  5.1985283381E+00  4.9391160872E+00
                       1.5595585014E+01  1.5595585014E+01  1.4817348262E+01
                       1.0397056676E+01  1.0397056676E+01  4.8830956420E+00
                       1.0397056676E+01  1.0397056676E+01  1.4873368707E+01
                       1.5455462963E+01  1.0397056676E+01  9.8782321744E+00
                       1.0397056676E+01  1.5455462963E+01  9.8782321744E+00
                       1.0397056676E+01  5.3386503892E+00  9.8782321744E+00
                       5.3386503892E+00  1.0397056676E+01  9.8782321744E+00
                      -3.5435903635E-21  7.8750891320E-21 -1.9289358035E-20
            xcart5     5.1933089321E+00  5.1933089321E+00  4.9341571353E+00
                       1.5579926796E+01  1.5579926796E+01  1.4802471406E+01
                       1.0386617864E+01  1.0386617864E+01  4.8781929355E+00
                       1.0386617864E+01  1.0386617864E+01  1.4858435606E+01
                       1.5439945430E+01  1.0386617864E+01  9.8683142707E+00
                       1.0386617864E+01  1.5439945430E+01  9.8683142707E+00
                       1.0386617864E+01  5.3332902984E+00  9.8683142707E+00
                       5.3332902984E+00  1.0386617864E+01  9.8683142707E+00
                      -3.5400325418E-21  7.8671824160E-21 -1.9269991209E-20
            xcart6     5.1880895262E+00  5.1880895262E+00  4.9291981834E+00
                       1.5564268578E+01  1.5564268578E+01  1.4787594550E+01
                       1.0376179052E+01  1.0376179052E+01  4.8732902290E+00
                       1.0376179052E+01  1.0376179052E+01  1.4843502505E+01
                       1.5424427897E+01  1.0376179052E+01  9.8583963669E+00
                       1.0376179052E+01  1.5424427897E+01  9.8583963669E+00
                       1.0376179052E+01  5.3279302077E+00  9.8583963669E+00
                       5.3279302077E+00  1.0376179052E+01  9.8583963669E+00
                      -3.5364747202E-21  7.8592757000E-21 -1.9250624384E-20
            xcart7     5.1828701202E+00  5.1828701202E+00  4.9242392315E+00
                       1.5548610361E+01  1.5548610361E+01  1.4772717695E+01
                       1.0365740240E+01  1.0365740240E+01  4.8683875226E+00
                       1.0365740240E+01  1.0365740240E+01  1.4828569404E+01
                       1.5408910364E+01  1.0365740240E+01  9.8484784631E+00
                       1.0365740240E+01  1.5408910364E+01  9.8484784631E+00
                       1.0365740240E+01  5.3225701169E+00  9.8484784631E+00
                       5.3225701169E+00  1.0365740240E+01  9.8484784631E+00
                      -3.5329168985E-21  7.8513689840E-21 -1.9231257559E-20
            xcart8     5.1776507142E+00  5.1776507142E+00  4.9192802796E+00
                       1.5532952143E+01  1.5532952143E+01  1.4757840839E+01
                       1.0355301429E+01  1.0355301429E+01  4.8634848161E+00
                       1.0355301428E+01  1.0355301428E+01  1.4813636302E+01
                       1.5393392831E+01  1.0355301429E+01  9.8385605593E+00
                       1.0355301429E+01  1.5393392831E+01  9.8385605593E+00
                       1.0355301428E+01  5.3172100262E+00  9.8385605593E+00
                       5.3172100262E+00  1.0355301428E+01  9.8385605593E+00
                      -3.5293590769E-21  7.8434622680E-21 -1.9211890733E-20
            xcart9     5.1724313083E+00  5.1724313083E+00  4.9143213278E+00
                       1.5517293925E+01  1.5517293925E+01  1.4742963983E+01
                       1.0344862617E+01  1.0344862617E+01  4.8585821096E+00
                       1.0344862616E+01  1.0344862616E+01  1.4798703201E+01
                       1.5377875298E+01  1.0344862617E+01  9.8286426555E+00
                       1.0344862617E+01  1.5377875298E+01  9.8286426555E+00
                       1.0344862616E+01  5.3118499354E+00  9.8286426555E+00
                       5.3118499354E+00  1.0344862616E+01  9.8286426555E+00
                      -3.5258012552E-21  7.8355555520E-21 -1.9192523908E-20
             xred      2.5000000000E-01  2.5000000000E-01  2.5000000000E-01
                       7.5000000000E-01  7.5000000000E-01  7.5000000000E-01
                       2.4716444986E-01  2.4716444986E-01  7.5283555014E-01
                       7.5283555014E-01  7.5283555014E-01  2.4716444986E-01
                       2.5673854416E-01  7.4326145584E-01  7.4326145584E-01
                       7.4326145584E-01  2.5673854416E-01  7.4326145584E-01
                       2.5673854416E-01  7.4326145584E-01  2.5673854416E-01
                       7.4326145584E-01  2.5673854416E-01  2.5673854416E-01
                      -4.2722639981E-22 -1.5254871722E-21  1.1846608716E-21
            znucl       55.00000   53.00000   40.00000   35.00000

================================================================================

 chkinp: Checking input parameters for consistency, jdtset=   1.

 chkinp: Checking input parameters for consistency, jdtset=   2.

 chkinp: Checking input parameters for consistency, jdtset=   3.

 chkinp: Checking input parameters for consistency, jdtset=   4.

 chkinp: Checking input parameters for consistency, jdtset=   5.

 chkinp: Checking input parameters for consistency, jdtset=   6.

 chkinp: Checking input parameters for consistency, jdtset=   7.

 chkinp: Checking input parameters for consistency, jdtset=   8.

 chkinp: Checking input parameters for consistency, jdtset=   9.

================================================================================
== DATASET  1 ==================================================================
-   mpi_nproc: 6, omp_nthreads: -1 (-1 if OMP is not activated)


--- !DatasetInfo
iteration_state: {dtset: 1, }
dimensions: {natom: 9, nkpt: 20, mband: 42, nsppol: 1, nspinor: 1, nspden: 1, mpw: 10058, }
cutoff_energies: {ecut:  16.0, pawecutdg:  40.0, }
electrons: {nelect:   7.20000000E+01, charge:   0.00000000E+00, occopt:   1.00000000E+00, tsmear:   1.00000000E-02, }
meta: {optdriver: 0, ionmov: 2, optcell: 3, iscf: 17, paral_kgb: 0, }
...

 Real(R)+Recip(G) space primitive vectors, cartesian coordinates (Bohr,Bohr^-1):
 R(1)=  0.0000000 10.4283731  9.9079859  G(1)= -0.0479461  0.0479461  0.0504643
 R(2)= 10.4283731  0.0000000  9.9079859  G(2)=  0.0479461 -0.0479461  0.0504643
 R(3)= 10.4283731 10.4283731  0.0000000  G(3)=  0.0479461  0.0479461 -0.0504643
 Unit cell volume ucvol=  2.1550061E+03 bohr^3
 Angles (23,13,12)=  5.91610483E+01  5.91610483E+01  6.16779034E+01 degrees

 Coarse grid specifications (used for wave-functions):

 getcut: wavevector=  0.0000  0.0000  0.0000  ngfft=  64  64  64
         ecut(hartree)=     21.160   => boxcut(ratio)=   2.09568

 Fine grid specifications (used for densities):

 getcut: wavevector=  0.0000  0.0000  0.0000  ngfft= 100 100 100
         ecut(hartree)=     52.900   => boxcut(ratio)=   2.07098

--- Pseudopotential description ------------------------------------------------
- pspini: atom type   1  psp file is ../../../Psps_for_tests/ATOMICDATA/Cs.GGA_PBE-JTH.xml
- pspatm: opening atomic psp file    ../../../Psps_for_tests/ATOMICDATA/Cs.GGA_PBE-JTH.xml
- pspatm : Reading pseudopotential header in XML form from ../../../Psps_for_tests/ATOMICDATA/Cs.GGA_PBE-JTH.xml
 Pseudopotential format is: paw10
 basis_size (lnmax)=  6 (lmn_size= 18), orbitals=   0   0   1   1   2   2
 Spheres core radius: rc_sph= 2.20660278
 1 radial meshes are used:
  - mesh 1: r(i)=AA*[exp(BB*(i-1))-1], size=1500 , AA= 0.15922E-03 BB= 0.87573E-02
 Shapefunction is SIN type: shapef(r)=[sin(pi*r/rshp)/(pi*r/rshp)]**2
 Radius for shape functions =  2.00394208
 mmax= 1500
 Radial grid used for partial waves is grid 1
 Radial grid used for projectors is grid 1
 Radial grid used for (t)core density is grid 1
 Radial grid used for Vloc is grid 1
 Radial grid used for pseudo valence density is grid 1
 Mesh size for Vloc has been set to 1341 to avoid numerical noise.
 Compensation charge density is not taken into account in XC energy/potential
 pspatm: atomic psp has been read  and splines computed

- pspini: atom type   2  psp file is ../../../Psps_for_tests/ATOMICDATA/I.GGA_PBE-JTH.xml
- pspatm: opening atomic psp file    ../../../Psps_for_tests/ATOMICDATA/I.GGA_PBE-JTH.xml
- pspatm : Reading pseudopotential header in XML form from ../../../Psps_for_tests/ATOMICDATA/I.GGA_PBE-JTH.xml
 Pseudopotential format is: paw10
 basis_size (lnmax)=  4 (lmn_size=  8), orbitals=   0   0   1   1
 Spheres core radius: rc_sph= 2.30022271
 1 radial meshes are used:
  - mesh 1: r(i)=AA*[exp(BB*(i-1))-1], size=2000 , AA= 0.12610E-03 BB= 0.66836E-02
 Shapefunction is SIN type: shapef(r)=[sin(pi*r/rshp)/(pi*r/rshp)]**2
 Radius for shape functions =  2.10879093
 mmax= 2000
 Radial grid used for partial waves is grid 1
 Radial grid used for projectors is grid 1
 Radial grid used for (t)core density is grid 1
 Radial grid used for Vloc is grid 1
 Radial grid used for pseudo valence density is grid 1
 Mesh size for Vloc has been set to 1792 to avoid numerical noise.
 Compensation charge density is not taken into account in XC energy/potential
 pspatm: atomic psp has been read  and splines computed

- pspini: atom type   3  psp file is ../../../Psps_for_tests/ATOMICDATA/Zr.GGA_PBE-JTH.xml
- pspatm: opening atomic psp file    ../../../Psps_for_tests/ATOMICDATA/Zr.GGA_PBE-JTH.xml
- pspatm : Reading pseudopotential header in XML form from ../../../Psps_for_tests/ATOMICDATA/Zr.GGA_PBE-JTH.xml
 Pseudopotential format is: paw10
 basis_size (lnmax)=  6 (lmn_size= 18), orbitals=   0   0   1   1   2   2
 Spheres core radius: rc_sph= 2.21000000
 1 radial meshes are used:
  - mesh 1: r(i)=AA*[exp(BB*(i-1))-1], size= 941 , AA= 0.35256E-03 BB= 0.14102E-01
 Shapefunction is BESSEL type: shapef(r,l)=aa(1,l)*jl(q(1,l)*r)+aa(2,l)*jl(q(2,l)*r)
 Radius for shape functions =  2.21000000
 mmax=  941
 Radial grid used for partial waves is grid 1
 Radial grid used for projectors is grid 1
 Radial grid used for (t)core density is grid 1
 Radial grid used for Vloc is grid 1
 Radial grid used for pseudo valence density is grid 1
 Mesh size for Vloc has been set to  777 to avoid numerical noise.
 Compensation charge density is not taken into account in XC energy/potential
 pspatm: atomic psp has been read  and splines computed

- pspini: atom type   4  psp file is ../../../Psps_for_tests/ATOMICDATA/Br.GGA_PBE-JTH.xml
- pspatm: opening atomic psp file    ../../../Psps_for_tests/ATOMICDATA/Br.GGA_PBE-JTH.xml
- pspatm : Reading pseudopotential header in XML form from ../../../Psps_for_tests/ATOMICDATA/Br.GGA_PBE-JTH.xml
 Pseudopotential format is: paw10
 basis_size (lnmax)=  4 (lmn_size=  8), orbitals=   0   0   1   1
 Spheres core radius: rc_sph= 2.20000000
 1 radial meshes are used:
  - mesh 1: r(i)=AA*[exp(BB*(i-1))-1], size= 927 , AA= 0.40483E-03 BB= 0.14169E-01
 Shapefunction is BESSEL type: shapef(r,l)=aa(1,l)*jl(q(1,l)*r)+aa(2,l)*jl(q(2,l)*r)
 Radius for shape functions =  2.02066386
 mmax=  927
 Radial grid used for partial waves is grid 1
 Radial grid used for projectors is grid 1
 Radial grid used for (t)core density is grid 1
 Radial grid used for Vloc is grid 1
 Radial grid used for pseudo valence density is grid 1
 Mesh size for Vloc has been set to  763 to avoid numerical noise.
 Compensation charge density is not taken into account in XC energy/potential
 pspatm: atomic psp has been read  and splines computed

   3.69876676E+04                                ecore*ucvol(ha*bohr**3)
--------------------------------------------------------------------------------

_setup2: Arith. and geom. avg. npw (full set) are   10018.125   10018.117

================================================================================

=== [ionmov= 2] Broyden-Fletcher-Goldfard-Shanno method (forces)            
================================================================================

--- Iteration: (   1/1000) Internal Cycle: (1/1)
--------------------------------------------------------------------------------

---SELF-CONSISTENT-FIELD CONVERGENCE--------------------------------------------

--- !BeginCycle
iteration_state: {dtset: 1, itime: 1, icycle: 1, }
solver: {iscf: 17, nstep: 2500, nline: 4, wfoptalg: 10, }
tolerances: {toldff: 1.00E-08, }
...

     iter   Etot(hartree)      deltaE(h)  residm     nres2    diffor    maxfor
 ETOT  1  -162.49003399116    -1.625E+02 2.420E-01 2.534E+01 4.158E-02 4.158E-02
 ETOT  2  -162.71502798729    -2.250E-01 1.370E-02 7.375E+00 1.268E-01 8.521E-02
 ETOT  3  -162.71061146729     4.417E-03 2.713E-03 1.571E+00 7.322E-02 1.199E-02
 ETOT  4  -162.71138637568    -7.749E-04 2.479E-03 1.342E-01 1.413E-02 2.612E-02
 ETOT  5  -162.71087088141     5.155E-04 7.971E-04 9.208E-03 2.466E-02 1.458E-03
 ETOT  6  -162.71092501335    -5.413E-05 4.734E-04 1.532E-03 1.982E-03 5.243E-04
 ETOT  7  -162.71092311331     1.900E-06 3.511E-04 3.961E-04 3.824E-04 1.419E-04
 ETOT  8  -162.71092410348    -9.902E-07 2.701E-04 6.341E-05 5.963E-04 6.816E-04
 ETOT  9  -162.71092415535    -5.188E-08 1.518E-04 2.171E-05 2.667E-04 4.149E-04
 ETOT 10  -162.71092419234    -3.699E-08 1.907E-04 2.485E-06 9.702E-05 5.119E-04
 ETOT 11  -162.71092420470    -1.236E-08 9.106E-05 2.221E-06 2.695E-05 4.871E-04
 ETOT 12  -162.71092420011     4.589E-09 9.145E-05 2.025E-07 1.409E-05 4.892E-04
 ETOT 13  -162.71092420123    -1.117E-09 4.090E-05 8.067E-08 8.333E-06 4.809E-04
 ETOT 14  -162.71092420119     4.388E-11 3.603E-05 5.375E-09 1.207E-06 4.821E-04
 ETOT 15  -162.71092420123    -4.067E-11 1.624E-05 7.363E-09 1.223E-06 4.809E-04
 ETOT 16  -162.71092420120     2.819E-11 1.312E-05 2.716E-10 4.041E-07 4.806E-04
 ETOT 17  -162.71092420120    -1.620E-12 6.184E-06 1.946E-10 1.208E-07 4.807E-04
 ETOT 18  -162.71092420120    -3.496E-12 4.651E-06 2.933E-12 1.808E-07 4.809E-04
 ETOT 19  -162.71092420120     1.535E-12 3.800E-06 6.091E-12 2.401E-08 4.809E-04
 ETOT 20  -162.71092420121    -1.080E-11 3.470E-06 3.033E-13 3.155E-08 4.809E-04
 ETOT 21  -162.71092420120     1.083E-11 3.170E-06 1.676E-14 6.641E-09 4.809E-04
 ETOT 22  -162.71092420121    -2.387E-12 2.873E-06 1.027E-14 5.718E-10 4.809E-04

 At SCF step   22, forces are converged : 
  for the second time, max diff in force=  5.718E-10 < toldff=  1.000E-08

 Cartesian components of stress tensor (hartree/bohr^3)
  sigma(1 1)= -1.44241265E-04  sigma(3 2)=  1.65473037E-13
  sigma(2 2)= -1.44241265E-04  sigma(3 1)=  1.65473342E-13
  sigma(3 3)= -1.44516016E-04  sigma(2 1)= -3.14433049E-13


--- !ResultsGS
iteration_state: {dtset: 1, itime: 1, icycle: 1, }
comment   : Summary of ground state results
lattice_vectors:
- [  0.0000000,  10.4283731,   9.9079859, ]
- [ 10.4283731,   0.0000000,   9.9079859, ]
- [ 10.4283731,  10.4283731,   0.0000000, ]
lattice_lengths: [  14.38468,   14.38468,   14.74795, ]
lattice_angles: [ 59.161,  59.161,  61.678, ] # degrees, (23, 13, 12)
lattice_volume:   2.1550061E+03
convergence: {deltae: -2.387E-12, res2:  1.027E-14, residm:  2.873E-06, diffor:  5.718E-10, }
etotal    :  -1.62710924E+02
entropy   :   0.00000000E+00
fermie    :  -5.33517039E-02
cartesian_stress_tensor: # hartree/bohr^3
- [ -1.44241265E-04,  -3.14433049E-13,   1.65473342E-13, ]
- [ -3.14433049E-13,  -1.44241265E-04,   1.65473037E-13, ]
- [  1.65473342E-13,   1.65473037E-13,  -1.44516016E-04, ]
pressure_GPa:   4.2464E+00
xred      :
- [  2.5000E-01,   2.5000E-01,   2.5000E-01, Cs]
- [  7.5000E-01,   7.5000E-01,   7.5000E-01, Cs]
- [  2.4716E-01,   2.4716E-01,   7.5284E-01, Br]
- [  7.5284E-01,   7.5284E-01,   2.4716E-01, Br]
- [  2.5674E-01,   7.4326E-01,   7.4326E-01,  I]
- [  7.4326E-01,   2.5674E-01,   7.4326E-01,  I]
- [  2.5674E-01,   7.4326E-01,   2.5674E-01,  I]
- [  7.4326E-01,   2.5674E-01,   2.5674E-01,  I]
- [ -4.2723E-22,  -1.5255E-21,   1.1847E-21, Zr]
cartesian_forces: # hartree/bohr
- [ -3.29209803E-28,  -1.00690345E-21,   5.09559647E-28, ]
- [ -1.74287543E-28,  -1.00690361E-21,  -2.24206245E-28, ]
- [ -5.95975051E-21,   4.95284673E-21,   4.80873849E-04, ]
- [  5.95975051E-21,  -6.96665429E-21,  -4.80873849E-04, ]
- [ -3.85650094E-04,   7.75295704E-15,  -8.16013742E-15, ]
- [  7.75295804E-15,  -3.85650094E-04,  -8.16013742E-15, ]
- [ -7.75295804E-15,   3.85650094E-04,   8.16013742E-15, ]
- [  3.85650094E-04,  -7.75295905E-15,   8.16013742E-15, ]
- [ -0.00000000E+00,  -1.00690378E-21,  -0.00000000E+00, ]
force_length_stats: {min:   1.00690345E-21, max:   4.80873849E-04, mean:   2.78260897E-04, }
...

 Integrated electronic density in atomic spheres:
 ------------------------------------------------
 Atom  Sphere_radius  Integrated_density
    1        2.20660          5.37928862
    2        2.20660          5.37928862
    3        2.20000          4.94192080
    4        2.20000          4.94192080
    5        2.30022          4.03828088
    6        2.30022          4.03828088
    7        2.30022          4.03828088
    8        2.30022          4.03828088
    9        2.21000          8.87129021

 PAW TEST:
 ==== Compensation charge inside spheres ============
 The following values must be close to each other ...
 Compensation charge over spherical meshes =     -5.102436718240877
 Compensation charge over fine fft grid    =     -5.102436994751075

 ==== Results concerning PAW augmentation regions ====

 Total pseudopotential strength Dij (hartree):
 Atom #  1
   0.43003  -0.14246   0.00000   0.00000   0.00000   0.00000   0.00000   0.00000   0.00000   0.00000   0.00000   0.00000 ...
  -0.14246   0.04285   0.00000   0.00000   0.00000   0.00000   0.00000   0.00000   0.00000   0.00000  -0.00000   0.00000 ...
   0.00000   0.00000  -0.09229   0.00000   0.00000  -0.16735   0.00000   0.00000   0.00000   0.00000   0.00000  -0.00000 ...
   0.00000   0.00000   0.00000  -0.09230   0.00000   0.00000  -0.16735   0.00000  -0.00000   0.00000   0.00000   0.00000 ...
   0.00000   0.00000   0.00000   0.00000  -0.09229   0.00000   0.00000  -0.16735   0.00000  -0.00000   0.00000   0.00000 ...
   0.00000   0.00000  -0.16735   0.00000   0.00000   0.40097   0.00000   0.00000   0.00000   0.00000   0.00000  -0.00000 ...
   0.00000   0.00000   0.00000  -0.16735   0.00000   0.00000   0.40097   0.00000  -0.00000   0.00000   0.00000   0.00000 ...
   0.00000   0.00000   0.00000   0.00000  -0.16735   0.00000   0.00000   0.40097   0.00000  -0.00000   0.00000   0.00000 ...
   0.00000   0.00000   0.00000  -0.00000   0.00000   0.00000  -0.00000   0.00000   0.00541   0.00000   0.00000   0.00000 ...
   0.00000   0.00000   0.00000   0.00000  -0.00000   0.00000   0.00000  -0.00000   0.00000   0.00541   0.00000   0.00000 ...
   0.00000  -0.00000   0.00000   0.00000   0.00000   0.00000   0.00000   0.00000   0.00000   0.00000   0.00541   0.00000 ...
   0.00000   0.00000  -0.00000   0.00000   0.00000  -0.00000   0.00000   0.00000   0.00000   0.00000   0.00000   0.00541 ...
   ...  only 12  components have been written...
 Atom #  9
   3.06918  -0.89378   0.00000   0.00000   0.00000   0.00000   0.00000   0.00000   0.00000   0.00000   0.00005   0.00000 ...
  -0.89378   0.26706   0.00000   0.00000   0.00000   0.00000   0.00000   0.00000   0.00000   0.00000  -0.00000   0.00000 ...
   0.00000   0.00000   0.27077   0.00000   0.00000  -0.05516   0.00000   0.00000   0.00000   0.00000   0.00000   0.00000 ...
   0.00000   0.00000   0.00000   0.27087   0.00000   0.00000  -0.05517   0.00000   0.00000   0.00000   0.00000   0.00000 ...
   0.00000   0.00000   0.00000   0.00000   0.27077   0.00000   0.00000  -0.05516   0.00000   0.00000   0.00000   0.00000 ...
   0.00000   0.00000  -0.05516   0.00000   0.00000   0.01510   0.00000   0.00000   0.00000   0.00000   0.00000   0.00000 ...
   0.00000   0.00000   0.00000  -0.05517   0.00000   0.00000   0.01511   0.00000   0.00000   0.00000   0.00000   0.00000 ...
   0.00000   0.00000   0.00000   0.00000  -0.05516   0.00000   0.00000   0.01510   0.00000   0.00000   0.00000   0.00000 ...
   0.00000   0.00000   0.00000   0.00000   0.00000   0.00000   0.00000   0.00000  -0.01198   0.00000   0.00000   0.00000 ...
   0.00000   0.00000   0.00000   0.00000   0.00000   0.00000   0.00000   0.00000   0.00000  -0.01194   0.00000   0.00000 ...
   0.00005  -0.00000   0.00000   0.00000   0.00000   0.00000   0.00000   0.00000   0.00000   0.00000  -0.01186   0.00000 ...
   0.00000   0.00000   0.00000   0.00000   0.00000   0.00000   0.00000   0.00000   0.00000   0.00000   0.00000  -0.01194 ...
   ...  only 12  components have been written...


 Augmentation waves occupancies Rhoij:
 Atom #  1
   1.99860  -0.01250   0.00000   0.00000   0.00000   0.00000   0.00000   0.00000   0.00000   0.00000  -0.00101   0.00000 ...
  -0.01250   0.21985   0.00000   0.00000   0.00000   0.00000   0.00000   0.00000   0.00000   0.00000   0.02526   0.00000 ...
   0.00000   0.00000   2.00675   0.00000   0.00000  -0.00485   0.00000   0.00000   0.00000   0.00000   0.00000  -0.00231 ...
   0.00000   0.00000   0.00000   2.00761   0.00000   0.00000  -0.00511   0.00000  -0.00197   0.00000   0.00000   0.00000 ...
   0.00000   0.00000   0.00000   0.00000   2.00675   0.00000   0.00000  -0.00485   0.00000  -0.00231   0.00000   0.00000 ...
   0.00000   0.00000  -0.00485   0.00000   0.00000   0.00015   0.00000   0.00000   0.00000   0.00000   0.00000   0.00010 ...
   0.00000   0.00000   0.00000  -0.00511   0.00000   0.00000   0.00019   0.00000   0.00009   0.00000   0.00000   0.00000 ...
   0.00000   0.00000   0.00000   0.00000  -0.00485   0.00000   0.00000   0.00015   0.00000   0.00010   0.00000   0.00000 ...
   0.00000   0.00000   0.00000  -0.00197   0.00000   0.00000   0.00009   0.00000   0.04437   0.00000   0.00000   0.00000 ...
   0.00000   0.00000   0.00000   0.00000  -0.00231   0.00000   0.00000   0.00010   0.00000   0.09775   0.00000   0.00000 ...
  -0.00101   0.02526   0.00000   0.00000   0.00000   0.00000   0.00000   0.00000   0.00000   0.00000   0.03910   0.00000 ...
   0.00000   0.00000  -0.00231   0.00000   0.00000   0.00010   0.00000   0.00000   0.00000   0.00000   0.00000   0.09775 ...
   ...  only 12  components have been written...
 Atom #  9
   1.99399  -0.06005   0.00000   0.00000   0.00000   0.00000   0.00000   0.00000   0.00000   0.00000  -0.00367   0.00000 ...
  -0.06005   1.07259   0.00000   0.00000   0.00000   0.00000   0.00000   0.00000   0.00000   0.00000   0.04481   0.00000 ...
   0.00000   0.00000   1.97054   0.00000   0.00000  -0.17514   0.00000   0.00000   0.00000   0.00000   0.00000   0.00000 ...
   0.00000   0.00000   0.00000   1.96877   0.00000   0.00000  -0.18673   0.00000   0.00000   0.00000   0.00000   0.00000 ...
   0.00000   0.00000   0.00000   0.00000   1.97054   0.00000   0.00000  -0.17514   0.00000   0.00000   0.00000   0.00000 ...
   0.00000   0.00000  -0.17514   0.00000   0.00000   1.56386   0.00000   0.00000   0.00000   0.00000   0.00000   0.00000 ...
   0.00000   0.00000   0.00000  -0.18673   0.00000   0.00000   1.79035   0.00000   0.00000   0.00000   0.00000   0.00000 ...
   0.00000   0.00000   0.00000   0.00000  -0.17514   0.00000   0.00000   1.56386   0.00000   0.00000   0.00000   0.00000 ...
   0.00000   0.00000   0.00000   0.00000   0.00000   0.00000   0.00000   0.00000   0.49188   0.00000   0.00000   0.00000 ...
   0.00000   0.00000   0.00000   0.00000   0.00000   0.00000   0.00000   0.00000   0.00000   0.51625   0.00000   0.00000 ...
  -0.00367   0.04481   0.00000   0.00000   0.00000   0.00000   0.00000   0.00000   0.00000   0.00000   1.50834   0.00000 ...
   0.00000   0.00000   0.00000   0.00000   0.00000   0.00000   0.00000   0.00000   0.00000   0.00000   0.00000   0.51625 ...
   ...  only 12  components have been written...



---OUTPUT-----------------------------------------------------------------------

 Cartesian coordinates (xcart) [bohr]
  5.21418655596471E+00  5.21418655596471E+00  4.95399294290875E+00
  1.56425596678941E+01  1.56425596678941E+01  1.48619788287263E+01
  1.04283731120354E+01  1.04283731120354E+01  4.89780376137746E+00
  1.04283731118234E+01  1.04283731118234E+01  1.49181680102576E+01
  1.55020155624308E+01  1.04283731120314E+01  9.90798588581751E+00
  1.04283731120314E+01  1.55020155624308E+01  9.90798588581751E+00
  1.04283731118274E+01  5.35473066142810E+00  9.90798588581751E+00
  5.35473066142810E+00  1.04283731118274E+01  9.90798588581751E+00
 -3.55426382844724E-21  7.89880928000123E-21 -1.93474585105194E-20
 Reduced coordinates (xred)
  2.50000000000000E-01  2.50000000000000E-01  2.50000000000000E-01
  7.50000000000000E-01  7.50000000000000E-01  7.50000000000000E-01
  2.47164449860000E-01  2.47164449860000E-01  7.52835550140000E-01
  7.52835550140000E-01  7.52835550140000E-01  2.47164449860000E-01
  2.56738544160000E-01  7.43261455840000E-01  7.43261455840000E-01
  7.43261455840000E-01  2.56738544160000E-01  7.43261455840000E-01
  2.56738544160000E-01  7.43261455840000E-01  2.56738544160000E-01
  7.43261455840000E-01  2.56738544160000E-01  2.56738544160000E-01
 -4.27226399810000E-22 -1.52548717220000E-21  1.18466087160000E-21
 Cartesian forces (fcart) [Ha/bohr]; max,rms= 4.80874E-04 1.97895E-04 (free atoms)
 -3.29209803172805E-28 -1.00690345168409E-21  5.09559647298378E-28
 -1.74287542856191E-28 -1.00690360660635E-21 -2.24206244811286E-28
 -5.95975050750427E-21  4.95284672661038E-21  4.80873849361349E-04
  5.95975050750427E-21 -6.96665428839817E-21 -4.80873849361349E-04
 -3.85650093980864E-04  7.75295703608016E-15 -8.16013742416509E-15
  7.75295804298394E-15 -3.85650093980864E-04 -8.16013742416509E-15
 -7.75295804298394E-15  3.85650093980864E-04  8.16013742416509E-15
  3.85650093980864E-04 -7.75295904988772E-15  8.16013742416509E-15
 -0.00000000000000E+00 -1.00690378089390E-21 -0.00000000000000E+00
 Reduced forces (fred)
  1.05003598329305E-20 -1.61558713389263E-27  1.05003683151851E-20
  1.05003687186597E-20  4.03896783473158E-27  1.05003683151851E-20
 -4.76449131233098E-03 -4.76449131233098E-03  1.05003683151851E-20
  4.76449131233098E-03  4.76449131233098E-03  1.05003683151851E-20
 -2.02266418109558E-19  4.02170307068310E-03  4.02170307068310E-03
  4.02170307068310E-03 -2.12766786420514E-19  4.02170307068310E-03
 -4.02170307068310E-03  2.12766786420514E-19 -4.02170307068310E-03
  2.23267154731469E-19 -4.02170307068310E-03 -4.02170307068310E-03
  1.05003683147629E-20  0.00000000000000E+00  1.05003683151851E-20
 Scale of Primitive Cell (acell) [bohr]
  1.43846845663500E+01  1.43846845663500E+01  1.47479466886020E+01
 Real space primitive translations (rprimd) [bohr]
  0.00000000000000E+00  1.04283731117198E+01  9.90798588581751E+00
  1.04283731117198E+01  0.00000000000000E+00  9.90798588581751E+00
  1.04283731121391E+01  1.04283731121391E+01  0.00000000000000E+00
 Unitary Cell Volume (ucvol) [Bohr^3]=  2.15500606767016E+03
 Angles (23,13,12)= [degrees]
  5.91610483225485E+01  5.91610483225485E+01  6.16779033549030E+01
 Lengths [Bohr]
  1.43846845662600E+01  1.43846845662600E+01  1.47479466886740E+01
 Stress tensor in cartesian coordinates (strten) [Ha/bohr^3]
 -1.44241265364995E-04 -3.14433049415348E-13  1.65473341741273E-13
 -3.14433049415348E-13 -1.44241265364995E-04  1.65473037311033E-13
  1.65473341741273E-13  1.65473037311033E-13 -1.44516016353331E-04
 Total energy (etotal) [Ha]= -1.62710924201205E+02

--- Iteration: (   2/1000) Internal Cycle: (1/1)
--------------------------------------------------------------------------------

---SELF-CONSISTENT-FIELD CONVERGENCE--------------------------------------------

--- !BeginCycle
iteration_state: {dtset: 1, itime: 2, icycle: 1, }
solver: {iscf: 17, nstep: 2500, nline: 4, wfoptalg: 10, }
tolerances: {toldff: 1.00E-08, }
...

     iter   Etot(hartree)      deltaE(h)  residm     nres2    diffor    maxfor
 ETOT  1  -162.71092716430    -1.627E+02 2.407E-06 3.306E-04 1.822E-03 2.303E-03
 ETOT  2  -162.71092543548     1.729E-06 1.956E-06 8.003E-05 2.034E-03 2.683E-04
 ETOT  3  -162.71092519592     2.396E-07 1.811E-06 3.308E-06 3.497E-04 6.181E-04
 ETOT  4  -162.71092518422     1.170E-08 1.598E-06 5.810E-07 1.787E-04 4.394E-04
 ETOT  5  -162.71092518776    -3.546E-09 1.484E-06 2.440E-07 2.278E-06 4.371E-04
 ETOT  6  -162.71092519085    -3.083E-09 1.306E-06 4.924E-08 1.927E-05 4.178E-04
 ETOT  7  -162.71092519139    -5.437E-10 1.394E-06 1.464E-08 1.873E-06 4.197E-04
 ETOT  8  -162.71092519315    -1.760E-09 1.325E-06 1.356E-09 2.312E-06 4.179E-04
 ETOT  9  -162.71092519320    -4.894E-11 1.463E-06 9.117E-10 4.052E-07 4.182E-04
 ETOT 10  -162.71092519335    -1.475E-10 1.392E-06 6.441E-11 6.350E-07 4.176E-04
 ETOT 11  -162.71092519337    -2.521E-11 1.534E-06 2.804E-11 2.059E-07 4.178E-04
 ETOT 12  -162.71092519341    -3.396E-11 1.460E-06 5.071E-12 1.839E-08 4.178E-04
 ETOT 13  -162.71092519345    -4.661E-11 1.607E-06 1.271E-12 2.389E-08 4.178E-04
 ETOT 14  -162.71092519347    -2.092E-11 1.529E-06 8.009E-14 4.088E-09 4.178E-04
 ETOT 15  -162.71092519349    -1.580E-11 1.680E-06 2.919E-15 7.183E-10 4.178E-04

 At SCF step   15, forces are converged : 
  for the second time, max diff in force=  7.183E-10 < toldff=  1.000E-08

 Cartesian components of stress tensor (hartree/bohr^3)
  sigma(1 1)= -1.44097406E-04  sigma(3 2)=  1.65473164E-13
  sigma(2 2)= -1.44097406E-04  sigma(3 1)=  1.65473420E-13
  sigma(3 3)= -1.44309559E-04  sigma(2 1)= -3.14433998E-13


--- !ResultsGS
iteration_state: {dtset: 1, itime: 2, icycle: 1, }
comment   : Summary of ground state results
lattice_vectors:
- [  0.0000000,  10.4283445,   9.9080403, ]
- [ 10.4283445,   0.0000000,   9.9080403, ]
- [ 10.4283445,  10.4283445,   0.0000000, ]
lattice_lengths: [  14.38470,   14.38470,   14.74791, ]
lattice_angles: [ 59.161,  59.161,  61.678, ] # degrees, (23, 13, 12)
lattice_volume:   2.1550061E+03
convergence: {deltae: -1.580E-11, res2:  2.919E-15, residm:  1.680E-06, diffor:  7.183E-10, }
etotal    :  -1.62710925E+02
entropy   :   0.00000000E+00
fermie    :  -5.33460032E-02
cartesian_stress_tensor: # hartree/bohr^3
- [ -1.44097406E-04,  -3.14433998E-13,   1.65473420E-13, ]
- [ -3.14433998E-13,  -1.44097406E-04,   1.65473164E-13, ]
- [  1.65473420E-13,   1.65473164E-13,  -1.44309559E-04, ]
pressure_GPa:   4.2416E+00
xred      :
- [  2.5000E-01,   2.5000E-01,   2.5000E-01, Cs]
- [  7.5000E-01,   7.5000E-01,   7.5000E-01, Cs]
- [  2.4719E-01,   2.4719E-01,   7.5281E-01, Br]
- [  7.5281E-01,   7.5281E-01,   2.4719E-01, Br]
- [  2.5676E-01,   7.4324E-01,   7.4324E-01,  I]
- [  7.4324E-01,   2.5676E-01,   7.4324E-01,  I]
- [  2.5676E-01,   7.4324E-01,   2.5676E-01,  I]
- [  7.4324E-01,   2.5676E-01,   2.5676E-01,  I]
- [ -4.2723E-22,  -1.5255E-21,   1.1847E-21, Zr]
cartesian_forces: # hartree/bohr
- [  1.20466908E-20,  -4.79110500E-21,  -9.03485113E-21, ]
- [  1.20466908E-20,  -4.79110500E-21,  -9.03518508E-21, ]
- [ -2.81159822E-20,   3.53715680E-20,   4.17810854E-04, ]
- [  1.06226220E-20,  -3.36703618E-21,  -4.17810854E-04, ]
- [ -3.37653646E-04,   6.78803347E-15,  -7.14451341E-15, ]
- [  6.78804400E-15,  -3.37653646E-04,  -7.14450819E-15, ]
- [ -6.78804701E-15,   3.37653646E-04,   7.14451722E-15, ]
- [  3.37653646E-04,  -6.78804305E-15,   7.14449534E-15, ]
- [  1.20466908E-20,  -4.79110500E-21,  -9.03501810E-21, ]
force_length_stats: {min:   1.58020879E-20, max:   4.17810854E-04, mean:   2.42915144E-04, }
...

 Integrated electronic density in atomic spheres:
 ------------------------------------------------
 Atom  Sphere_radius  Integrated_density
    1        2.20660          5.37928901
    2        2.20660          5.37928901
    3        2.20000          4.93981014
    4        2.20000          4.93981014
    5        2.30022          4.03782364
    6        2.30022          4.03782364
    7        2.30022          4.03782364
    8        2.30022          4.03782364
    9        2.21000          8.87109450

 PAW TEST:
 ==== Compensation charge inside spheres ============
 The following values must be close to each other ...
 Compensation charge over spherical meshes =     -5.102456585353378
 Compensation charge over fine fft grid    =     -5.102456906157848

 ==== Results concerning PAW augmentation regions ====

 Total pseudopotential strength Dij (hartree):
 Atom #  1
   0.43003  -0.14245   0.00000   0.00000   0.00000   0.00000   0.00000   0.00000   0.00000   0.00000   0.00000   0.00000 ...
  -0.14245   0.04285   0.00000   0.00000   0.00000   0.00000   0.00000   0.00000   0.00000   0.00000  -0.00000   0.00000 ...
   0.00000   0.00000  -0.09229   0.00000   0.00000  -0.16735   0.00000   0.00000   0.00000   0.00000   0.00000  -0.00000 ...
   0.00000   0.00000   0.00000  -0.09230   0.00000   0.00000  -0.16735   0.00000  -0.00000   0.00000   0.00000   0.00000 ...
   0.00000   0.00000   0.00000   0.00000  -0.09229   0.00000   0.00000  -0.16735   0.00000  -0.00000   0.00000   0.00000 ...
   0.00000   0.00000  -0.16735   0.00000   0.00000   0.40097   0.00000   0.00000   0.00000   0.00000   0.00000  -0.00000 ...
   0.00000   0.00000   0.00000  -0.16735   0.00000   0.00000   0.40097   0.00000  -0.00000   0.00000   0.00000   0.00000 ...
   0.00000   0.00000   0.00000   0.00000  -0.16735   0.00000   0.00000   0.40097   0.00000  -0.00000   0.00000   0.00000 ...
   0.00000   0.00000   0.00000  -0.00000   0.00000   0.00000  -0.00000   0.00000   0.00541   0.00000   0.00000   0.00000 ...
   0.00000   0.00000   0.00000   0.00000  -0.00000   0.00000   0.00000  -0.00000   0.00000   0.00541   0.00000   0.00000 ...
   0.00000  -0.00000   0.00000   0.00000   0.00000   0.00000   0.00000   0.00000   0.00000   0.00000   0.00541   0.00000 ...
   0.00000   0.00000  -0.00000   0.00000   0.00000  -0.00000   0.00000   0.00000   0.00000   0.00000   0.00000   0.00541 ...
   ...  only 12  components have been written...
 Atom #  9
   3.06920  -0.89379   0.00000   0.00000   0.00000   0.00000   0.00000   0.00000   0.00000   0.00000   0.00005   0.00000 ...
  -0.89379   0.26706   0.00000   0.00000   0.00000   0.00000   0.00000   0.00000   0.00000   0.00000  -0.00000   0.00000 ...
   0.00000   0.00000   0.27077   0.00000   0.00000  -0.05516   0.00000   0.00000   0.00000   0.00000   0.00000   0.00000 ...
   0.00000   0.00000   0.00000   0.27087   0.00000   0.00000  -0.05517   0.00000   0.00000   0.00000   0.00000   0.00000 ...
   0.00000   0.00000   0.00000   0.00000   0.27077   0.00000   0.00000  -0.05516   0.00000   0.00000   0.00000   0.00000 ...
   0.00000   0.00000  -0.05516   0.00000   0.00000   0.01510   0.00000   0.00000   0.00000   0.00000   0.00000   0.00000 ...
   0.00000   0.00000   0.00000  -0.05517   0.00000   0.00000   0.01511   0.00000   0.00000   0.00000   0.00000   0.00000 ...
   0.00000   0.00000   0.00000   0.00000  -0.05516   0.00000   0.00000   0.01510   0.00000   0.00000   0.00000   0.00000 ...
   0.00000   0.00000   0.00000   0.00000   0.00000   0.00000   0.00000   0.00000  -0.01198   0.00000   0.00000   0.00000 ...
   0.00000   0.00000   0.00000   0.00000   0.00000   0.00000   0.00000   0.00000   0.00000  -0.01195   0.00000   0.00000 ...
   0.00005  -0.00000   0.00000   0.00000   0.00000   0.00000   0.00000   0.00000   0.00000   0.00000  -0.01186   0.00000 ...
   0.00000   0.00000   0.00000   0.00000   0.00000   0.00000   0.00000   0.00000   0.00000   0.00000   0.00000  -0.01195 ...
   ...  only 12  components have been written...


 Augmentation waves occupancies Rhoij:
 Atom #  1
   1.99860  -0.01250   0.00000   0.00000   0.00000   0.00000   0.00000   0.00000   0.00000   0.00000  -0.00101   0.00000 ...
  -0.01250   0.21986   0.00000   0.00000   0.00000   0.00000   0.00000   0.00000   0.00000   0.00000   0.02526   0.00000 ...
   0.00000   0.00000   2.00675   0.00000   0.00000  -0.00485   0.00000   0.00000   0.00000   0.00000   0.00000  -0.00231 ...
   0.00000   0.00000   0.00000   2.00761   0.00000   0.00000  -0.00511   0.00000  -0.00197   0.00000   0.00000   0.00000 ...
   0.00000   0.00000   0.00000   0.00000   2.00675   0.00000   0.00000  -0.00485   0.00000  -0.00231   0.00000   0.00000 ...
   0.00000   0.00000  -0.00485   0.00000   0.00000   0.00015   0.00000   0.00000   0.00000   0.00000   0.00000   0.00010 ...
   0.00000   0.00000   0.00000  -0.00511   0.00000   0.00000   0.00019   0.00000   0.00009   0.00000   0.00000   0.00000 ...
   0.00000   0.00000   0.00000   0.00000  -0.00485   0.00000   0.00000   0.00015   0.00000   0.00010   0.00000   0.00000 ...
   0.00000   0.00000   0.00000  -0.00197   0.00000   0.00000   0.00009   0.00000   0.04437   0.00000   0.00000   0.00000 ...
   0.00000   0.00000   0.00000   0.00000  -0.00231   0.00000   0.00000   0.00010   0.00000   0.09775   0.00000   0.00000 ...
  -0.00101   0.02526   0.00000   0.00000   0.00000   0.00000   0.00000   0.00000   0.00000   0.00000   0.03910   0.00000 ...
   0.00000   0.00000  -0.00231   0.00000   0.00000   0.00010   0.00000   0.00000   0.00000   0.00000   0.00000   0.09775 ...
   ...  only 12  components have been written...
 Atom #  9
   1.99399  -0.06007   0.00000   0.00000   0.00000   0.00000   0.00000   0.00000   0.00000   0.00000  -0.00368   0.00000 ...
  -0.06007   1.07242   0.00000   0.00000   0.00000   0.00000   0.00000   0.00000   0.00000   0.00000   0.04470   0.00000 ...
   0.00000   0.00000   1.97053   0.00000   0.00000  -0.17521   0.00000   0.00000   0.00000   0.00000   0.00000   0.00000 ...
   0.00000   0.00000   0.00000   1.96876   0.00000   0.00000  -0.18680   0.00000   0.00000   0.00000   0.00000   0.00000 ...
   0.00000   0.00000   0.00000   0.00000   1.97053   0.00000   0.00000  -0.17521   0.00000   0.00000   0.00000   0.00000 ...
   0.00000   0.00000  -0.17521   0.00000   0.00000   1.56339   0.00000   0.00000   0.00000   0.00000   0.00000   0.00000 ...
   0.00000   0.00000   0.00000  -0.18680   0.00000   0.00000   1.78944   0.00000   0.00000   0.00000   0.00000   0.00000 ...
   0.00000   0.00000   0.00000   0.00000  -0.17521   0.00000   0.00000   1.56339   0.00000   0.00000   0.00000   0.00000 ...
   0.00000   0.00000   0.00000   0.00000   0.00000   0.00000   0.00000   0.00000   0.49173   0.00000   0.00000   0.00000 ...
   0.00000   0.00000   0.00000   0.00000   0.00000   0.00000   0.00000   0.00000   0.00000   0.51601   0.00000   0.00000 ...
  -0.00368   0.04470   0.00000   0.00000   0.00000   0.00000   0.00000   0.00000   0.00000   0.00000   1.50761   0.00000 ...
   0.00000   0.00000   0.00000   0.00000   0.00000   0.00000   0.00000   0.00000   0.00000   0.00000   0.00000   0.51601 ...
   ...  only 12  components have been written...



---OUTPUT-----------------------------------------------------------------------

 Cartesian coordinates (xcart) [bohr]
  5.21417222997498E+00  5.21417222997498E+00  4.95402016523530E+00
  1.56425166899249E+01  1.56425166899249E+01  1.48620604957059E+01
  1.04283444600560E+01  1.04283444600560E+01  4.89831155143469E+00
  1.04283444598440E+01  1.04283444598440E+01  1.49177691095065E+01
  1.55015873215724E+01  1.04283444600520E+01  9.90804033047059E+00
  1.04283444600520E+01  1.55015873215724E+01  9.90804033047059E+00
  1.04283444598480E+01  5.35510159832751E+00  9.90804033047059E+00
  5.35510159832751E+00  1.04283444598480E+01  9.90804033047060E+00
 -3.55425406309907E-21  7.89878757800430E-21 -1.93475648253324E-20
 Reduced coordinates (xred)
  2.50000000000000E-01  2.50000000000000E-01  2.50000000000000E-01
  7.50000000000000E-01  7.50000000000000E-01  7.50000000000000E-01
  2.47188716842962E-01  2.47188716842962E-01  7.52811283157038E-01
  7.52811283157038E-01  7.52811283157038E-01  2.47188716842962E-01
  2.56757034584625E-01  7.43242965415375E-01  7.43242965415375E-01
  7.43242965415375E-01  2.56757034584625E-01  7.43242965415375E-01
  2.56757034584625E-01  7.43242965415375E-01  2.56757034584625E-01
  7.43242965415375E-01  2.56757034584625E-01  2.56757034584625E-01
 -4.27226399810000E-22 -1.52548717220000E-21  1.18466087160000E-21
 Cartesian forces (fcart) [Ha/bohr]; max,rms= 4.17811E-04 1.72688E-04 (free atoms)
  1.20466908053945E-20 -4.79110499622589E-21 -9.03485113228285E-21
  1.20466908053945E-20 -4.79110499622589E-21 -9.03518507545828E-21
 -2.81159822259624E-20  3.53715680351310E-20  4.17810854314025E-04
  1.06226219844400E-20 -3.36703617527143E-21 -4.17810854314025E-04
 -3.37653646329792E-04  6.78803347066453E-15 -7.14451340591895E-15
  6.78804399677695E-15 -3.37653646329792E-04 -7.14450818616458E-15
 -6.78804700844965E-15  3.37653646329792E-04  7.14451722118269E-15
  3.37653646329792E-04 -6.78804305287452E-15  7.14449533588274E-15
  1.20466908053945E-20 -4.79110499622589E-21 -9.03501810387057E-21
 Reduced forces (fred)
  1.39480962641883E-19 -3.61093719201838E-20 -7.56637480782560E-20
  1.39484271364333E-19 -3.61060631977336E-20 -7.56637480782560E-20
 -4.13968679505173E-03 -4.13968679505173E-03 -7.56637480782560E-20
  4.13968679505173E-03  4.13968679505173E-03 -7.56637480782560E-20
  1.75731096489221E-19  3.52116853208519E-03  3.52116853208519E-03
  3.52116853208519E-03  1.42436336086262E-20  3.52116853208519E-03
 -3.52116853208519E-03 -7.23561970564209E-20 -3.52116853208519E-03
  1.03234137514136E-19 -3.52116853208519E-03 -3.52116853208519E-03
  1.39482617003108E-19 -3.61077175589587E-20 -7.56637480782560E-20
 Scale of Primitive Cell (acell) [bohr]
  1.43847012955163E+01  1.43847012955163E+01  1.47479061686560E+01
 Real space primitive translations (rprimd) [bohr]
  0.00000000000000E+00  1.04283444597403E+01  9.90804033047059E+00
  1.04283444597403E+01  0.00000000000000E+00  9.90804033047059E+00
  1.04283444601596E+01  1.04283444601596E+01  0.00000000000000E+00
 Unitary Cell Volume (ucvol) [Bohr^3]=  2.15500606767016E+03
 Angles (23,13,12)= [degrees]
  5.91611820922716E+01  5.91611820922716E+01  6.16776358154568E+01
 Lengths [Bohr]
  1.43847012955163E+01  1.43847012955163E+01  1.47479061686560E+01
 Stress tensor in cartesian coordinates (strten) [Ha/bohr^3]
 -1.44097405951291E-04 -3.14433998126283E-13  1.65473420375483E-13
 -3.14433998126283E-13 -1.44097405951291E-04  1.65473163511707E-13
  1.65473420375483E-13  1.65473163511707E-13 -1.44309558530287E-04
 Total energy (etotal) [Ha]= -1.62710925193490E+02

 Difference of energy with previous step (new-old):
           Absolute (Ha)=-9.92285E-07
           Relative     =-6.09845E-09

--- Iteration: (   3/1000) Internal Cycle: (1/1)
--------------------------------------------------------------------------------

---SELF-CONSISTENT-FIELD CONVERGENCE--------------------------------------------

--- !BeginCycle
iteration_state: {dtset: 1, itime: 3, icycle: 1, }
solver: {iscf: 17, nstep: 2500, nline: 4, wfoptalg: 10, }
tolerances: {toldff: 1.00E-08, }
...

     iter   Etot(hartree)      deltaE(h)  residm     nres2    diffor    maxfor
 ETOT  1  -162.71101776561    -1.627E+02 1.548E-03 1.540E-02 1.244E-02 1.286E-02
 ETOT  2  -162.71093886421     7.890E-05 1.629E-05 3.724E-03 1.388E-02 1.027E-03
 ETOT  3  -162.71092807608     1.079E-05 1.822E-06 1.541E-04 2.397E-03 1.369E-03
 ETOT  4  -162.71092766591     4.102E-07 1.811E-06 2.699E-05 1.231E-03 1.379E-04
 ETOT  5  -162.71092775764    -9.173E-08 1.947E-06 1.139E-05 1.428E-05 1.237E-04
 ETOT  6  -162.71092778709    -2.945E-08 1.862E-06 2.274E-06 1.308E-04 2.408E-05
 ETOT  7  -162.71092778862    -1.531E-09 2.012E-06 6.784E-07 1.228E-05 2.349E-05
 ETOT  8  -162.71092780270    -1.408E-08 1.909E-06 6.255E-08 1.548E-05 8.007E-06
 ETOT  9  -162.71092780299    -2.958E-10 2.065E-06 4.213E-08 2.673E-06 1.068E-05
 ETOT 10  -162.71092780397    -9.712E-10 1.952E-06 3.007E-09 4.366E-06 8.778E-06
 ETOT 11  -162.71092780413    -1.640E-10 2.111E-06 1.319E-09 1.425E-06 9.277E-06
 ETOT 12  -162.71092780441    -2.756E-10 1.990E-06 2.355E-10 1.125E-07 9.177E-06
 ETOT 13  -162.71092780469    -2.830E-10 2.149E-06 5.897E-11 1.591E-07 9.104E-06
 ETOT 14  -162.71092780480    -1.096E-10 2.021E-06 3.907E-12 2.999E-08 9.123E-06
 ETOT 15  -162.71092780492    -1.236E-10 2.180E-06 1.332E-13 4.657E-09 9.128E-06
 ETOT 16  -162.71092780502    -1.022E-10 2.045E-06 1.101E-13 8.266E-09 9.125E-06

 At SCF step   16, forces are converged : 
  for the second time, max diff in force=  8.266E-09 < toldff=  1.000E-08

 Cartesian components of stress tensor (hartree/bohr^3)
  sigma(1 1)= -1.43111950E-04  sigma(3 2)=  1.65494654E-13
  sigma(2 2)= -1.43111950E-04  sigma(3 1)=  1.65491796E-13
  sigma(3 3)= -1.42926594E-04  sigma(2 1)= -3.14487691E-13


--- !ResultsGS
iteration_state: {dtset: 1, itime: 3, icycle: 1, }
comment   : Summary of ground state results
lattice_vectors:
- [  0.0000000,  10.4281711,   9.9083697, ]
- [ 10.4281711,   0.0000000,   9.9083697, ]
- [ 10.4281711,  10.4281711,   0.0000000, ]
lattice_lengths: [  14.38480,   14.38480,   14.74766, ]
lattice_angles: [ 59.162,  59.162,  61.676, ] # degrees, (23, 13, 12)
lattice_volume:   2.1550061E+03
convergence: {deltae: -1.022E-10, res2:  1.101E-13, residm:  2.045E-06, diffor:  8.266E-09, }
etotal    :  -1.62710928E+02
entropy   :   0.00000000E+00
fermie    :  -5.33071186E-02
cartesian_stress_tensor: # hartree/bohr^3
- [ -1.43111950E-04,  -3.14487691E-13,   1.65491796E-13, ]
- [ -3.14487691E-13,  -1.43111950E-04,   1.65494654E-13, ]
- [  1.65491796E-13,   1.65494654E-13,  -1.42926594E-04, ]
pressure_GPa:   4.2087E+00
xred      :
- [  2.5000E-01,   2.5000E-01,   2.5000E-01, Cs]
- [  7.5000E-01,   7.5000E-01,   7.5000E-01, Cs]
- [  2.4735E-01,   2.4735E-01,   7.5265E-01, Br]
- [  7.5265E-01,   7.5265E-01,   2.4735E-01, Br]
- [  2.5688E-01,   7.4312E-01,   7.4312E-01,  I]
- [  7.4312E-01,   2.5688E-01,   7.4312E-01,  I]
- [  2.5688E-01,   7.4312E-01,   2.5688E-01,  I]
- [  7.4312E-01,   2.5688E-01,   2.5688E-01,  I]
- [ -4.2723E-22,  -1.5255E-21,   1.1847E-21, Zr]
cartesian_forces: # hartree/bohr
- [ -1.88388187E-22,   3.63414772E-23,   9.49496021E-23, ]
- [ -1.86801753E-22,   3.47550425E-23,   9.32799417E-23, ]
- [ -1.95059167E-23,  -1.32540793E-22,  -7.38012784E-06, ]
- [  2.92850471E-22,  -4.44897181E-22,   7.38012784E-06, ]
- [ -9.12452243E-06,   1.83440593E-16,  -1.93064044E-16, ]
- [  1.83441216E-16,  -9.12452243E-06,  -1.93064044E-16, ]
- [ -1.83440745E-16,   9.12452243E-06,   1.93064232E-16, ]
- [  9.12452243E-06,  -1.83440521E-16,   1.93064232E-16, ]
- [ -1.88229544E-22,   3.61828337E-23,   9.41147719E-23, ]
force_length_stats: {min:   2.11669448E-22, max:   9.12452243E-06, mean:   5.69537171E-06, }
...

 Integrated electronic density in atomic spheres:
 ------------------------------------------------
 Atom  Sphere_radius  Integrated_density
    1        2.20660          5.37929187
    2        2.20660          5.37929187
    3        2.20000          4.93893579
    4        2.20000          4.93893579
    5        2.30022          4.03520122
    6        2.30022          4.03520122
    7        2.30022          4.03520122
    8        2.30022          4.03520122
    9        2.21000          8.87075284

 PAW TEST:
 ==== Compensation charge inside spheres ============
 The following values must be close to each other ...
 Compensation charge over spherical meshes =     -5.102592678600493
 Compensation charge over fine fft grid    =     -5.102593343466600

 ==== Results concerning PAW augmentation regions ====

 Total pseudopotential strength Dij (hartree):
 Atom #  1
   0.43002  -0.14245   0.00000   0.00000   0.00000   0.00000   0.00000   0.00000   0.00000   0.00000   0.00000   0.00000 ...
  -0.14245   0.04285   0.00000   0.00000   0.00000   0.00000   0.00000   0.00000   0.00000   0.00000  -0.00000   0.00000 ...
   0.00000   0.00000  -0.09229   0.00000   0.00000  -0.16735   0.00000   0.00000   0.00000   0.00000   0.00000  -0.00000 ...
   0.00000   0.00000   0.00000  -0.09229   0.00000   0.00000  -0.16735   0.00000  -0.00000   0.00000   0.00000   0.00000 ...
   0.00000   0.00000   0.00000   0.00000  -0.09229   0.00000   0.00000  -0.16735   0.00000  -0.00000   0.00000   0.00000 ...
   0.00000   0.00000  -0.16735   0.00000   0.00000   0.40096   0.00000   0.00000   0.00000   0.00000   0.00000  -0.00000 ...
   0.00000   0.00000   0.00000  -0.16735   0.00000   0.00000   0.40097   0.00000  -0.00000   0.00000   0.00000   0.00000 ...
   0.00000   0.00000   0.00000   0.00000  -0.16735   0.00000   0.00000   0.40096   0.00000  -0.00000   0.00000   0.00000 ...
   0.00000   0.00000   0.00000  -0.00000   0.00000   0.00000  -0.00000   0.00000   0.00541   0.00000   0.00000   0.00000 ...
   0.00000   0.00000   0.00000   0.00000  -0.00000   0.00000   0.00000  -0.00000   0.00000   0.00541   0.00000   0.00000 ...
   0.00000  -0.00000   0.00000   0.00000   0.00000   0.00000   0.00000   0.00000   0.00000   0.00000   0.00541   0.00000 ...
   0.00000   0.00000  -0.00000   0.00000   0.00000  -0.00000   0.00000   0.00000   0.00000   0.00000   0.00000   0.00541 ...
   ...  only 12  components have been written...
 Atom #  9
   3.06932  -0.89383   0.00000   0.00000   0.00000   0.00000   0.00000   0.00000   0.00000   0.00000   0.00005   0.00000 ...
  -0.89383   0.26707   0.00000   0.00000   0.00000   0.00000   0.00000   0.00000   0.00000   0.00000  -0.00000   0.00000 ...
   0.00000   0.00000   0.27074   0.00000   0.00000  -0.05515   0.00000   0.00000   0.00000   0.00000   0.00000   0.00000 ...
   0.00000   0.00000   0.00000   0.27084   0.00000   0.00000  -0.05516   0.00000   0.00000   0.00000   0.00000   0.00000 ...
   0.00000   0.00000   0.00000   0.00000   0.27074   0.00000   0.00000  -0.05515   0.00000   0.00000   0.00000   0.00000 ...
   0.00000   0.00000  -0.05515   0.00000   0.00000   0.01510   0.00000   0.00000   0.00000   0.00000   0.00000   0.00000 ...
   0.00000   0.00000   0.00000  -0.05516   0.00000   0.00000   0.01510   0.00000   0.00000   0.00000   0.00000   0.00000 ...
   0.00000   0.00000   0.00000   0.00000  -0.05515   0.00000   0.00000   0.01510   0.00000   0.00000   0.00000   0.00000 ...
   0.00000   0.00000   0.00000   0.00000   0.00000   0.00000   0.00000   0.00000  -0.01202   0.00000   0.00000   0.00000 ...
   0.00000   0.00000   0.00000   0.00000   0.00000   0.00000   0.00000   0.00000   0.00000  -0.01198   0.00000   0.00000 ...
   0.00005  -0.00000   0.00000   0.00000   0.00000   0.00000   0.00000   0.00000   0.00000   0.00000  -0.01190   0.00000 ...
   0.00000   0.00000   0.00000   0.00000   0.00000   0.00000   0.00000   0.00000   0.00000   0.00000   0.00000  -0.01198 ...
   ...  only 12  components have been written...


 Augmentation waves occupancies Rhoij:
 Atom #  1
   1.99860  -0.01250   0.00000   0.00000   0.00000   0.00000   0.00000   0.00000   0.00000   0.00000  -0.00100   0.00000 ...
  -0.01250   0.21986   0.00000   0.00000   0.00000   0.00000   0.00000   0.00000   0.00000   0.00000   0.02524   0.00000 ...
   0.00000   0.00000   2.00675   0.00000   0.00000  -0.00485   0.00000   0.00000   0.00000   0.00000   0.00000  -0.00232 ...
   0.00000   0.00000   0.00000   2.00761   0.00000   0.00000  -0.00511   0.00000  -0.00198   0.00000   0.00000   0.00000 ...
   0.00000   0.00000   0.00000   0.00000   2.00675   0.00000   0.00000  -0.00485   0.00000  -0.00232   0.00000   0.00000 ...
   0.00000   0.00000  -0.00485   0.00000   0.00000   0.00015   0.00000   0.00000   0.00000   0.00000   0.00000   0.00010 ...
   0.00000   0.00000   0.00000  -0.00511   0.00000   0.00000   0.00019   0.00000   0.00009   0.00000   0.00000   0.00000 ...
   0.00000   0.00000   0.00000   0.00000  -0.00485   0.00000   0.00000   0.00015   0.00000   0.00010   0.00000   0.00000 ...
   0.00000   0.00000   0.00000  -0.00198   0.00000   0.00000   0.00009   0.00000   0.04441   0.00000   0.00000   0.00000 ...
   0.00000   0.00000   0.00000   0.00000  -0.00232   0.00000   0.00000   0.00010   0.00000   0.09774   0.00000   0.00000 ...
  -0.00100   0.02524   0.00000   0.00000   0.00000   0.00000   0.00000   0.00000   0.00000   0.00000   0.03912   0.00000 ...
   0.00000   0.00000  -0.00232   0.00000   0.00000   0.00010   0.00000   0.00000   0.00000   0.00000   0.00000   0.09774 ...
   ...  only 12  components have been written...
 Atom #  9
   1.99395  -0.06018   0.00000   0.00000   0.00000   0.00000   0.00000   0.00000   0.00000   0.00000  -0.00371   0.00000 ...
  -0.06018   1.07124   0.00000   0.00000   0.00000   0.00000   0.00000   0.00000   0.00000   0.00000   0.04394   0.00000 ...
   0.00000   0.00000   1.97044   0.00000   0.00000  -0.17571   0.00000   0.00000   0.00000   0.00000   0.00000   0.00000 ...
   0.00000   0.00000   0.00000   1.96868   0.00000   0.00000  -0.18729   0.00000   0.00000   0.00000   0.00000   0.00000 ...
[...]
                       5.4939543703E+00  2.8293237989E+00  5.2109209765E+00
                       2.8293237989E+00  5.4939543703E+00  5.2109209765E+00
                      -1.8724841434E-21  4.1613104267E-21 -1.0175436113E-20
           xangst7     2.7444912671E+00  2.7444912671E+00  2.6023127061E+00
                       8.2334738013E+00  8.2334738013E+00  7.8069381184E+00
                       5.4889825343E+00  5.4889825343E+00  2.5894905191E+00
                       5.4889825342E+00  5.4889825342E+00  7.8197603054E+00
                       8.1498536807E+00  5.4889825343E+00  5.2046254123E+00
                       5.4889825343E+00  8.1498536807E+00  5.2046254123E+00
                       5.4889825342E+00  2.8281113877E+00  5.2046254123E+00
                       2.8281113877E+00  5.4889825342E+00  5.2046254123E+00
                      -1.6577591906E-21  3.2949294710E-21 -9.6050221361E-21
           xangst8     2.7419353996E+00  2.7419353996E+00  2.5992977003E+00
                       8.2258061988E+00  8.2258061988E+00  7.7978931009E+00
                       5.4838707993E+00  5.4838707993E+00  2.5887644461E+00
                       5.4838707991E+00  5.4838707991E+00  7.8084263552E+00
                       8.1408525587E+00  5.4838707993E+00  5.1985954006E+00
                       5.4838707993E+00  8.1408525587E+00  5.1985954006E+00
                       5.4838707991E+00  2.8268890397E+00  5.1985954006E+00
                       2.8268890397E+00  5.4838707991E+00  5.1985954006E+00
                      -5.5793381307E-21  7.0889169005E-21 -4.5377694096E-21
           xangst9     2.7393967792E+00  2.7393967792E+00  2.5962500923E+00
                       8.2181903377E+00  8.2181903377E+00  7.7887502769E+00
                       5.4787935585E+00  5.4787935585E+00  2.5880373814E+00
                       5.4787935584E+00  5.4787935584E+00  7.7969629878E+00
                       8.1319482404E+00  5.4787935585E+00  5.1925001846E+00
                       5.4787935585E+00  8.1319482404E+00  5.1925001846E+00
                       5.4787935584E+00  2.8256388765E+00  5.1925001846E+00
                       2.8256388765E+00  5.4787935584E+00  5.1925001846E+00
                      -8.5219591069E-21  1.0127419032E-20 -9.1768720718E-21
            xcart1     5.2141677897E+00  5.2141677897E+00  4.9540286027E+00
                       1.5642503369E+01  1.5642503369E+01  1.4862085808E+01
                       1.0428335580E+01  1.0428335580E+01  4.9015841172E+00
                       1.0428335579E+01  1.0428335579E+01  1.4914530294E+01
                       1.5498814411E+01  1.0428335580E+01  9.9080572054E+00
                       1.0428335580E+01  1.5498814411E+01  9.9080572054E+00
                       1.0428335579E+01  5.3578567476E+00  9.9080572054E+00
                       5.3578567476E+00  1.0428335579E+01  9.9080572054E+00
                      -3.5542510364E-21  7.8987808516E-21 -1.9347597777E-20
            xcart2     5.2098037804E+00  5.2098037804E+00  4.9474446106E+00
                       1.5629411341E+01  1.5629411341E+01  1.4842333832E+01
                       1.0419607561E+01  1.0419607561E+01  4.9001849028E+00
                       1.0419607561E+01  1.0419607561E+01  1.4889593540E+01
                       1.5483533016E+01  1.0419607561E+01  9.8948892213E+00
                       1.0419607561E+01  1.5483533016E+01  9.8948892213E+00
                       1.0419607561E+01  5.3556821061E+00  9.8948892213E+00
                       5.3556821061E+00  1.0419607561E+01  9.8948892213E+00
                      -2.2403015615E-21  5.2344939114E-21 -2.0892151310E-20
            xcart3     5.2052842094E+00  5.2052842094E+00  4.9411567436E+00
                       1.5615852628E+01  1.5615852628E+01  1.4823470231E+01
                       1.0410568419E+01  1.0410568419E+01  4.8987714066E+00
                       1.0410568419E+01  1.0410568419E+01  1.4865855568E+01
                       1.5467595938E+01  1.0410568419E+01  9.8823134872E+00
                       1.0410568419E+01  1.5467595938E+01  9.8823134872E+00
                       1.0410568419E+01  5.3535408999E+00  9.8823134872E+00
                       5.3535408999E+00  1.0410568419E+01  9.8823134872E+00
                       9.7952925787E-21 -1.8016722910E-21  1.1620813892E-20
            xcart4     5.2005057085E+00  5.2005057085E+00  4.9353608351E+00
                       1.5601517125E+01  1.5601517125E+01  1.4806082505E+01
                       1.0401011417E+01  1.0401011417E+01  4.8975534201E+00
                       1.0401011417E+01  1.0401011417E+01  1.4843889920E+01
                       1.5450769494E+01  1.0401011417E+01  9.8707216701E+00
                       1.0401011417E+01  1.5450769494E+01  9.8707216701E+00
                       1.0401011417E+01  5.3512533398E+00  9.8707216701E+00
                       5.3512533398E+00  1.0401011417E+01  9.8707216701E+00
                      -2.9014363440E-21  7.1682663877E-21 -1.8638588345E-20
            xcart5     5.1956574818E+00  5.1956574818E+00  4.9296974518E+00
                       1.5586972445E+01  1.5586972445E+01  1.4789092356E+01
                       1.0391314964E+01  1.0391314964E+01  4.8961873215E+00
                       1.0391314963E+01  1.0391314963E+01  1.4822602486E+01
                       1.5433658544E+01  1.0391314964E+01  9.8593949037E+00
                       1.0391314964E+01  1.5433658544E+01  9.8593949037E+00
                       1.0391314963E+01  5.3489713832E+00  9.8593949037E+00
                       5.3489713832E+00  1.0391314963E+01  9.8593949037E+00
                      -3.3570723572E-21  7.9230929149E-21 -1.8391515612E-20
            xcart6     5.1910345733E+00  5.1910345733E+00  4.9236067728E+00
                       1.5573103720E+01  1.5573103720E+01  1.4770820318E+01
                       1.0382069147E+01  1.0382069147E+01  4.8947662372E+00
                       1.0382069146E+01  1.0382069146E+01  1.4799660854E+01
                       1.5417491172E+01  1.0382069147E+01  9.8472135456E+00
                       1.0382069147E+01  1.5417491172E+01  9.8472135456E+00
                       1.0382069146E+01  5.3466471211E+00  9.8472135456E+00
                       5.3466471211E+00  1.0382069146E+01  9.8472135456E+00
                      -3.5384822192E-21  7.8637370604E-21 -1.9228787537E-20
            xcart7     5.1863368689E+00  5.1863368689E+00  4.9176583267E+00
                       1.5559010607E+01  1.5559010607E+01  1.4752974980E+01
                       1.0372673738E+01  1.0372673738E+01  4.8934279047E+00
                       1.0372673738E+01  1.0372673738E+01  1.4777205402E+01
                       1.5400991480E+01  1.0372673738E+01  9.8353166534E+00
                       1.0372673738E+01  1.5400991480E+01  9.8353166534E+00
                       1.0372673738E+01  5.3443559961E+00  9.8353166534E+00
                       5.3443559961E+00  1.0372673738E+01  9.8353166534E+00
                      -3.1327108646E-21  6.2265143273E-21 -1.8150861338E-20
            xcart8     5.1815069793E+00  5.1815069793E+00  4.9119607914E+00
                       1.5544520938E+01  1.5544520938E+01  1.4735882374E+01
                       1.0363013959E+01  1.0363013959E+01  4.8920558256E+00
                       1.0363013959E+01  1.0363013959E+01  1.4755787340E+01
                       1.5383981824E+01  1.0363013959E+01  9.8239215828E+00
                       1.0363013959E+01  1.5383981824E+01  9.8239215828E+00
                       1.0363013959E+01  5.3420460931E+00  9.8239215828E+00
                       5.3420460931E+00  1.0363013959E+01  9.8239215828E+00
                      -1.0543421070E-20  1.3396111521E-20 -8.5751414384E-21
            xcart9     5.1767096820E+00  5.1767096820E+00  4.9062016469E+00
                       1.5530129046E+01  1.5530129046E+01  1.4718604941E+01
                       1.0353419364E+01  1.0353419364E+01  4.8906818726E+00
                       1.0353419364E+01  1.0353419364E+01  1.4734124715E+01
                       1.5367155101E+01  1.0353419364E+01  9.8124032939E+00
                       1.0353419364E+01  1.5367155101E+01  9.8124032939E+00
                       1.0353419364E+01  5.3396836269E+00  9.8124032939E+00
                       5.3396836269E+00  1.0353419364E+01  9.8124032939E+00
                      -1.6104168828E-20  1.9138048404E-20 -1.7341774972E-20
             xred1     2.5000000000E-01  2.5000000000E-01  2.5000000000E-01
                       7.5000000000E-01  7.5000000000E-01  7.5000000000E-01
                       2.4735344254E-01  2.4735344254E-01  7.5264655746E-01
                       7.5264655746E-01  7.5264655746E-01  2.4735344254E-01
                       2.5688935242E-01  7.4311064758E-01  7.4311064758E-01
                       7.4311064758E-01  2.5688935242E-01  7.4311064758E-01
                       2.5688935242E-01  7.4311064758E-01  2.5688935242E-01
                       7.4311064758E-01  2.5688935242E-01  2.5688935242E-01
                      -4.2722639981E-22 -1.5254871722E-21  1.1846608716E-21
             xred2     2.5000000000E-01  2.5000000000E-01  2.5000000000E-01
                       7.5000000000E-01  7.5000000000E-01  7.5000000000E-01
                       2.4761191324E-01  2.4761191324E-01  7.5238808676E-01
                       7.5238808676E-01  7.5238808676E-01  2.4761191324E-01
                       2.5700018330E-01  7.4299981670E-01  7.4299981670E-01
                       7.4299981670E-01  2.5700018330E-01  7.4299981670E-01
                       2.5700018330E-01  7.4299981670E-01  2.5700018330E-01
                       7.4299981670E-01  2.5700018330E-01  2.5700018330E-01
                      -6.9701523851E-22 -1.4143930696E-21  1.1993848221E-21
             xred3     2.5000000000E-01  2.5000000000E-01  2.5000000000E-01
                       7.5000000000E-01  7.5000000000E-01  7.5000000000E-01
                       2.4785549522E-01  2.4785549522E-01  7.5214450478E-01
                       7.5214450478E-01  7.5214450478E-01  2.4785549522E-01
                       2.5712048971E-01  7.4287951029E-01  7.4287951029E-01
                       7.4287951029E-01  2.5712048971E-01  7.4287951029E-01
                       2.5712048971E-01  7.4287951029E-01  2.5712048971E-01
                       7.4287951029E-01  2.5712048971E-01  2.5712048971E-01
                       3.0979805267E-23  1.1449405808E-21 -2.0404166112E-22
             xred4     2.5000000000E-01  2.5000000000E-01  2.5000000000E-01
                       7.5000000000E-01  7.5000000000E-01  7.5000000000E-01
                       2.4808487078E-01  2.4808487078E-01  7.5191512922E-01
                       7.5191512922E-01  7.5191512922E-01  2.4808487078E-01
                       2.5724677751E-01  7.4275322249E-01  7.4275322249E-01
                       7.4275322249E-01  2.5724677751E-01  7.4275322249E-01
                       2.5724677751E-01  7.4275322249E-01  2.5724677751E-01
                       7.4275322249E-01  2.5724677751E-01  2.5724677751E-01
                      -4.6006179061E-22 -1.4282082841E-21  1.1492511492E-21
             xred5     2.5000000000E-01  2.5000000000E-01  2.5000000000E-01
                       7.5000000000E-01  7.5000000000E-01  7.5000000000E-01
                       2.4830059904E-01  2.4830059904E-01  7.5169940096E-01
                       7.5169940096E-01  7.5169940096E-01  2.4830059904E-01
                       2.5737702119E-01  7.4262297881E-01  7.4262297881E-01
                       7.4262297881E-01  2.5737702119E-01  7.4262297881E-01
                       2.5737702119E-01  7.4262297881E-01  2.5737702119E-01
                       7.4262297881E-01  2.5737702119E-01  2.5737702119E-01
                      -3.8992097138E-22 -1.4754587798E-21  1.1523935692E-21
             xred6     2.5000000000E-01  2.5000000000E-01  2.5000000000E-01
                       7.5000000000E-01  7.5000000000E-01  7.5000000000E-01
                       2.4853559916E-01  2.4853559916E-01  7.5146440084E-01
                       7.5146440084E-01  7.5146440084E-01  2.4853559916E-01
                       2.5749429356E-01  7.4250570644E-01  7.4250570644E-01
                       7.4250570644E-01  2.5749429356E-01  7.4250570644E-01
                       2.5749429356E-01  7.4250570644E-01  2.5749429356E-01
                       7.4250570644E-01  2.5749429356E-01  2.5749429356E-01
                      -4.2722639981E-22 -1.5254871722E-21  1.1846608716E-21
             xred7     2.5000000000E-01  2.5000000000E-01  2.5000000000E-01
                       7.5000000000E-01  7.5000000000E-01  7.5000000000E-01
                       2.4876819309E-01  2.4876819309E-01  7.5123180691E-01
                       7.5123180691E-01  7.5123180691E-01  2.4876819309E-01
                       2.5761708751E-01  7.4238291249E-01  7.4238291249E-01
                       7.4238291249E-01  2.5761708751E-01  7.4238291249E-01
                       2.5761708751E-01  7.4238291249E-01  2.5761708751E-01
                       7.4238291249E-01  2.5761708751E-01  2.5761708751E-01
                      -4.7159088946E-22 -1.3738871950E-21  1.0718714424E-21
             xred8     2.5000000000E-01  2.5000000000E-01  2.5000000000E-01
                       7.5000000000E-01  7.5000000000E-01  7.5000000000E-01
                       2.4898691344E-01  2.4898691344E-01  7.5101308656E-01
                       7.5101308656E-01  7.5101308656E-01  2.4898691344E-01
                       2.5774577331E-01  7.4225422669E-01  7.4225422669E-01
                       7.4225422669E-01  2.5774577331E-01  7.4225422669E-01
                       2.5774577331E-01  7.4225422669E-01  2.5774577331E-01
                       7.4225422669E-01  2.5774577331E-01  2.5774577331E-01
                       7.1860494646E-22 -1.5914886891E-21  5.7407993983E-22
             xred9     2.5000000000E-01  2.5000000000E-01  2.5000000000E-01
                       7.5000000000E-01  7.5000000000E-01  7.5000000000E-01
                       2.4920917568E-01  2.4920917568E-01  7.5079082432E-01
                       7.5079082432E-01  7.5079082432E-01  2.4920917568E-01
                       2.5787053722E-01  7.4212946278E-01  7.4212946278E-01
                       7.4212946278E-01  2.5787053722E-01  7.4212946278E-01
                       2.5787053722E-01  7.4212946278E-01  2.5787053722E-01
                       7.4212946278E-01  2.5787053722E-01  2.5787053722E-01
                       8.1829425701E-22 -2.5856263216E-21  1.0301818581E-21
            znucl       55.00000   53.00000   40.00000   35.00000

================================================================================


- Timing analysis has been suppressed with timopt=0



================================================================================

 Suggested references for the acknowledgment of ABINIT usage.

 The users of ABINIT have little formal obligations with respect to the ABINIT group
 (those specified in the GNU General Public License, http://www.gnu.org/copyleft/gpl.txt).
 However, it is common practice in the scientific literature,
 to acknowledge the efforts of people that have made the research possible.
 In this spirit, please find below suggested citations of work written by ABINIT developers,
 corresponding to implementations inside of ABINIT that you have used in the present run.
 Note also that it will be of great value to readers of publications presenting these results,
 to read papers enabling them to understand the theoretical formalism and details
 of the ABINIT implementation.
 For information on why they are suggested, see also https://docs.abinit.org/theory/acknowledgments.
-
- [1] Implementation of the Projector Augmented-Wave Method in the ABINIT code.
- M. Torrent, F. Jollet, F. Bottin, G. Zerah, and X. Gonze Comput. Mat. Science 42, 337, (2008).
- Comment: PAW calculations. Strong suggestion to cite this paper.
- DOI and bibtex: see https://docs.abinit.org/theory/bibliography/#torrent2008
-
- [2] Libxc: A library of exchange and correlation functionals for density functional theory.
- M.A.L. Marques, M.J.T. Oliveira, T. Burnus, Computer Physics Communications 183, 2227 (2012).
- Comment: to be cited when LibXC is used (negative value of ixc)
- Strong suggestion to cite this paper.
- DOI and bibtex: see https://docs.abinit.org/theory/bibliography/#marques2012
-
- [3] The Abinit project: Impact, environment and recent developments.
- Computer Phys. Comm. 248, 107042 (2020).
- X.Gonze, B. Amadon, G. Antonius, F.Arnardi, L.Baguet, J.-M.Beuken,
- J.Bieder, F.Bottin, J.Bouchet, E.Bousquet, N.Brouwer, F.Bruneval,
- G.Brunin, T.Cavignac, J.-B. Charraud, Wei Chen, M.Cote, S.Cottenier,
- J.Denier, G.Geneste, Ph.Ghosez, M.Giantomassi, Y.Gillet, O.Gingras,
- D.R.Hamann, G.Hautier, Xu He, N.Helbig, N.Holzwarth, Y.Jia, F.Jollet,
- W.Lafargue-Dit-Hauret, K.Lejaeghere, M.A.L.Marques, A.Martin, C.Martins,
- H.P.C. Miranda, F.Naccarato, K. Persson, G.Petretto, V.Planes, Y.Pouillon,
- S.Prokhorenko, F.Ricci, G.-M.Rignanese, A.H.Romero, M.M.Schmitt, M.Torrent,
- M.J.van Setten, B.Van Troeye, M.J.Verstraete, G.Zerah and J.W.Zwanzig
- Comment: the fifth generic paper describing the ABINIT project.
- Note that a version of this paper, that is not formatted for Computer Phys. Comm. 
- is available at https://www.abinit.org/sites/default/files/ABINIT20.pdf .
- The licence allows the authors to put it on the Web.
- DOI and bibtex: see https://docs.abinit.org/theory/bibliography/#gonze2020
-
- [4] ABINIT: Overview, and focus on selected capabilities
- J. Chem. Phys. 152, 124102 (2020).
- A. Romero, D.C. Allan, B. Amadon, G. Antonius, T. Applencourt, L.Baguet,
- J.Bieder, F.Bottin, J.Bouchet, E.Bousquet, F.Bruneval,
- G.Brunin, D.Caliste, M.Cote,
- J.Denier, C. Dreyer, Ph.Ghosez, M.Giantomassi, Y.Gillet, O.Gingras,
- D.R.Hamann, G.Hautier, F.Jollet, G. Jomard,
- A.Martin, 
- H.P.C. Miranda, F.Naccarato, G.Petretto, N.A. Pike, V.Planes,
- S.Prokhorenko, T. Rangel, F.Ricci, G.-M.Rignanese, M.Royo, M.Stengel, M.Torrent,
- M.J.van Setten, B.Van Troeye, M.J.Verstraete, J.Wiktor, J.W.Zwanziger, and X.Gonze.
- Comment: a global overview of ABINIT, with focus on selected capabilities .
- Note that a version of this paper, that is not formatted for J. Chem. Phys 
- is available at https://www.abinit.org/sites/default/files/ABINIT20_JPC.pdf .
- The licence allows the authors to put it on the Web.
- DOI and bibtex: see https://docs.abinit.org/theory/bibliography/#romero2020
-
- [5] Recent developments in the ABINIT software package.
- Computer Phys. Comm. 205, 106 (2016).
- X.Gonze, F.Jollet, F.Abreu Araujo, D.Adams, B.Amadon, T.Applencourt,
- C.Audouze, J.-M.Beuken, J.Bieder, A.Bokhanchuk, E.Bousquet, F.Bruneval
- D.Caliste, M.Cote, F.Dahm, F.Da Pieve, M.Delaveau, M.Di Gennaro,
- B.Dorado, C.Espejo, G.Geneste, L.Genovese, A.Gerossier, M.Giantomassi,
- Y.Gillet, D.R.Hamann, L.He, G.Jomard, J.Laflamme Janssen, S.Le Roux,
- A.Levitt, A.Lherbier, F.Liu, I.Lukacevic, A.Martin, C.Martins,
- M.J.T.Oliveira, S.Ponce, Y.Pouillon, T.Rangel, G.-M.Rignanese,
- A.H.Romero, B.Rousseau, O.Rubel, A.A.Shukri, M.Stankovski, M.Torrent,
- M.J.Van Setten, B.Van Troeye, M.J.Verstraete, D.Waroquier, J.Wiktor,
- B.Xu, A.Zhou, J.W.Zwanziger.
- Comment: the fourth generic paper describing the ABINIT project.
- Note that a version of this paper, that is not formatted for Computer Phys. Comm. 
- is available at https://www.abinit.org/sites/default/files/ABINIT16.pdf .
- The licence allows the authors to put it on the Web.
- DOI and bibtex: see https://docs.abinit.org/theory/bibliography/#gonze2016
-
- Proc.   0 individual time (sec): cpu=      16217.8  wall=      16218.0

================================================================================

 Calculation completed.
.Delivered   0 WARNINGs and  90 COMMENTs to log file.
+Overall time at end (sec) : cpu=      97306.3  wall=      97307.7
