
.Version 9.2.2 of ABINIT 
.(MPI version, prepared for a x86_64_linux_gnu9.3 computer) 

.Copyright (C) 1998-2020 ABINIT group . 
 ABINIT comes with ABSOLUTELY NO WARRANTY.
 It is free software, and you are welcome to redistribute it
 under certain conditions (GNU General Public License,
 see ~abinit/COPYING or http://www.gnu.org/copyleft/gpl.txt).

 ABINIT is a project of the Universite Catholique de Louvain,
 Corning Inc. and other collaborators, see ~abinit/doc/developers/contributors.txt .
 Please read https://docs.abinit.org/theory/acknowledgments for suggested
 acknowledgments of the ABINIT effort.
 For more information, see https://www.abinit.org .

.Starting date : Tue 13 Sep 2022.
- ( at 13h46 )
  
- input  file    -> Cs2TiI6.in
- output file    -> Cs2TiI6.out
- root for input  files -> Cs2TiI6i
- root for output files -> Cs2TiI6o

- inpspheads : Reading pseudopotential header in XML form from 
-   ../../../Psps_for_tests/ATOMICDATA/Cs.GGA_PBE-JTH.xml
- inpspheads : Reading pseudopotential header in XML form from 
-   ../../../Psps_for_tests/ATOMICDATA/I.GGA_PBE-JTH.xml
- inpspheads : Reading pseudopotential header in XML form from 
-   ../../../Psps_for_tests/ATOMICDATA/Hf.GGA_PBE-JTH.xml

 DATASET    1 : space group Fm -3 m (#225); Bravais cF (face-center cubic)
================================================================================
 Values of the parameters that define the memory need for DATASET  1.
     intxc =       0    ionmov =       0      iscf =      17    lmnmax =      18
     lnmax =       6     mgfft =      54  mpssoang =       3    mqgrid =    3428
     natom =       9  nloc_mem =       2    nspden =       1   nspinor =       1
    nsppol =       1      nsym =      48    n1xccc =       1    ntypat =       3
    occopt =       1   xclevel =       2
-    mband =          42        mffmem =           1         mkmem =          37
       mpw =        6971          nfft =      157464          nkpt =         145
Pmy_natom=         3
 PAW method is used; the additional fine FFT grid is defined by:
   mgfftf=        90    nfftf =    729000
================================================================================
P This job should need less than                     388.659 Mbytes of memory.
  Rough estimation (10% accuracy) of disk space for files :
_ WF disk file :    647.789 Mbytes ; DEN or POT disk file :      5.564 Mbytes.
================================================================================


 DATASET    2 : space group Fm -3 m (#225); Bravais cF (face-center cubic)
================================================================================
 Values of the parameters that define the memory need for DATASET  2.
     intxc =       0    ionmov =       0      iscf =      17    lmnmax =      18
     lnmax =       6     mgfft =      54  mpssoang =       3    mqgrid =    3425
     natom =       9  nloc_mem =       2    nspden =       1   nspinor =       1
    nsppol =       1      nsym =      48    n1xccc =       1    ntypat =       3
    occopt =       1   xclevel =       2
-    mband =          42        mffmem =           1         mkmem =          37
       mpw =        6939          nfft =      157464          nkpt =         145
Pmy_natom=         3
 PAW method is used; the additional fine FFT grid is defined by:
   mgfftf=        90    nfftf =    729000
================================================================================
P This job should need less than                     387.822 Mbytes of memory.
  Rough estimation (10% accuracy) of disk space for files :
_ WF disk file :    644.816 Mbytes ; DEN or POT disk file :      5.564 Mbytes.
================================================================================


 DATASET    3 : space group Fm -3 m (#225); Bravais cF (face-center cubic)
================================================================================
 Values of the parameters that define the memory need for DATASET  3.
     intxc =       0    ionmov =       0      iscf =      17    lmnmax =      18
     lnmax =       6     mgfft =      54  mpssoang =       3    mqgrid =    3421
     natom =       9  nloc_mem =       2    nspden =       1   nspinor =       1
    nsppol =       1      nsym =      48    n1xccc =       1    ntypat =       3
    occopt =       1   xclevel =       2
-    mband =          42        mffmem =           1         mkmem =          37
       mpw =        6914          nfft =      157464          nkpt =         145
Pmy_natom=         3
 PAW method is used; the additional fine FFT grid is defined by:
   mgfftf=        90    nfftf =    729000
================================================================================
P This job should need less than                     387.171 Mbytes of memory.
  Rough estimation (10% accuracy) of disk space for files :
_ WF disk file :    642.493 Mbytes ; DEN or POT disk file :      5.564 Mbytes.
================================================================================


 DATASET    4 : space group Fm -3 m (#225); Bravais cF (face-center cubic)
================================================================================
 Values of the parameters that define the memory need for DATASET  4.
     intxc =       0    ionmov =       0      iscf =      17    lmnmax =      18
     lnmax =       6     mgfft =      54  mpssoang =       3    mqgrid =    3417
     natom =       9  nloc_mem =       2    nspden =       1   nspinor =       1
    nsppol =       1      nsym =      48    n1xccc =       1    ntypat =       3
    occopt =       1   xclevel =       2
-    mband =          42        mffmem =           1         mkmem =          37
       mpw =        6891          nfft =      157464          nkpt =         145
Pmy_natom=         3
 PAW method is used; the additional fine FFT grid is defined by:
   mgfftf=        90    nfftf =    729000
================================================================================
P This job should need less than                     386.574 Mbytes of memory.
  Rough estimation (10% accuracy) of disk space for files :
_ WF disk file :    640.355 Mbytes ; DEN or POT disk file :      5.564 Mbytes.
================================================================================


 DATASET    5 : space group Fm -3 m (#225); Bravais cF (face-center cubic)
================================================================================
 Values of the parameters that define the memory need for DATASET  5.
     intxc =       0    ionmov =       0      iscf =      17    lmnmax =      18
     lnmax =       6     mgfft =      54  mpssoang =       3    mqgrid =    3413
     natom =       9  nloc_mem =       2    nspden =       1   nspinor =       1
    nsppol =       1      nsym =      48    n1xccc =       1    ntypat =       3
    occopt =       1   xclevel =       2
-    mband =          42        mffmem =           1         mkmem =          37
       mpw =        6867          nfft =      157464          nkpt =         145
Pmy_natom=         3
 PAW method is used; the additional fine FFT grid is defined by:
   mgfftf=        90    nfftf =    729000
================================================================================
P This job should need less than                     385.950 Mbytes of memory.
  Rough estimation (10% accuracy) of disk space for files :
_ WF disk file :    638.125 Mbytes ; DEN or POT disk file :      5.564 Mbytes.
================================================================================


 DATASET    6 : space group Fm -3 m (#225); Bravais cF (face-center cubic)
================================================================================
 Values of the parameters that define the memory need for DATASET  6.
     intxc =       0    ionmov =       0      iscf =      17    lmnmax =      18
     lnmax =       6     mgfft =      54  mpssoang =       3    mqgrid =    3410
     natom =       9  nloc_mem =       2    nspden =       1   nspinor =       1
    nsppol =       1      nsym =      48    n1xccc =       1    ntypat =       3
    occopt =       1   xclevel =       2
-    mband =          42        mffmem =           1         mkmem =          37
       mpw =        6847          nfft =      157464          nkpt =         145
Pmy_natom=         3
 PAW method is used; the additional fine FFT grid is defined by:
   mgfftf=        90    nfftf =    729000
================================================================================
P This job should need less than                     385.434 Mbytes of memory.
  Rough estimation (10% accuracy) of disk space for files :
_ WF disk file :    636.266 Mbytes ; DEN or POT disk file :      5.564 Mbytes.
================================================================================


 DATASET    7 : space group Fm -3 m (#225); Bravais cF (face-center cubic)
================================================================================
 Values of the parameters that define the memory need for DATASET  7.
     intxc =       0    ionmov =       0      iscf =      17    lmnmax =      18
     lnmax =       6     mgfft =      54  mpssoang =       3    mqgrid =    3406
     natom =       9  nloc_mem =       2    nspden =       1   nspinor =       1
    nsppol =       1      nsym =      48    n1xccc =       1    ntypat =       3
    occopt =       1   xclevel =       2
-    mband =          42        mffmem =           1         mkmem =          37
       mpw =        6823          nfft =      157464          nkpt =         145
Pmy_natom=         3
 PAW method is used; the additional fine FFT grid is defined by:
   mgfftf=        90    nfftf =    729000
================================================================================
P This job should need less than                     384.810 Mbytes of memory.
  Rough estimation (10% accuracy) of disk space for files :
_ WF disk file :    634.036 Mbytes ; DEN or POT disk file :      5.564 Mbytes.
================================================================================


 DATASET    8 : space group Fm -3 m (#225); Bravais cF (face-center cubic)
================================================================================
 Values of the parameters that define the memory need for DATASET  8.
     intxc =       0    ionmov =       0      iscf =      17    lmnmax =      18
     lnmax =       6     mgfft =      54  mpssoang =       3    mqgrid =    3402
     natom =       9  nloc_mem =       2    nspden =       1   nspinor =       1
    nsppol =       1      nsym =      48    n1xccc =       1    ntypat =       3
    occopt =       1   xclevel =       2
-    mband =          42        mffmem =           1         mkmem =          37
       mpw =        6811          nfft =      157464          nkpt =         145
Pmy_natom=         3
 PAW method is used; the additional fine FFT grid is defined by:
   mgfftf=        90    nfftf =    729000
================================================================================
P This job should need less than                     384.506 Mbytes of memory.
  Rough estimation (10% accuracy) of disk space for files :
_ WF disk file :    632.921 Mbytes ; DEN or POT disk file :      5.564 Mbytes.
================================================================================


 DATASET    9 : space group Fm -3 m (#225); Bravais cF (face-center cubic)
================================================================================
 Values of the parameters that define the memory need for DATASET  9.
     intxc =       0    ionmov =       0      iscf =      17    lmnmax =      18
     lnmax =       6     mgfft =      54  mpssoang =       3    mqgrid =    3399
     natom =       9  nloc_mem =       2    nspden =       1   nspinor =       1
    nsppol =       1      nsym =      48    n1xccc =       1    ntypat =       3
    occopt =       1   xclevel =       2
-    mband =          42        mffmem =           1         mkmem =          37
       mpw =        6811          nfft =      157464          nkpt =         145
Pmy_natom=         3
 PAW method is used; the additional fine FFT grid is defined by:
   mgfftf=        90    nfftf =    729000
================================================================================
P This job should need less than                     384.523 Mbytes of memory.
  Rough estimation (10% accuracy) of disk space for files :
_ WF disk file :    632.921 Mbytes ; DEN or POT disk file :      5.564 Mbytes.
================================================================================

--------------------------------------------------------------------------------
------------- Echo of variables that govern the present computation ------------
--------------------------------------------------------------------------------
-
- outvars: echo of selected default values                                      
-   iomode0 =  0 , fftalg0 =112 , wfoptalg0 = 10
-
- outvars: echo of global parameters not present in the input file              
-  max_nthreads =    0
-
 -outvars: echo values of preprocessed input variables --------
            acell      1.6045663836E+01  1.6045663836E+01  1.6045663836E+01 Bohr
              amu      1.32905430E+02  1.26904470E+02  1.78490000E+02
           diemac      1.20000000E+01
             ecut      1.60000000E+01 Hartree
-          fftalg         112
           istwfk        2    0    0    0    0    0    0    0    3    0
                         0    0    0    0    0    0    0    0    0    0
                         0    0    0    0    0    0    0    0    0    0
                         0    0    0    0    0    0    0    0    0    0
                         0    0    0    0    0    0    0    0    0    0
                       outvar_i_n : Printing only first  50 k-points.
              ixc     -101130
           jdtset        1    2    3    4    5    6    7    8    9
              kpt      0.00000000E+00  0.00000000E+00  0.00000000E+00
                       6.25000000E-02  0.00000000E+00  0.00000000E+00
                       1.25000000E-01  0.00000000E+00  0.00000000E+00
                       1.87500000E-01  0.00000000E+00  0.00000000E+00
                       2.50000000E-01  0.00000000E+00  0.00000000E+00
                       3.12500000E-01  0.00000000E+00  0.00000000E+00
                       3.75000000E-01  0.00000000E+00  0.00000000E+00
                       4.37500000E-01  0.00000000E+00  0.00000000E+00
                       5.00000000E-01  0.00000000E+00  0.00000000E+00
                       6.25000000E-02  6.25000000E-02  0.00000000E+00
                       1.25000000E-01  6.25000000E-02  0.00000000E+00
                       1.87500000E-01  6.25000000E-02  0.00000000E+00
                       2.50000000E-01  6.25000000E-02  0.00000000E+00
                       3.12500000E-01  6.25000000E-02  0.00000000E+00
                       3.75000000E-01  6.25000000E-02  0.00000000E+00
                       4.37500000E-01  6.25000000E-02  0.00000000E+00
                       5.00000000E-01  6.25000000E-02  0.00000000E+00
                      -4.37500000E-01  6.25000000E-02  0.00000000E+00
                      -3.75000000E-01  6.25000000E-02  0.00000000E+00
                      -3.12500000E-01  6.25000000E-02  0.00000000E+00
                      -2.50000000E-01  6.25000000E-02  0.00000000E+00
                      -1.87500000E-01  6.25000000E-02  0.00000000E+00
                      -1.25000000E-01  6.25000000E-02  0.00000000E+00
                      -6.25000000E-02  6.25000000E-02  0.00000000E+00
                       1.25000000E-01  1.25000000E-01  0.00000000E+00
                       1.87500000E-01  1.25000000E-01  0.00000000E+00
                       2.50000000E-01  1.25000000E-01  0.00000000E+00
                       3.12500000E-01  1.25000000E-01  0.00000000E+00
                       3.75000000E-01  1.25000000E-01  0.00000000E+00
                       4.37500000E-01  1.25000000E-01  0.00000000E+00
                       5.00000000E-01  1.25000000E-01  0.00000000E+00
                      -4.37500000E-01  1.25000000E-01  0.00000000E+00
                      -3.75000000E-01  1.25000000E-01  0.00000000E+00
                      -3.12500000E-01  1.25000000E-01  0.00000000E+00
                      -2.50000000E-01  1.25000000E-01  0.00000000E+00
                      -1.87500000E-01  1.25000000E-01  0.00000000E+00
                      -1.25000000E-01  1.25000000E-01  0.00000000E+00
                       1.87500000E-01  1.87500000E-01  0.00000000E+00
                       2.50000000E-01  1.87500000E-01  0.00000000E+00
                       3.12500000E-01  1.87500000E-01  0.00000000E+00
                       3.75000000E-01  1.87500000E-01  0.00000000E+00
                       4.37500000E-01  1.87500000E-01  0.00000000E+00
                       5.00000000E-01  1.87500000E-01  0.00000000E+00
                      -4.37500000E-01  1.87500000E-01  0.00000000E+00
                      -3.75000000E-01  1.87500000E-01  0.00000000E+00
                      -3.12500000E-01  1.87500000E-01  0.00000000E+00
                      -2.50000000E-01  1.87500000E-01  0.00000000E+00
                      -1.87500000E-01  1.87500000E-01  0.00000000E+00
                       2.50000000E-01  2.50000000E-01  0.00000000E+00
                       3.12500000E-01  2.50000000E-01  0.00000000E+00
                       outvar_i_n : Printing only first  50 k-points.
         kptrlatt       16    0    0      0   16    0      0    0   16
          kptrlen1     2.35935441E+02
          kptrlen2     2.35678710E+02
          kptrlen3     2.35421980E+02
          kptrlen4     2.35165249E+02
          kptrlen5     2.34908519E+02
          kptrlen6     2.34651788E+02
          kptrlen7     2.34395057E+02
          kptrlen8     2.34138327E+02
          kptrlen9     2.33881596E+02
P           mkmem          37
            natom           9
            nband          42
           ndtset           9
            ngfft          54      54      54
          ngfftdg          90      90      90
             nkpt         145
            nstep        2500
             nsym          48
           ntypat           3
              occ      2.000000  2.000000  2.000000  2.000000  2.000000  2.000000
                       2.000000  2.000000  2.000000  2.000000  2.000000  2.000000
                       2.000000  2.000000  2.000000  2.000000  2.000000  2.000000
                       2.000000  2.000000  2.000000  2.000000  2.000000  2.000000
                       2.000000  2.000000  2.000000  2.000000  2.000000  2.000000
                       2.000000  2.000000  2.000000  2.000000  2.000000  2.000000
                       0.000000  0.000000  0.000000  0.000000  0.000000  0.000000
        pawecutdg      4.00000000E+01 Hartree
            prtwf           0
            rprim1     0.0000000000E+00  6.4983113191E-01  6.4983113191E-01
                       6.4983113191E-01  0.0000000000E+00  6.4983113191E-01
                       6.4983113191E-01  6.4983113191E-01  0.0000000000E+00
            rprim2     0.0000000000E+00  6.4912402513E-01  6.4912402513E-01
                       6.4912402513E-01  0.0000000000E+00  6.4912402513E-01
                       6.4912402513E-01  6.4912402513E-01  0.0000000000E+00
            rprim3     0.0000000000E+00  6.4841691835E-01  6.4841691835E-01
                       6.4841691835E-01  0.0000000000E+00  6.4841691835E-01
                       6.4841691835E-01  6.4841691835E-01  0.0000000000E+00
            rprim4     0.0000000000E+00  6.4770981157E-01  6.4770981157E-01
                       6.4770981157E-01  0.0000000000E+00  6.4770981157E-01
                       6.4770981157E-01  6.4770981157E-01  0.0000000000E+00
            rprim5     0.0000000000E+00  6.4700270479E-01  6.4700270479E-01
                       6.4700270479E-01  0.0000000000E+00  6.4700270479E-01
                       6.4700270479E-01  6.4700270479E-01  0.0000000000E+00
            rprim6     0.0000000000E+00  6.4629559801E-01  6.4629559801E-01
                       6.4629559801E-01  0.0000000000E+00  6.4629559801E-01
                       6.4629559801E-01  6.4629559801E-01  0.0000000000E+00
            rprim7     0.0000000000E+00  6.4558849123E-01  6.4558849123E-01
                       6.4558849123E-01  0.0000000000E+00  6.4558849123E-01
                       6.4558849123E-01  6.4558849123E-01  0.0000000000E+00
            rprim8     0.0000000000E+00  6.4488138445E-01  6.4488138445E-01
                       6.4488138445E-01  0.0000000000E+00  6.4488138445E-01
                       6.4488138445E-01  6.4488138445E-01  0.0000000000E+00
            rprim9     0.0000000000E+00  6.4417427766E-01  6.4417427766E-01
                       6.4417427766E-01  0.0000000000E+00  6.4417427766E-01
                       6.4417427766E-01  6.4417427766E-01  0.0000000000E+00
          spgroup         225
           symrel      1  0  0   0  1  0   0  0  1      -1  0  0   0 -1  0   0  0 -1
                       0 -1  1   0 -1  0   1 -1  0       0  1 -1   0  1  0  -1  1  0
                      -1  0  0  -1  0  1  -1  1  0       1  0  0   1  0 -1   1 -1  0
                       0  1 -1   1  0 -1   0  0 -1       0 -1  1  -1  0  1   0  0  1
                      -1  0  0  -1  1  0  -1  0  1       1  0  0   1 -1  0   1  0 -1
                       0 -1  1   1 -1  0   0 -1  0       0  1 -1  -1  1  0   0  1  0
                       1  0  0   0  0  1   0  1  0      -1  0  0   0  0 -1   0 -1  0
                       0  1 -1   0  0 -1   1  0 -1       0 -1  1   0  0  1  -1  0  1
                      -1  0  1  -1  1  0  -1  0  0       1  0 -1   1 -1  0   1  0  0
                       0 -1  0   1 -1  0   0 -1  1       0  1  0  -1  1  0   0  1 -1
                       1  0 -1   0  0 -1   0  1 -1      -1  0  1   0  0  1   0 -1  1
                       0  1  0   0  0  1   1  0  0       0 -1  0   0  0 -1  -1  0  0
                       1  0 -1   0  1 -1   0  0 -1      -1  0  1   0 -1  1   0  0  1
                       0 -1  0   0 -1  1   1 -1  0       0  1  0   0  1 -1  -1  1  0
                      -1  0  1  -1  0  0  -1  1  0       1  0 -1   1  0  0   1 -1  0
                       0  1  0   1  0  0   0  0  1       0 -1  0  -1  0  0   0  0 -1
                       0  0 -1   0  1 -1   1  0 -1       0  0  1   0 -1  1  -1  0  1
                       1 -1  0   0 -1  1   0 -1  0      -1  1  0   0  1 -1   0  1  0
                       0  0  1   1  0  0   0  1  0       0  0 -1  -1  0  0   0 -1  0
                      -1  1  0  -1  0  0  -1  0  1       1 -1  0   1  0  0   1  0 -1
                       0  0  1   0  1  0   1  0  0       0  0 -1   0 -1  0  -1  0  0
                       1 -1  0   0 -1  0   0 -1  1      -1  1  0   0  1  0   0  1 -1
                       0  0 -1   1  0 -1   0  1 -1       0  0  1  -1  0  1   0 -1  1
                      -1  1  0  -1  0  1  -1  0  0       1 -1  0   1  0 -1   1  0  0
           toldfe      1.00000000E-08 Hartree
            typat      1  1  2  2  2  2  2  2  3
           useylm           1
              wtk        0.00024    0.00195    0.00195    0.00195    0.00195    0.00195
                         0.00195    0.00195    0.00098    0.00146    0.00586    0.00586
                         0.00586    0.00586    0.00586    0.00586    0.00586    0.00586
                         0.00586    0.00586    0.00586    0.00586    0.00586    0.00293
                         0.00146    0.00586    0.00586    0.00586    0.00586    0.00586
                         0.00586    0.00586    0.00586    0.00586    0.00586    0.00586
                         0.00293    0.00146    0.00586    0.00586    0.00586    0.00586
                         0.00586    0.00586    0.00586    0.00586    0.00586    0.00293
                         0.00146    0.00586
                       outvars : Printing only first  50 k-points.
           xangst1     2.7588579402E+00  2.7588579402E+00  2.7588579402E+00
                       8.2765738205E+00  8.2765738205E+00  8.2765738205E+00
                       5.5177158803E+00  8.2305114599E+00  5.5177158803E+00
                       5.5177158803E+00  5.5177158803E+00  2.8049203007E+00
                       5.5177158803E+00  5.5177158803E+00  8.2305114599E+00
                       5.5177158803E+00  2.8049203007E+00  5.5177158803E+00
                       8.2305114599E+00  5.5177158803E+00  5.5177158803E+00
                       2.8049203007E+00  5.5177158803E+00  5.5177158803E+00
                      -2.1643694670E-18 -3.7841043650E-18 -4.1743297593E-19
           xangst2     2.7558559185E+00  2.7558559185E+00  2.7558559185E+00
                       8.2675677554E+00  8.2675677554E+00  8.2675677554E+00
                       5.5117118369E+00  8.2197450248E+00  5.5117118369E+00
                       5.5117118369E+00  5.5117118369E+00  2.8036786490E+00
                       5.5117118369E+00  5.5117118369E+00  8.2197450248E+00
                       5.5117118369E+00  2.8036786490E+00  5.5117118369E+00
                       8.2197450248E+00  5.5117118369E+00  5.5117118369E+00
                       2.8036786490E+00  5.5117118369E+00  5.5117118369E+00
                      -2.2796719799E-18 -3.7528935370E-18 -2.0363112309E-19
           xangst3     2.7528538968E+00  2.7528538968E+00  2.7528538968E+00
                       8.2585616903E+00  8.2585616903E+00  8.2585616903E+00
                       5.5057077935E+00  8.2089883081E+00  5.5057077935E+00
                       5.5057077935E+00  5.5057077935E+00  2.8024272789E+00
                       5.5057077935E+00  5.5057077935E+00  8.2089883081E+00
                       5.5057077935E+00  2.8024272789E+00  5.5057077935E+00
                       8.2089883081E+00  5.5057077935E+00  5.5057077935E+00
                       2.8024272789E+00  5.5057077935E+00  5.5057077935E+00
                      -2.6091444020E-18 -3.7414756731E-18 -3.6242258196E-19
           xangst4     2.7498518751E+00  2.7498518751E+00  2.7498518751E+00
                       8.2495556252E+00  8.2495556252E+00  8.2495556252E+00
                       5.4997037501E+00  8.1982285480E+00  5.4997037501E+00
                       5.4997037501E+00  5.4997037501E+00  2.8011789522E+00
                       5.4997037501E+00  5.4997037501E+00  8.1982285480E+00
                       5.4997037501E+00  2.8011789522E+00  5.4997037501E+00
                       8.1982285480E+00  5.4997037501E+00  5.4997037501E+00
                       2.8011789522E+00  5.4997037501E+00  5.4997037501E+00
                      -2.5612168269E-18 -4.0021750726E-18  4.8874468228E-19
           xangst5     2.7468498534E+00  2.7468498534E+00  2.7468498534E+00
                       8.2405495601E+00  8.2405495601E+00  8.2405495601E+00
                       5.4936997067E+00  8.1874855279E+00  5.4936997067E+00
                       5.4936997067E+00  5.4936997067E+00  2.7999138856E+00
                       5.4936997067E+00  5.4936997067E+00  8.1874855279E+00
                       5.4936997067E+00  2.7999138856E+00  5.4936997067E+00
                       8.1874855279E+00  5.4936997067E+00  5.4936997067E+00
                       2.7999138856E+00  5.4936997067E+00  5.4936997067E+00
                      -2.2732648308E-18 -3.7395695993E-18 -2.0405294237E-19
           xangst6     2.7438478317E+00  2.7438478317E+00  2.7438478317E+00
                       8.2315434950E+00  8.2315434950E+00  8.2315434950E+00
                       5.4876956633E+00  8.1767787014E+00  5.4876956633E+00
                       5.4876956633E+00  5.4876956633E+00  2.7986126253E+00
                       5.4876956633E+00  5.4876956633E+00  8.1767787014E+00
                       5.4876956633E+00  2.7986126253E+00  5.4876956633E+00
                       8.1767787014E+00  5.4876956633E+00  5.4876956633E+00
                       2.7986126253E+00  5.4876956633E+00  5.4876956633E+00
                      -2.2695299179E-18 -3.7360820651E-18 -2.0288671004E-19
           xangst7     2.7408458100E+00  2.7408458100E+00  2.7408458100E+00
                       8.2225374299E+00  8.2225374299E+00  8.2225374299E+00
                       5.4816916199E+00  8.1660820283E+00  5.4816916199E+00
                       5.4816916199E+00  5.4816916199E+00  2.7973012116E+00
                       5.4816916199E+00  5.4816916199E+00  8.1660820283E+00
                       5.4816916199E+00  2.7973012116E+00  5.4816916199E+00
                       8.1660820283E+00  5.4816916199E+00  5.4816916199E+00
                       2.7973012116E+00  5.4816916199E+00  5.4816916199E+00
                      -2.2316335520E-18 -3.5529415049E-18 -1.9356371705E-19
           xangst8     2.7378437883E+00  2.7378437883E+00  2.7378437883E+00
                       8.2135313648E+00  8.2135313648E+00  8.2135313648E+00
                       5.4756875765E+00  8.1554567917E+00  5.4756875765E+00
                       5.4756875765E+00  5.4756875765E+00  2.7959183613E+00
                       5.4756875765E+00  5.4756875765E+00  8.1554567917E+00
                       5.4756875765E+00  2.7959183613E+00  5.4756875765E+00
                       8.1554567917E+00  5.4756875765E+00  5.4756875765E+00
                       2.7959183613E+00  5.4756875765E+00  5.4756875765E+00
                      -1.9781097303E-18 -3.8109225251E-18 -3.3356357730E-19
           xangst9     2.7348417666E+00  2.7348417666E+00  2.7348417666E+00
                       8.2045252997E+00  8.2045252997E+00  8.2045252997E+00
                       5.4696835331E+00  8.1447742620E+00  5.4696835331E+00
                       5.4696835331E+00  5.4696835331E+00  2.7945928043E+00
                       5.4696835331E+00  5.4696835331E+00  8.1447742620E+00
                       5.4696835331E+00  2.7945928043E+00  5.4696835331E+00
                       8.1447742620E+00  5.4696835331E+00  5.4696835331E+00
                       2.7945928043E+00  5.4696835331E+00  5.4696835331E+00
                      -2.2922732869E-18 -3.7319434697E-18 -1.9362964355E-19
            xcart1     5.2134859464E+00  5.2134859464E+00  5.2134859464E+00
                       1.5640457839E+01  1.5640457839E+01  1.5640457839E+01
                       1.0426971893E+01  1.5553412593E+01  1.0426971893E+01
                       1.0426971893E+01  1.0426971893E+01  5.3005311928E+00
                       1.0426971893E+01  1.0426971893E+01  1.5553412593E+01
                       1.0426971893E+01  5.3005311928E+00  1.0426971893E+01
                       1.5553412593E+01  1.0426971893E+01  1.0426971893E+01
                       5.3005311928E+00  1.0426971893E+01  1.0426971893E+01
                      -4.0900655430E-18 -7.1509209081E-18 -7.8883400334E-19
            xcart2     5.2078129476E+00  5.2078129476E+00  5.2078129476E+00
                       1.5623438843E+01  1.5623438843E+01  1.5623438843E+01
                       1.0415625895E+01  1.5533066979E+01  1.0415625895E+01
                       1.0415625895E+01  1.0415625895E+01  5.2981848112E+00
                       1.0415625895E+01  1.0415625895E+01  1.5533066979E+01
                       1.0415625895E+01  5.2981848112E+00  1.0415625895E+01
                       1.5533066979E+01  1.0415625895E+01  1.0415625895E+01
                       5.2981848112E+00  1.0415625895E+01  1.0415625895E+01
                      -4.3079557147E-18 -7.0919409908E-18 -3.8480705477E-19
            xcart3     5.2021399487E+00  5.2021399487E+00  5.2021399487E+00
                       1.5606419846E+01  1.5606419846E+01  1.5606419846E+01
                       1.0404279897E+01  1.5512739730E+01  1.0404279897E+01
                       1.0404279897E+01  1.0404279897E+01  5.2958200645E+00
                       1.0404279897E+01  1.0404279897E+01  1.5512739730E+01
                       1.0404279897E+01  5.2958200645E+00  1.0404279897E+01
                       1.5512739730E+01  1.0404279897E+01  1.0404279897E+01
                       5.2958200645E+00  1.0404279897E+01  1.0404279897E+01
                      -4.9305683609E-18 -7.0703643549E-18 -6.8487942427E-19
            xcart4     5.1964669499E+00  5.1964669499E+00  5.1964669499E+00
                       1.5589400850E+01  1.5589400850E+01  1.5589400850E+01
                       1.0392933900E+01  1.5492406731E+01  1.0392933900E+01
                       1.0392933900E+01  1.0392933900E+01  5.2934610689E+00
                       1.0392933900E+01  1.0392933900E+01  1.5492406731E+01
                       1.0392933900E+01  5.2934610689E+00  1.0392933900E+01
                       1.5492406731E+01  1.0392933900E+01  1.0392933900E+01
                       5.2934610689E+00  1.0392933900E+01  1.0392933900E+01
                      -4.8399983698E-18 -7.5630148231E-18  9.2359359840E-19
            xcart5     5.1907939510E+00  5.1907939510E+00  5.1907939510E+00
                       1.5572381853E+01  1.5572381853E+01  1.5572381853E+01
                       1.0381587902E+01  1.5472105365E+01  1.0381587902E+01
                       1.0381587902E+01  1.0381587902E+01  5.2910704394E+00
                       1.0381587902E+01  1.0381587902E+01  1.5472105365E+01
                       1.0381587902E+01  5.2910704394E+00  1.0381587902E+01
                       1.5472105365E+01  1.0381587902E+01  1.0381587902E+01
                       5.2910704394E+00  1.0381587902E+01  1.0381587902E+01
                      -4.2958479577E-18 -7.0667623976E-18 -3.8560417769E-19
            xcart6     5.1851209522E+00  5.1851209522E+00  5.1851209522E+00
                       1.5555362856E+01  1.5555362856E+01  1.5555362856E+01
                       1.0370241904E+01  1.5451872395E+01  1.0370241904E+01
                       1.0370241904E+01  1.0370241904E+01  5.2886114138E+00
                       1.0370241904E+01  1.0370241904E+01  1.5451872395E+01
                       1.0370241904E+01  5.2886114138E+00  1.0370241904E+01
                       1.5451872395E+01  1.0370241904E+01  1.0370241904E+01
                       5.2886114138E+00  1.0370241904E+01  1.0370241904E+01
                      -4.2887899953E-18 -7.0601719129E-18 -3.8340031798E-19
            xcart7     5.1794479533E+00  5.1794479533E+00  5.1794479533E+00
                       1.5538343860E+01  1.5538343860E+01  1.5538343860E+01
                       1.0358895907E+01  1.5431658612E+01  1.0358895907E+01
                       1.0358895907E+01  1.0358895907E+01  5.2861332011E+00
                       1.0358895907E+01  1.0358895907E+01  1.5431658612E+01
                       1.0358895907E+01  5.2861332011E+00  1.0358895907E+01
                       1.5431658612E+01  1.0358895907E+01  1.0358895907E+01
                       5.2861332011E+00  1.0358895907E+01  1.0358895907E+01
                      -4.2171762423E-18 -6.7140864105E-18 -3.6578241450E-19
            xcart8     5.1737749545E+00  5.1737749545E+00  5.1737749545E+00
                       1.5521324863E+01  1.5521324863E+01  1.5521324863E+01
                       1.0347549909E+01  1.5411579825E+01  1.0347549909E+01
                       1.0347549909E+01  1.0347549909E+01  5.2835199928E+00
                       1.0347549909E+01  1.0347549909E+01  1.5411579825E+01
                       1.0347549909E+01  5.2835199928E+00  1.0347549909E+01
                       1.5411579825E+01  1.0347549909E+01  1.0347549909E+01
                       5.2835199928E+00  1.0347549909E+01  1.0347549909E+01
                      -3.7380856511E-18 -7.2015998862E-18 -6.3034380901E-19
            xcart9     5.1681019556E+00  5.1681019556E+00  5.1681019556E+00
                       1.5504305867E+01  1.5504305867E+01  1.5504305867E+01
                       1.0336203911E+01  1.5391392769E+01  1.0336203911E+01
                       1.0336203911E+01  1.0336203911E+01  5.2810150531E+00
                       1.0336203911E+01  1.0336203911E+01  1.5391392769E+01
                       1.0336203911E+01  5.2810150531E+00  1.0336203911E+01
                       1.5391392769E+01  1.0336203911E+01  1.0336203911E+01
                       5.2810150531E+00  1.0336203911E+01  1.0336203911E+01
                      -4.3317687340E-18 -7.0523511011E-18 -3.6590699752E-19
             xred1     2.5000000000E-01  2.5000000000E-01  2.5000000000E-01
                       7.5000000000E-01  7.5000000000E-01  7.5000000000E-01
                       7.4582595756E-01  2.5417404244E-01  7.4582595756E-01
                       2.5417404244E-01  2.5417404244E-01  7.4582595756E-01
                       7.4582595756E-01  7.4582595756E-01  2.5417404244E-01
                       2.5417404244E-01  7.4582595756E-01  2.5417404244E-01
                       2.5417404244E-01  7.4582595756E-01  7.4582595756E-01
                       7.4582595756E-01  2.5417404244E-01  2.5417404244E-01
                      -1.8460246215E-19  1.0894924169E-19 -5.0120747208E-19
             xred2     2.5000000000E-01  2.5000000000E-01  2.5000000000E-01
                       7.5000000000E-01  7.5000000000E-01  7.5000000000E-01
                       7.4566171709E-01  2.5433828291E-01  7.4566171709E-01
                       2.5433828291E-01  2.5433828291E-01  7.4566171709E-01
                       7.4566171709E-01  7.4566171709E-01  2.5433828291E-01
                       2.5433828291E-01  7.4566171709E-01  2.5433828291E-01
                       2.5433828291E-01  7.4566171709E-01  7.4566171709E-01
                       7.4566171709E-01  2.5433828291E-01  2.5433828291E-01
                      -1.5211723053E-19  1.1517206193E-19 -5.2877713551E-19
             xred3     2.5000000000E-01  2.5000000000E-01  2.5000000000E-01
                       7.5000000000E-01  7.5000000000E-01  7.5000000000E-01
                       7.4549800098E-01  2.5450199902E-01  7.4549800098E-01
                       2.5450199902E-01  2.5450199902E-01  7.4549800098E-01
                       7.4549800098E-01  7.4549800098E-01  2.5450199902E-01
                       2.5450199902E-01  7.4549800098E-01  2.5450199902E-01
                       2.5450199902E-01  7.4549800098E-01  7.4549800098E-01
                       7.4549800098E-01  2.5450199902E-01  2.5450199902E-01
                      -1.3574583951E-19  6.9919138285E-20 -5.4381722729E-19
             xred4     2.5000000000E-01  2.5000000000E-01  2.5000000000E-01
                       7.5000000000E-01  7.5000000000E-01  7.5000000000E-01
                       7.4533365073E-01  2.5466634927E-01  7.4533365073E-01
                       2.5466634927E-01  2.5466634927E-01  7.4533365073E-01
                       7.4533365073E-01  7.4533365073E-01  2.5466634927E-01
                       2.5466634927E-01  7.4533365073E-01  2.5466634927E-01
                       2.5466634927E-01  7.4533365073E-01  7.4533365073E-01
                       7.4533365073E-01  2.5466634927E-01  2.5466634927E-01
                      -8.6569532353E-20  1.7543698858E-19 -6.4113785962E-19
             xred5     2.5000000000E-01  2.5000000000E-01  2.5000000000E-01
                       7.5000000000E-01  7.5000000000E-01  7.5000000000E-01
                       7.4517046480E-01  2.5482953520E-01  7.4517046480E-01
                       2.5482953520E-01  2.5482953520E-01  7.4517046480E-01
                       7.4517046480E-01  7.4517046480E-01  2.5482953520E-01
                       2.5482953520E-01  7.4517046480E-01  2.5482953520E-01
                       2.5482953520E-01  7.4517046480E-01  7.4517046480E-01
                       7.4517046480E-01  2.5482953520E-01  2.5482953520E-01
                      -1.5202484665E-19  1.1488176398E-19 -5.2867664760E-19
             xred6     2.5000000000E-01  2.5000000000E-01  2.5000000000E-01
                       7.5000000000E-01  7.5000000000E-01  7.5000000000E-01
                       7.4501021950E-01  2.5498978050E-01  7.4501021950E-01
                       2.5498978050E-01  2.5498978050E-01  7.4501021950E-01
                       7.4501021950E-01  7.4501021950E-01  2.5498978050E-01
                       2.5498978050E-01  7.4501021950E-01  2.5498978050E-01
                       2.5498978050E-01  7.4501021950E-01  7.4501021950E-01
                       7.4501021950E-01  2.5498978050E-01  2.5498978050E-01
                      -1.5210745635E-19  1.1513625341E-19 -5.2870326900E-19
             xred7     2.5000000000E-01  2.5000000000E-01  2.5000000000E-01
                       7.5000000000E-01  7.5000000000E-01  7.5000000000E-01
                       7.4485054929E-01  2.5514945071E-01  7.4485054929E-01
                       2.5514945071E-01  2.5514945071E-01  7.4485054929E-01
                       7.4485054929E-01  7.4485054929E-01  2.5514945071E-01
                       2.5514945071E-01  7.4485054929E-01  2.5514945071E-01
                       2.5514945071E-01  7.4485054929E-01  7.4485054929E-01
                       7.4485054929E-01  2.5514945071E-01  2.5514945071E-01
                      -1.3817556468E-19  1.0286461863E-19 -5.0997134895E-19
             xred8     2.5000000000E-01  2.5000000000E-01  2.5000000000E-01
                       7.5000000000E-01  7.5000000000E-01  7.5000000000E-01
                       7.4469705199E-01  2.5530294801E-01  7.4469705199E-01
                       2.5530294801E-01  2.5530294801E-01  7.4469705199E-01
                       7.4469705199E-01  7.4469705199E-01  2.5530294801E-01
                       2.5530294801E-01  7.4469705199E-01  2.5530294801E-01
                       2.5530294801E-01  7.4469705199E-01  7.4469705199E-01
                       7.4469705199E-01  2.5530294801E-01  2.5530294801E-01
                      -1.9781774817E-19  1.3690054414E-19 -4.9815375712E-19
             xred9     2.5000000000E-01  2.5000000000E-01  2.5000000000E-01
                       7.5000000000E-01  7.5000000000E-01  7.5000000000E-01
                       7.4453798036E-01  2.5546201964E-01  7.4453798036E-01
                       2.5546201964E-01  2.5546201964E-01  7.4453798036E-01
                       7.4453798036E-01  7.4453798036E-01  2.5546201964E-01
                       2.5546201964E-01  7.4453798036E-01  2.5546201964E-01
                       2.5546201964E-01  7.4453798036E-01  7.4453798036E-01
                       7.4453798036E-01  2.5546201964E-01  2.5546201964E-01
                      -1.4930478303E-19  1.1390426262E-19 -5.3299126702E-19
            znucl       55.00000   53.00000   72.00000

================================================================================

 chkinp: Checking input parameters for consistency, jdtset=   1.

 chkinp: Checking input parameters for consistency, jdtset=   2.

 chkinp: Checking input parameters for consistency, jdtset=   3.

 chkinp: Checking input parameters for consistency, jdtset=   4.

 chkinp: Checking input parameters for consistency, jdtset=   5.

 chkinp: Checking input parameters for consistency, jdtset=   6.

 chkinp: Checking input parameters for consistency, jdtset=   7.

 chkinp: Checking input parameters for consistency, jdtset=   8.

 chkinp: Checking input parameters for consistency, jdtset=   9.

================================================================================
== DATASET  1 ==================================================================
-   mpi_nproc: 4, omp_nthreads: -1 (-1 if OMP is not activated)


--- !DatasetInfo
iteration_state: {dtset: 1, }
dimensions: {natom: 9, nkpt: 145, mband: 42, nsppol: 1, nspinor: 1, nspden: 1, mpw: 6971, }
cutoff_energies: {ecut:  16.0, pawecutdg:  40.0, }
electrons: {nelect:   7.20000000E+01, charge:   0.00000000E+00, occopt:   1.00000000E+00, tsmear:   1.00000000E-02, }
meta: {optdriver: 0, ionmov: 0, optcell: 0, iscf: 17, paral_kgb: 0, }
...

 Real(R)+Recip(G) space primitive vectors, cartesian coordinates (Bohr,Bohr^-1):
 R(1)=  0.0000000 10.4269719 10.4269719  G(1)= -0.0479526  0.0479526  0.0479526
 R(2)= 10.4269719  0.0000000 10.4269719  G(2)=  0.0479526 -0.0479526  0.0479526
 R(3)= 10.4269719 10.4269719  0.0000000  G(3)=  0.0479526  0.0479526 -0.0479526
 Unit cell volume ucvol=  2.2672771E+03 bohr^3
 Angles (23,13,12)=  6.00000000E+01  6.00000000E+01  6.00000000E+01 degrees

 Coarse grid specifications (used for wave-functions):

 getcut: wavevector=  0.0000  0.0000  0.0000  ngfft=  54  54  54
         ecut(hartree)=     16.000   => boxcut(ratio)=   2.03444

 Fine grid specifications (used for densities):

 getcut: wavevector=  0.0000  0.0000  0.0000  ngfft=  90  90  90
         ecut(hartree)=     40.000   => boxcut(ratio)=   2.14401

--- Pseudopotential description ------------------------------------------------
- pspini: atom type   1  psp file is ../../../Psps_for_tests/ATOMICDATA/Cs.GGA_PBE-JTH.xml
- pspatm: opening atomic psp file    ../../../Psps_for_tests/ATOMICDATA/Cs.GGA_PBE-JTH.xml
- pspatm : Reading pseudopotential header in XML form from ../../../Psps_for_tests/ATOMICDATA/Cs.GGA_PBE-JTH.xml
 Pseudopotential format is: paw10
 basis_size (lnmax)=  6 (lmn_size= 18), orbitals=   0   0   1   1   2   2
 Spheres core radius: rc_sph= 2.20660278
 1 radial meshes are used:
  - mesh 1: r(i)=AA*[exp(BB*(i-1))-1], size=1500 , AA= 0.15922E-03 BB= 0.87573E-02
 Shapefunction is SIN type: shapef(r)=[sin(pi*r/rshp)/(pi*r/rshp)]**2
 Radius for shape functions =  2.00394208
 mmax= 1500
 Radial grid used for partial waves is grid 1
 Radial grid used for projectors is grid 1
 Radial grid used for (t)core density is grid 1
 Radial grid used for Vloc is grid 1
 Radial grid used for pseudo valence density is grid 1
 Mesh size for Vloc has been set to 1341 to avoid numerical noise.
 Compensation charge density is not taken into account in XC energy/potential
 pspatm: atomic psp has been read  and splines computed

- pspini: atom type   2  psp file is ../../../Psps_for_tests/ATOMICDATA/I.GGA_PBE-JTH.xml
- pspatm: opening atomic psp file    ../../../Psps_for_tests/ATOMICDATA/I.GGA_PBE-JTH.xml
- pspatm : Reading pseudopotential header in XML form from ../../../Psps_for_tests/ATOMICDATA/I.GGA_PBE-JTH.xml
 Pseudopotential format is: paw10
 basis_size (lnmax)=  4 (lmn_size=  8), orbitals=   0   0   1   1
 Spheres core radius: rc_sph= 2.30022271
 1 radial meshes are used:
  - mesh 1: r(i)=AA*[exp(BB*(i-1))-1], size=2000 , AA= 0.12610E-03 BB= 0.66836E-02
 Shapefunction is SIN type: shapef(r)=[sin(pi*r/rshp)/(pi*r/rshp)]**2
 Radius for shape functions =  2.10879093
 mmax= 2000
 Radial grid used for partial waves is grid 1
 Radial grid used for projectors is grid 1
 Radial grid used for (t)core density is grid 1
 Radial grid used for Vloc is grid 1
 Radial grid used for pseudo valence density is grid 1
 Mesh size for Vloc has been set to 1792 to avoid numerical noise.
 Compensation charge density is not taken into account in XC energy/potential
 pspatm: atomic psp has been read  and splines computed

- pspini: atom type   3  psp file is ../../../Psps_for_tests/ATOMICDATA/Hf.GGA_PBE-JTH.xml
- pspatm: opening atomic psp file    ../../../Psps_for_tests/ATOMICDATA/Hf.GGA_PBE-JTH.xml
- pspatm : Reading pseudopotential header in XML form from ../../../Psps_for_tests/ATOMICDATA/Hf.GGA_PBE-JTH.xml
 Pseudopotential format is: paw10
 basis_size (lnmax)=  6 (lmn_size= 18), orbitals=   0   0   1   1   2   2
 Spheres core radius: rc_sph= 2.41000000
 1 radial meshes are used:
  - mesh 1: r(i)=AA*[exp(BB*(i-1))-1], size= 972 , AA= 0.19796E-03 BB= 0.14253E-01
 Shapefunction is SIN type: shapef(r)=[sin(pi*r/rshp)/(pi*r/rshp)]**2
 Radius for shape functions =  2.41000000
 mmax=  972
 Radial grid used for partial waves is grid 1
 Radial grid used for projectors is grid 1
 Radial grid used for (t)core density is grid 1
 Radial grid used for Vloc is grid 1
 Radial grid used for pseudo valence density is grid 1
 Mesh size for Vloc has been set to  809 to avoid numerical noise.
 Compensation charge density is not taken into account in XC energy/potential
 pspatm: atomic psp has been read  and splines computed

   5.00972281E+04                                ecore*ucvol(ha*bohr**3)
--------------------------------------------------------------------------------

_setup2: Arith. and geom. avg. npw (full set) are    6930.013    6930.007

================================================================================

--- !BeginCycle
iteration_state: {dtset: 1, }
solver: {iscf: 17, nstep: 2500, nline: 4, wfoptalg: 10, }
tolerances: {toldfe: 1.00E-08, }
...

     iter   Etot(hartree)      deltaE(h)  residm     nres2
 ETOT  1  -159.25740662341    -1.593E+02 1.081E+01 4.941E+00
 ETOT  2  -161.32979886663    -2.072E+00 3.466E-02 3.270E+00
 ETOT  3  -161.31316358650     1.664E-02 1.729E-02 5.986E-01
 ETOT  4  -161.31357372630    -4.101E-04 5.967E-03 1.271E-01
 ETOT  5  -161.31340554001     1.682E-04 5.597E-03 6.591E-03
 ETOT  6  -161.31348161644    -7.608E-05 4.342E-03 8.184E-04
 ETOT  7  -161.31349156973    -9.953E-06 2.366E-03 1.523E-04
 ETOT  8  -161.31349344972    -1.880E-06 3.712E-03 1.138E-05
 ETOT  9  -161.31349367593    -2.262E-07 1.034E-03 7.325E-07
 ETOT 10  -161.31349368518    -9.249E-09 1.339E-03 8.180E-08
 ETOT 11  -161.31349368623    -1.053E-09 8.948E-04 8.183E-09

 At SCF step   11, etot is converged : 
  for the second time, diff in etot=  1.053E-09 < toldfe=  1.000E-08

 Cartesian components of stress tensor (hartree/bohr^3)
  sigma(1 1)= -1.42346191E-04  sigma(3 2)=  0.00000000E+00
  sigma(2 2)= -1.42346191E-04  sigma(3 1)=  0.00000000E+00
  sigma(3 3)= -1.42346191E-04  sigma(2 1)=  0.00000000E+00


--- !ResultsGS
iteration_state: {dtset: 1, }
comment   : Summary of ground state results
lattice_vectors:
- [  0.0000000,  10.4269719,  10.4269719, ]
- [ 10.4269719,   0.0000000,  10.4269719, ]
- [ 10.4269719,  10.4269719,   0.0000000, ]
lattice_lengths: [  14.74597,   14.74597,   14.74597, ]
lattice_angles: [ 60.000,  60.000,  60.000, ] # degrees, (23, 13, 12)
lattice_volume:   2.2672771E+03
convergence: {deltae: -1.053E-09, res2:  8.183E-09, residm:  8.948E-04, diffor: null, }
etotal    :  -1.61313494E+02
entropy   :   0.00000000E+00
fermie    :  -1.12305606E-01
cartesian_stress_tensor: # hartree/bohr^3
- [ -1.42346191E-04,   0.00000000E+00,   0.00000000E+00, ]
- [  0.00000000E+00,  -1.42346191E-04,   0.00000000E+00, ]
- [  0.00000000E+00,   0.00000000E+00,  -1.42346191E-04, ]
pressure_GPa:   4.1880E+00
xred      :
- [  2.5000E-01,   2.5000E-01,   2.5000E-01, Cs]
- [  7.5000E-01,   7.5000E-01,   7.5000E-01, Cs]
- [  7.4583E-01,   2.5417E-01,   7.4583E-01,  I]
- [  2.5417E-01,   2.5417E-01,   7.4583E-01,  I]
- [  7.4583E-01,   7.4583E-01,   2.5417E-01,  I]
- [  2.5417E-01,   7.4583E-01,   2.5417E-01,  I]
- [  2.5417E-01,   7.4583E-01,   7.4583E-01,  I]
- [  7.4583E-01,   2.5417E-01,   2.5417E-01,  I]
- [ -1.8460E-19,   1.0895E-19,  -5.0121E-19, Hf]
cartesian_forces: # hartree/bohr
- [  1.29119233E-29,  -2.58238466E-29,  -2.25025044E-23, ]
- [  3.22798082E-29,  -1.93678849E-29,  -2.25025108E-23, ]
- [  2.02522772E-22,  -1.40262285E-05,  -2.25025302E-22, ]
- [  1.53361593E-21,  -1.58777246E-21,   1.40262285E-05, ]
- [ -1.53361593E-21,   1.58777246E-21,  -1.40262285E-05, ]
- [ -2.02522772E-22,   1.40262285E-05,   1.80020242E-22, ]
- [ -1.40262285E-05,   2.02522772E-22,  -2.25025302E-22, ]
- [  1.40262285E-05,  -2.02522772E-22,   1.80020242E-22, ]
- [ -0.00000000E+00,  -0.00000000E+00,  -2.25025302E-23, ]
force_length_stats: {min:   2.25025044E-23, max:   1.40262285E-05, mean:   9.35081897E-06, }
...

 Integrated electronic density in atomic spheres:
 ------------------------------------------------
 Atom  Sphere_radius  Integrated_density
    1        2.20660          5.33762491
    2        2.20660          5.33762491
    3        2.30022          4.03525098
    4        2.30022          4.03525098
    5        2.30022          4.03525098
    6        2.30022          4.03525098
    7        2.30022          4.03525098
    8        2.30022          4.03525098
    9        2.41000          9.33216655

 PAW TEST:
 ==== Compensation charge inside spheres ============
 The following values must be close to each other ...
 Compensation charge over spherical meshes =     -0.606054987433367
 Compensation charge over fine fft grid    =     -0.606014041640693

 ==== Results concerning PAW augmentation regions ====

 Total pseudopotential strength Dij (hartree):
 Atom #  1
   0.44638  -0.14777   0.00000   0.00000   0.00000   0.00000   0.00000   0.00000   0.00000   0.00000   0.00000   0.00000 ...
  -0.14777   0.04457   0.00000   0.00000   0.00000   0.00000   0.00000   0.00000   0.00000   0.00000   0.00000   0.00000 ...
   0.00000   0.00000  -0.09430   0.00000   0.00000  -0.16616   0.00000   0.00000   0.00000   0.00000   0.00000  -0.00000 ...
   0.00000   0.00000   0.00000  -0.09430   0.00000   0.00000  -0.16616   0.00000  -0.00000   0.00000   0.00000   0.00000 ...
   0.00000   0.00000   0.00000   0.00000  -0.09430   0.00000   0.00000  -0.16616   0.00000  -0.00000   0.00000   0.00000 ...
   0.00000   0.00000  -0.16616   0.00000   0.00000   0.40592   0.00000   0.00000   0.00000   0.00000   0.00000  -0.00000 ...
   0.00000   0.00000   0.00000  -0.16616   0.00000   0.00000   0.40592   0.00000  -0.00000   0.00000   0.00000   0.00000 ...
   0.00000   0.00000   0.00000   0.00000  -0.16616   0.00000   0.00000   0.40592   0.00000  -0.00000   0.00000   0.00000 ...
   0.00000   0.00000   0.00000  -0.00000   0.00000   0.00000  -0.00000   0.00000   0.00512   0.00000   0.00000   0.00000 ...
   0.00000   0.00000   0.00000   0.00000  -0.00000   0.00000   0.00000  -0.00000   0.00000   0.00512   0.00000   0.00000 ...
   0.00000   0.00000   0.00000   0.00000   0.00000   0.00000   0.00000   0.00000   0.00000   0.00000   0.00512   0.00000 ...
   0.00000   0.00000  -0.00000   0.00000   0.00000  -0.00000   0.00000   0.00000   0.00000   0.00000   0.00000   0.00512 ...
   ...  only 12  components have been written...
 Atom #  9
  -3.52792   0.43161   0.00000   0.00000   0.00000   0.00000   0.00000   0.00000   0.00000   0.00000   0.00000   0.00000 ...
   0.43161   0.00224   0.00000   0.00000   0.00000   0.00000   0.00000   0.00000   0.00000   0.00000   0.00000   0.00000 ...
   0.00000   0.00000  -1.47169   0.00000   0.00000   0.12652   0.00000   0.00000   0.00000   0.00000   0.00000   0.00000 ...
   0.00000   0.00000   0.00000  -1.47169   0.00000   0.00000   0.12652   0.00000   0.00000   0.00000   0.00000   0.00000 ...
   0.00000   0.00000   0.00000   0.00000  -1.47169   0.00000   0.00000   0.12652   0.00000   0.00000   0.00000   0.00000 ...
   0.00000   0.00000   0.12652   0.00000   0.00000   0.01289   0.00000   0.00000   0.00000   0.00000   0.00000   0.00000 ...
   0.00000   0.00000   0.00000   0.12652   0.00000   0.00000   0.01289   0.00000   0.00000   0.00000   0.00000   0.00000 ...
   0.00000   0.00000   0.00000   0.00000   0.12652   0.00000   0.00000   0.01289   0.00000   0.00000   0.00000   0.00000 ...
   0.00000   0.00000   0.00000   0.00000   0.00000   0.00000   0.00000   0.00000  -0.39698   0.00000   0.00000   0.00000 ...
   0.00000   0.00000   0.00000   0.00000   0.00000   0.00000   0.00000   0.00000   0.00000  -0.39698   0.00000   0.00000 ...
   0.00000   0.00000   0.00000   0.00000   0.00000   0.00000   0.00000   0.00000   0.00000   0.00000  -0.39633   0.00000 ...
   0.00000   0.00000   0.00000   0.00000   0.00000   0.00000   0.00000   0.00000   0.00000   0.00000   0.00000  -0.39698 ...
   ...  only 12  components have been written...


 Augmentation waves occupancies Rhoij:
 Atom #  1
   1.99819  -0.01332   0.00000   0.00000   0.00000   0.00000   0.00000   0.00000   0.00000   0.00000   0.00000   0.00000 ...
  -0.01332   0.20688   0.00000   0.00000   0.00000   0.00000   0.00000   0.00000   0.00000   0.00000   0.00000   0.00000 ...
   0.00000   0.00000   2.00642   0.00000   0.00000  -0.00488   0.00000   0.00000   0.00000   0.00000   0.00000  -0.00180 ...
   0.00000   0.00000   0.00000   2.00642   0.00000   0.00000  -0.00488   0.00000  -0.00180   0.00000   0.00000   0.00000 ...
   0.00000   0.00000   0.00000   0.00000   2.00642   0.00000   0.00000  -0.00488   0.00000  -0.00180   0.00000   0.00000 ...
   0.00000   0.00000  -0.00488   0.00000   0.00000   0.00016   0.00000   0.00000   0.00000   0.00000   0.00000   0.00009 ...
   0.00000   0.00000   0.00000  -0.00488   0.00000   0.00000   0.00016   0.00000   0.00009   0.00000   0.00000   0.00000 ...
   0.00000   0.00000   0.00000   0.00000  -0.00488   0.00000   0.00000   0.00016   0.00000   0.00009   0.00000   0.00000 ...
   0.00000   0.00000   0.00000  -0.00180   0.00000   0.00000   0.00009   0.00000   0.07753   0.00000   0.00000   0.00000 ...
   0.00000   0.00000   0.00000   0.00000  -0.00180   0.00000   0.00000   0.00009   0.00000   0.07753   0.00000   0.00000 ...
   0.00000   0.00000   0.00000   0.00000   0.00000   0.00000   0.00000   0.00000   0.00000   0.00000   0.05323   0.00000 ...
   0.00000   0.00000  -0.00180   0.00000   0.00000   0.00009   0.00000   0.00000   0.00000   0.00000   0.00000   0.07753 ...
   ...  only 12  components have been written...
 Atom #  9
   1.99810  -0.01835   0.00000   0.00000   0.00000   0.00000   0.00000   0.00000   0.00000   0.00000   0.00000   0.00000 ...
  -0.01835   1.02357   0.00000   0.00000   0.00000   0.00000   0.00000   0.00000   0.00000   0.00000   0.00000   0.00000 ...
   0.00000   0.00000   1.99401   0.00000   0.00000  -0.04997   0.00000   0.00000   0.00000   0.00000   0.00000   0.00000 ...
   0.00000   0.00000   0.00000   1.99401   0.00000   0.00000  -0.04997   0.00000   0.00000   0.00000   0.00000   0.00000 ...
   0.00000   0.00000   0.00000   0.00000   1.99401   0.00000   0.00000  -0.04997   0.00000   0.00000   0.00000   0.00000 ...
   0.00000   0.00000  -0.04997   0.00000   0.00000   1.26406   0.00000   0.00000   0.00000   0.00000   0.00000   0.00000 ...
   0.00000   0.00000   0.00000  -0.04997   0.00000   0.00000   1.26406   0.00000   0.00000   0.00000   0.00000   0.00000 ...
   0.00000   0.00000   0.00000   0.00000  -0.04997   0.00000   0.00000   1.26406   0.00000   0.00000   0.00000   0.00000 ...
   0.00000   0.00000   0.00000   0.00000   0.00000   0.00000   0.00000   0.00000   0.49820   0.00000   0.00000   0.00000 ...
   0.00000   0.00000   0.00000   0.00000   0.00000   0.00000   0.00000   0.00000   0.00000   0.49820   0.00000   0.00000 ...
   0.00000   0.00000   0.00000   0.00000   0.00000   0.00000   0.00000   0.00000   0.00000   0.00000   1.45785   0.00000 ...
   0.00000   0.00000   0.00000   0.00000   0.00000   0.00000   0.00000   0.00000   0.00000   0.00000   0.00000   0.49820 ...
   ...  only 12  components have been written...


================================================================================

 ----iterations are completed or convergence reached----

 Mean square residual over all n,k,spin=   27.535E-07; max=  89.480E-05
 reduced coordinates (array xred) for    9 atoms
       0.250000000000      0.250000000000      0.250000000000
       0.750000000000      0.750000000000      0.750000000000
       0.745825957560      0.254174042440      0.745825957560
       0.254174042440      0.254174042440      0.745825957560
       0.745825957560      0.745825957560      0.254174042440
       0.254174042440      0.745825957560      0.254174042440
       0.254174042440      0.745825957560      0.745825957560
       0.745825957560      0.254174042440      0.254174042440
      -0.000000000000      0.000000000000     -0.000000000000
 rms dE/dt=  9.7501E-05; max dE/dt=  1.4625E-04; dE/dt below (all hartree)
    1       0.000000000000     -0.000000000000      0.000000000000
    2       0.000000000000     -0.000000000000     -0.000000000000
    3       0.000146251090      0.000000000000      0.000146251090
    4      -0.000146251090     -0.000146251090      0.000000000000
    5       0.000146251090      0.000146251090     -0.000000000000
    6      -0.000146251090      0.000000000000     -0.000146251090
    7       0.000000000000      0.000146251090      0.000146251090
    8      -0.000000000000     -0.000146251090     -0.000146251090
    9       0.000000000000      0.000000000000      0.000000000000

 cartesian coordinates (angstrom) at end:
    1      2.75885794015321     2.75885794015321     2.75885794015321
    2      8.27657382045963     8.27657382045963     8.27657382045963
    3      5.51771588030642     8.23051145994711     5.51771588030642
    4      5.51771588030642     5.51771588030642     2.80492030066573
    5      5.51771588030642     5.51771588030642     8.23051145994711
    6      5.51771588030642     2.80492030066573     5.51771588030642
    7      8.23051145994711     5.51771588030642     5.51771588030642
    8      2.80492030066573     5.51771588030642     5.51771588030642
    9     -0.00000000000000    -0.00000000000000    -0.00000000000000

 cartesian forces (hartree/bohr) at end:
    1      0.00000000000000    -0.00000000000000    -0.00000000000000
    2      0.00000000000000    -0.00000000000000    -0.00000000000000
    3      0.00000000000000    -0.00001402622846    -0.00000000000000
    4      0.00000000000000    -0.00000000000000     0.00001402622846
    5     -0.00000000000000     0.00000000000000    -0.00001402622846
    6     -0.00000000000000     0.00001402622846     0.00000000000000
    7     -0.00001402622846     0.00000000000000    -0.00000000000000
    8      0.00001402622846    -0.00000000000000     0.00000000000000
    9     -0.00000000000000    -0.00000000000000    -0.00000000000000
 frms,max,avg= 6.6120275E-06 1.4026228E-05   0.000E+00  0.000E+00  0.000E+00 h/b

 cartesian forces (eV/Angstrom) at end:
    1      0.00000000000000    -0.00000000000000    -0.00000000000000
    2      0.00000000000000    -0.00000000000000    -0.00000000000000
    3      0.00000000000000    -0.00072125760621    -0.00000000000000
    4      0.00000000000000    -0.00000000000000     0.00072125760621
    5     -0.00000000000000     0.00000000000000    -0.00072125760621
    6     -0.00000000000000     0.00072125760621     0.00000000000000
    7     -0.00072125760621     0.00000000000000    -0.00000000000000
    8      0.00072125760621    -0.00000000000000     0.00000000000000
    9     -0.00000000000000    -0.00000000000000    -0.00000000000000
 frms,max,avg= 3.4000410E-04 7.2125761E-04   0.000E+00  0.000E+00  0.000E+00 e/A
 length scales= 16.045663836000 16.045663836000 16.045663836000 bohr
              =  8.490999598708  8.490999598708  8.490999598708 angstroms
 prteigrs : about to open file Cs2TiI6o_DS1_EIG
 Fermi (or HOMO) energy (hartree) =  -0.11231   Average Vxc (hartree)=  -0.32265
 Eigenvalues (hartree) for nkpt= 145  k points:
 kpt#   1, nband= 42, wtk=  0.00024, kpt=  0.0000  0.0000  0.0000 (reduced coord)
  -2.41180   -1.25718   -1.25718   -1.25718   -0.86617   -0.86578   -0.57072   -0.54058
  -0.54058   -0.54058   -0.53352   -0.53352   -0.39001   -0.39001   -0.39001   -0.38564
  -0.38564   -0.38564   -0.28966   -0.22058   -0.22058   -0.22058   -0.21430   -0.21430
  -0.21430   -0.18730   -0.18730   -0.15375   -0.15375   -0.15375   -0.11920   -0.11920
  -0.11920   -0.11231   -0.11231   -0.11231   -0.04481   -0.04481   -0.04481    0.01873
   0.03699    0.03700
 prteigrs : prtvol=0 or 1, do not print more k-points.


--- !EnergyTerms
iteration_state     : {dtset: 1, }
comment             : Components of total free energy in Hartree
kinetic             :  3.66298005234343E+01
hartree             :  2.73208335712259E+01
xc                  : -5.89351456579048E+01
Ewald energy        : -1.27216950237898E+02
psp_core            :  2.20957675708694E+01
local_psp           : -5.06417758520558E+01
spherical_terms     : -1.05660656164056E+01
total_energy        : -1.61313535698735E+02
total_energy_eV     : -4.38956454171209E+03
...


--- !EnergyTermsDC
iteration_state     : {dtset: 1, }
comment             : '"Double-counting" decomposition of free energy'
band_energy         : -3.35288489572231E+01
Ewald energy        : -1.27216950237898E+02
psp_core            :  2.20957675708694E+01
xc_dc               : -4.92731250212904E+01
spherical_terms     :  2.66096629593135E+01
total_energy_dc     : -1.61313493686229E+02
total_energy_dc_eV  : -4.38956339849366E+03
...


 Cartesian components of stress tensor (hartree/bohr^3)
  sigma(1 1)= -1.42346191E-04  sigma(3 2)=  0.00000000E+00
  sigma(2 2)= -1.42346191E-04  sigma(3 1)=  0.00000000E+00
  sigma(3 3)= -1.42346191E-04  sigma(2 1)=  0.00000000E+00

-Cartesian components of stress tensor (GPa)         [Pressure=  4.1880E+00 GPa]
- sigma(1 1)= -4.18796882E+00  sigma(3 2)=  0.00000000E+00
- sigma(2 2)= -4.18796882E+00  sigma(3 1)=  0.00000000E+00
- sigma(3 3)= -4.18796882E+00  sigma(2 1)=  0.00000000E+00

================================================================================
== DATASET  2 ==================================================================
-   mpi_nproc: 4, omp_nthreads: -1 (-1 if OMP is not activated)


--- !DatasetInfo
iteration_state: {dtset: 2, }
dimensions: {natom: 9, nkpt: 145, mband: 42, nsppol: 1, nspinor: 1, nspden: 1, mpw: 6939, }
cutoff_energies: {ecut:  16.0, pawecutdg:  40.0, }
electrons: {nelect:   7.20000000E+01, charge:   0.00000000E+00, occopt:   1.00000000E+00, tsmear:   1.00000000E-02, }
meta: {optdriver: 0, ionmov: 0, optcell: 0, iscf: 17, paral_kgb: 0, }
...

 Real(R)+Recip(G) space primitive vectors, cartesian coordinates (Bohr,Bohr^-1):
 R(1)=  0.0000000 10.4156259 10.4156259  G(1)= -0.0480048  0.0480048  0.0480048
 R(2)= 10.4156259  0.0000000 10.4156259  G(2)=  0.0480048 -0.0480048  0.0480048
 R(3)= 10.4156259 10.4156259  0.0000000  G(3)=  0.0480048  0.0480048 -0.0480048
 Unit cell volume ucvol=  2.2598838E+03 bohr^3
 Angles (23,13,12)=  6.00000000E+01  6.00000000E+01  6.00000000E+01 degrees

 Coarse grid specifications (used for wave-functions):

 getcut: wavevector=  0.0000  0.0000  0.0000  ngfft=  54  54  54
         ecut(hartree)=     16.000   => boxcut(ratio)=   2.03665

 Fine grid specifications (used for densities):

 getcut: wavevector=  0.0000  0.0000  0.0000  ngfft=  90  90  90
         ecut(hartree)=     40.000   => boxcut(ratio)=   2.14635

--- Pseudopotential description ------------------------------------------------
- pspini: atom type   1  psp file is ../../../Psps_for_tests/ATOMICDATA/Cs.GGA_PBE-JTH.xml
- pspatm: opening atomic psp file    ../../../Psps_for_tests/ATOMICDATA/Cs.GGA_PBE-JTH.xml
- pspatm : Reading pseudopotential header in XML form from ../../../Psps_for_tests/ATOMICDATA/Cs.GGA_PBE-JTH.xml
 Pseudopotential format is: paw10
 basis_size (lnmax)=  6 (lmn_size= 18), orbitals=   0   0   1   1   2   2
 Spheres core radius: rc_sph= 2.20660278
 1 radial meshes are used:
  - mesh 1: r(i)=AA*[exp(BB*(i-1))-1], size=1500 , AA= 0.15922E-03 BB= 0.87573E-02
 Shapefunction is SIN type: shapef(r)=[sin(pi*r/rshp)/(pi*r/rshp)]**2
 Radius for shape functions =  2.00394208
 mmax= 1500
 Radial grid used for partial waves is grid 1
 Radial grid used for projectors is grid 1
 Radial grid used for (t)core density is grid 1
 Radial grid used for Vloc is grid 1
 Radial grid used for pseudo valence density is grid 1
 Mesh size for Vloc has been set to 1341 to avoid numerical noise.
 Compensation charge density is not taken into account in XC energy/potential
 pspatm: atomic psp has been read  and splines computed

- pspini: atom type   2  psp file is ../../../Psps_for_tests/ATOMICDATA/I.GGA_PBE-JTH.xml
- pspatm: opening atomic psp file    ../../../Psps_for_tests/ATOMICDATA/I.GGA_PBE-JTH.xml
- pspatm : Reading pseudopotential header in XML form from ../../../Psps_for_tests/ATOMICDATA/I.GGA_PBE-JTH.xml
 Pseudopotential format is: paw10
 basis_size (lnmax)=  4 (lmn_size=  8), orbitals=   0   0   1   1
 Spheres core radius: rc_sph= 2.30022271
 1 radial meshes are used:
  - mesh 1: r(i)=AA*[exp(BB*(i-1))-1], size=2000 , AA= 0.12610E-03 BB= 0.66836E-02
 Shapefunction is SIN type: shapef(r)=[sin(pi*r/rshp)/(pi*r/rshp)]**2
 Radius for shape functions =  2.10879093
 mmax= 2000
 Radial grid used for partial waves is grid 1
 Radial grid used for projectors is grid 1
 Radial grid used for (t)core density is grid 1
 Radial grid used for Vloc is grid 1
 Radial grid used for pseudo valence density is grid 1
 Mesh size for Vloc has been set to 1792 to avoid numerical noise.
 Compensation charge density is not taken into account in XC energy/potential
 pspatm: atomic psp has been read  and splines computed

- pspini: atom type   3  psp file is ../../../Psps_for_tests/ATOMICDATA/Hf.GGA_PBE-JTH.xml
- pspatm: opening atomic psp file    ../../../Psps_for_tests/ATOMICDATA/Hf.GGA_PBE-JTH.xml
- pspatm : Reading pseudopotential header in XML form from ../../../Psps_for_tests/ATOMICDATA/Hf.GGA_PBE-JTH.xml
 Pseudopotential format is: paw10
 basis_size (lnmax)=  6 (lmn_size= 18), orbitals=   0   0   1   1   2   2
 Spheres core radius: rc_sph= 2.41000000
 1 radial meshes are used:
  - mesh 1: r(i)=AA*[exp(BB*(i-1))-1], size= 972 , AA= 0.19796E-03 BB= 0.14253E-01
 Shapefunction is SIN type: shapef(r)=[sin(pi*r/rshp)/(pi*r/rshp)]**2
 Radius for shape functions =  2.41000000
 mmax=  972
 Radial grid used for partial waves is grid 1
 Radial grid used for projectors is grid 1
 Radial grid used for (t)core density is grid 1
 Radial grid used for Vloc is grid 1
 Radial grid used for pseudo valence density is grid 1
 Mesh size for Vloc has been set to  809 to avoid numerical noise.
 Compensation charge density is not taken into account in XC energy/potential
 pspatm: atomic psp has been read  and splines computed

--------------------------------------------------------------------------------

_setup2: Arith. and geom. avg. npw (full set) are    6908.111    6908.105

================================================================================

--- !BeginCycle
iteration_state: {dtset: 2, }
solver: {iscf: 17, nstep: 2500, nline: 4, wfoptalg: 10, }
tolerances: {toldfe: 1.00E-08, }
...

     iter   Etot(hartree)      deltaE(h)  residm     nres2
 ETOT  1  -159.02538450393    -1.590E+02 1.074E+01 4.684E+00
 ETOT  2  -161.33335936799    -2.308E+00 2.757E-02 3.916E+00
 ETOT  3  -161.31258470878     2.077E-02 2.264E-02 7.422E-01
 ETOT  4  -161.31247288468     1.118E-04 7.734E-03 1.426E-01
 ETOT  5  -161.31231178731     1.611E-04 4.108E-03 7.819E-03
 ETOT  6  -161.31238939982    -7.761E-05 3.091E-03 8.625E-04
 ETOT  7  -161.31240039395    -1.099E-05 2.458E-03 1.264E-04
 ETOT  8  -161.31240242028    -2.026E-06 2.412E-03 1.031E-05
 ETOT  9  -161.31240261667    -1.964E-07 1.903E-03 9.006E-07
 ETOT 10  -161.31240262256    -5.893E-09 1.367E-03 1.008E-07
 ETOT 11  -161.31240262348    -9.134E-10 6.762E-04 8.054E-09

 At SCF step   11, etot is converged : 
  for the second time, diff in etot=  9.134E-10 < toldfe=  1.000E-08

 Cartesian components of stress tensor (hartree/bohr^3)
  sigma(1 1)= -1.45903651E-04  sigma(3 2)=  0.00000000E+00
  sigma(2 2)= -1.45903651E-04  sigma(3 1)=  0.00000000E+00
  sigma(3 3)= -1.45903651E-04  sigma(2 1)=  0.00000000E+00


--- !ResultsGS
iteration_state: {dtset: 2, }
comment   : Summary of ground state results
lattice_vectors:
- [  0.0000000,  10.4156259,  10.4156259, ]
- [ 10.4156259,   0.0000000,  10.4156259, ]
- [ 10.4156259,  10.4156259,   0.0000000, ]
lattice_lengths: [  14.72992,   14.72992,   14.72992, ]
lattice_angles: [ 60.000,  60.000,  60.000, ] # degrees, (23, 13, 12)
lattice_volume:   2.2598838E+03
convergence: {deltae: -9.134E-10, res2:  8.054E-09, residm:  6.762E-04, diffor: null, }
etotal    :  -1.61312403E+02
entropy   :   0.00000000E+00
fermie    :  -1.11832563E-01
cartesian_stress_tensor: # hartree/bohr^3
- [ -1.45903651E-04,   0.00000000E+00,   0.00000000E+00, ]
- [  0.00000000E+00,  -1.45903651E-04,   0.00000000E+00, ]
- [  0.00000000E+00,   0.00000000E+00,  -1.45903651E-04, ]
pressure_GPa:   4.2926E+00
xred      :
- [  2.5000E-01,   2.5000E-01,   2.5000E-01, Cs]
- [  7.5000E-01,   7.5000E-01,   7.5000E-01, Cs]
- [  7.4566E-01,   2.5434E-01,   7.4566E-01,  I]
- [  2.5434E-01,   2.5434E-01,   7.4566E-01,  I]
- [  7.4566E-01,   7.4566E-01,   2.5434E-01,  I]
- [  2.5434E-01,   7.4566E-01,   2.5434E-01,  I]
- [  2.5434E-01,   7.4566E-01,   7.4566E-01,  I]
- [  7.4566E-01,   2.5434E-01,   2.5434E-01,  I]
- [ -1.5212E-19,   1.1517E-19,  -5.2878E-19, Hf]
cartesian_forces: # hartree/bohr
- [  1.88229544E-22,   2.58519771E-29,   3.43738359E-22, ]
- [  1.88229447E-22,   1.93889828E-29,   3.43738443E-22, ]
- [  4.82715983E-22,  -1.12111502E-05,   4.92519329E-23, ]
- [ -4.25563347E-22,   6.13792891E-22,   1.12111502E-05, ]
- [  1.45260874E-21,  -1.26437920E-21,  -1.12111502E-05, ]
- [ -1.06256895E-22,   1.12111502E-05,   6.38224811E-22, ]
- [ -1.12111502E-05,   1.33796603E-21,  -9.94227655E-22, ]
- [  1.12111502E-05,   3.56099867E-22,  -1.23614948E-23, ]
- [  1.88229544E-22,   1.04488387E-38,   3.43738372E-22, ]
force_length_stats: {min:   3.91901034E-22, max:   1.12111502E-05, mean:   7.47410016E-06, }
...

 Integrated electronic density in atomic spheres:
 ------------------------------------------------
 Atom  Sphere_radius  Integrated_density
    1        2.20660          5.34896780
    2        2.20660          5.34896780
    3        2.30022          4.03590825
    4        2.30022          4.03590825
    5        2.30022          4.03590825
    6        2.30022          4.03590825
    7        2.30022          4.03590825
    8        2.30022          4.03590825
    9        2.41000          9.32804166

 PAW TEST:
 ==== Compensation charge inside spheres ============
 The following values must be close to each other ...
 Compensation charge over spherical meshes =     -0.606396257197917
 Compensation charge over fine fft grid    =     -0.606354154278088

 ==== Results concerning PAW augmentation regions ====

 Total pseudopotential strength Dij (hartree):
 Atom #  1
   0.44627  -0.14774   0.00000   0.00000   0.00000   0.00000   0.00000   0.00000   0.00000   0.00000   0.00000   0.00000 ...
  -0.14774   0.04456   0.00000   0.00000   0.00000   0.00000   0.00000   0.00000   0.00000   0.00000   0.00000   0.00000 ...
   0.00000   0.00000  -0.09428   0.00000   0.00000  -0.16617   0.00000   0.00000   0.00000   0.00000   0.00000  -0.00000 ...
   0.00000   0.00000   0.00000  -0.09428   0.00000   0.00000  -0.16617   0.00000  -0.00000   0.00000   0.00000   0.00000 ...
   0.00000   0.00000   0.00000   0.00000  -0.09428   0.00000   0.00000  -0.16617   0.00000  -0.00000   0.00000   0.00000 ...
   0.00000   0.00000  -0.16617   0.00000   0.00000   0.40589   0.00000   0.00000   0.00000   0.00000   0.00000  -0.00000 ...
   0.00000   0.00000   0.00000  -0.16617   0.00000   0.00000   0.40589   0.00000  -0.00000   0.00000   0.00000   0.00000 ...
   0.00000   0.00000   0.00000   0.00000  -0.16617   0.00000   0.00000   0.40589   0.00000  -0.00000   0.00000   0.00000 ...
   0.00000   0.00000   0.00000  -0.00000   0.00000   0.00000  -0.00000   0.00000   0.00513   0.00000   0.00000   0.00000 ...
   0.00000   0.00000   0.00000   0.00000  -0.00000   0.00000   0.00000  -0.00000   0.00000   0.00513   0.00000   0.00000 ...
   0.00000   0.00000   0.00000   0.00000   0.00000   0.00000   0.00000   0.00000   0.00000   0.00000   0.00513   0.00000 ...
   0.00000   0.00000  -0.00000   0.00000   0.00000  -0.00000   0.00000   0.00000   0.00000   0.00000   0.00000   0.00513 ...
   ...  only 12  components have been written...
 Atom #  9
  -3.52770   0.43153   0.00000   0.00000   0.00000   0.00000   0.00000   0.00000   0.00000   0.00000   0.00000   0.00000 ...
   0.43153   0.00226   0.00000   0.00000   0.00000   0.00000   0.00000   0.00000   0.00000   0.00000   0.00000   0.00000 ...
   0.00000   0.00000  -1.47134   0.00000   0.00000   0.12645   0.00000   0.00000   0.00000   0.00000   0.00000   0.00000 ...
   0.00000   0.00000   0.00000  -1.47134   0.00000   0.00000   0.12645   0.00000   0.00000   0.00000   0.00000   0.00000 ...
   0.00000   0.00000   0.00000   0.00000  -1.47134   0.00000   0.00000   0.12645   0.00000   0.00000   0.00000   0.00000 ...
   0.00000   0.00000   0.12645   0.00000   0.00000   0.01291   0.00000   0.00000   0.00000   0.00000   0.00000   0.00000 ...
   0.00000   0.00000   0.00000   0.12645   0.00000   0.00000   0.01291   0.00000   0.00000   0.00000   0.00000   0.00000 ...
   0.00000   0.00000   0.00000   0.00000   0.12645   0.00000   0.00000   0.01291   0.00000   0.00000   0.00000   0.00000 ...
   0.00000   0.00000   0.00000   0.00000   0.00000   0.00000   0.00000   0.00000  -0.39691   0.00000   0.00000   0.00000 ...
   0.00000   0.00000   0.00000   0.00000   0.00000   0.00000   0.00000   0.00000   0.00000  -0.39691   0.00000   0.00000 ...
   0.00000   0.00000   0.00000   0.00000   0.00000   0.00000   0.00000   0.00000   0.00000   0.00000  -0.39626   0.00000 ...
   0.00000   0.00000   0.00000   0.00000   0.00000   0.00000   0.00000   0.00000   0.00000   0.00000   0.00000  -0.39691 ...
   ...  only 12  components have been written...


 Augmentation waves occupancies Rhoij:
 Atom #  1
   1.99822  -0.01324   0.00000   0.00000   0.00000   0.00000   0.00000   0.00000   0.00000   0.00000   0.00000   0.00000 ...
  -0.01324   0.20837   0.00000   0.00000   0.00000   0.00000   0.00000   0.00000   0.00000   0.00000   0.00000   0.00000 ...
   0.00000   0.00000   2.00640   0.00000   0.00000  -0.00487   0.00000   0.00000   0.00000   0.00000   0.00000  -0.00182 ...
   0.00000   0.00000   0.00000   2.00640   0.00000   0.00000  -0.00487   0.00000  -0.00182   0.00000   0.00000   0.00000 ...
   0.00000   0.00000   0.00000   0.00000   2.00640   0.00000   0.00000  -0.00487   0.00000  -0.00182   0.00000   0.00000 ...
   0.00000   0.00000  -0.00487   0.00000   0.00000   0.00016   0.00000   0.00000   0.00000   0.00000   0.00000   0.00009 ...
   0.00000   0.00000   0.00000  -0.00487   0.00000   0.00000   0.00016   0.00000   0.00009   0.00000   0.00000   0.00000 ...
   0.00000   0.00000   0.00000   0.00000  -0.00487   0.00000   0.00000   0.00016   0.00000   0.00009   0.00000   0.00000 ...
   0.00000   0.00000   0.00000  -0.00182   0.00000   0.00000   0.00009   0.00000   0.07832   0.00000   0.00000   0.00000 ...
   0.00000   0.00000   0.00000   0.00000  -0.00182   0.00000   0.00000   0.00009   0.00000   0.07832   0.00000   0.00000 ...
   0.00000   0.00000   0.00000   0.00000   0.00000   0.00000   0.00000   0.00000   0.00000   0.00000   0.05383   0.00000 ...
   0.00000   0.00000  -0.00182   0.00000   0.00000   0.00009   0.00000   0.00000   0.00000   0.00000   0.00000   0.07832 ...
   ...  only 12  components have been written...
 Atom #  9
   1.99811  -0.01829   0.00000   0.00000   0.00000   0.00000   0.00000   0.00000   0.00000   0.00000   0.00000   0.00000 ...
  -0.01829   1.02418   0.00000   0.00000   0.00000   0.00000   0.00000   0.00000   0.00000   0.00000   0.00000   0.00000 ...
   0.00000   0.00000   1.99406   0.00000   0.00000  -0.04962   0.00000   0.00000   0.00000   0.00000   0.00000   0.00000 ...
   0.00000   0.00000   0.00000   1.99406   0.00000   0.00000  -0.04962   0.00000   0.00000   0.00000   0.00000   0.00000 ...
   0.00000   0.00000   0.00000   0.00000   1.99406   0.00000   0.00000  -0.04962   0.00000   0.00000   0.00000   0.00000 ...
   0.00000   0.00000  -0.04962   0.00000   0.00000   1.26652   0.00000   0.00000   0.00000   0.00000   0.00000   0.00000 ...
   0.00000   0.00000   0.00000  -0.04962   0.00000   0.00000   1.26652   0.00000   0.00000   0.00000   0.00000   0.00000 ...
   0.00000   0.00000   0.00000   0.00000  -0.04962   0.00000   0.00000   1.26652   0.00000   0.00000   0.00000   0.00000 ...
   0.00000   0.00000   0.00000   0.00000   0.00000   0.00000   0.00000   0.00000   0.49985   0.00000   0.00000   0.00000 ...
   0.00000   0.00000   0.00000   0.00000   0.00000   0.00000   0.00000   0.00000   0.00000   0.49985   0.00000   0.00000 ...
   0.00000   0.00000   0.00000   0.00000   0.00000   0.00000   0.00000   0.00000   0.00000   0.00000   1.46121   0.00000 ...
   0.00000   0.00000   0.00000   0.00000   0.00000   0.00000   0.00000   0.00000   0.00000   0.00000   0.00000   0.49985 ...
   ...  only 12  components have been written...


[...]
                       8.1767787014E+00  5.4876956633E+00  5.4876956633E+00
                       2.7986126253E+00  5.4876956633E+00  5.4876956633E+00
                      -2.2695299179E-18 -3.7360820651E-18 -2.0288671004E-19
           xangst7     2.7408458100E+00  2.7408458100E+00  2.7408458100E+00
                       8.2225374299E+00  8.2225374299E+00  8.2225374299E+00
                       5.4816916199E+00  8.1660820283E+00  5.4816916199E+00
                       5.4816916199E+00  5.4816916199E+00  2.7973012116E+00
                       5.4816916199E+00  5.4816916199E+00  8.1660820283E+00
                       5.4816916199E+00  2.7973012116E+00  5.4816916199E+00
                       8.1660820283E+00  5.4816916199E+00  5.4816916199E+00
                       2.7973012116E+00  5.4816916199E+00  5.4816916199E+00
                      -2.2316335520E-18 -3.5529415049E-18 -1.9356371705E-19
           xangst8     2.7378437883E+00  2.7378437883E+00  2.7378437883E+00
                       8.2135313648E+00  8.2135313648E+00  8.2135313648E+00
                       5.4756875765E+00  8.1554567917E+00  5.4756875765E+00
                       5.4756875765E+00  5.4756875765E+00  2.7959183613E+00
                       5.4756875765E+00  5.4756875765E+00  8.1554567917E+00
                       5.4756875765E+00  2.7959183613E+00  5.4756875765E+00
                       8.1554567917E+00  5.4756875765E+00  5.4756875765E+00
                       2.7959183613E+00  5.4756875765E+00  5.4756875765E+00
                      -1.9781097303E-18 -3.8109225251E-18 -3.3356357730E-19
           xangst9     2.7348417666E+00  2.7348417666E+00  2.7348417666E+00
                       8.2045252997E+00  8.2045252997E+00  8.2045252997E+00
                       5.4696835331E+00  8.1447742620E+00  5.4696835331E+00
                       5.4696835331E+00  5.4696835331E+00  2.7945928043E+00
                       5.4696835331E+00  5.4696835331E+00  8.1447742620E+00
                       5.4696835331E+00  2.7945928043E+00  5.4696835331E+00
                       8.1447742620E+00  5.4696835331E+00  5.4696835331E+00
                       2.7945928043E+00  5.4696835331E+00  5.4696835331E+00
                      -2.2922732869E-18 -3.7319434697E-18 -1.9362964355E-19
            xcart1     5.2134859464E+00  5.2134859464E+00  5.2134859464E+00
                       1.5640457839E+01  1.5640457839E+01  1.5640457839E+01
                       1.0426971893E+01  1.5553412593E+01  1.0426971893E+01
                       1.0426971893E+01  1.0426971893E+01  5.3005311928E+00
                       1.0426971893E+01  1.0426971893E+01  1.5553412593E+01
                       1.0426971893E+01  5.3005311928E+00  1.0426971893E+01
                       1.5553412593E+01  1.0426971893E+01  1.0426971893E+01
                       5.3005311928E+00  1.0426971893E+01  1.0426971893E+01
                      -4.0900655430E-18 -7.1509209081E-18 -7.8883400334E-19
            xcart2     5.2078129476E+00  5.2078129476E+00  5.2078129476E+00
                       1.5623438843E+01  1.5623438843E+01  1.5623438843E+01
                       1.0415625895E+01  1.5533066979E+01  1.0415625895E+01
                       1.0415625895E+01  1.0415625895E+01  5.2981848112E+00
                       1.0415625895E+01  1.0415625895E+01  1.5533066979E+01
                       1.0415625895E+01  5.2981848112E+00  1.0415625895E+01
                       1.5533066979E+01  1.0415625895E+01  1.0415625895E+01
                       5.2981848112E+00  1.0415625895E+01  1.0415625895E+01
                      -4.3079557147E-18 -7.0919409908E-18 -3.8480705477E-19
            xcart3     5.2021399487E+00  5.2021399487E+00  5.2021399487E+00
                       1.5606419846E+01  1.5606419846E+01  1.5606419846E+01
                       1.0404279897E+01  1.5512739730E+01  1.0404279897E+01
                       1.0404279897E+01  1.0404279897E+01  5.2958200645E+00
                       1.0404279897E+01  1.0404279897E+01  1.5512739730E+01
                       1.0404279897E+01  5.2958200645E+00  1.0404279897E+01
                       1.5512739730E+01  1.0404279897E+01  1.0404279897E+01
                       5.2958200645E+00  1.0404279897E+01  1.0404279897E+01
                      -4.9305683609E-18 -7.0703643549E-18 -6.8487942427E-19
            xcart4     5.1964669499E+00  5.1964669499E+00  5.1964669499E+00
                       1.5589400850E+01  1.5589400850E+01  1.5589400850E+01
                       1.0392933900E+01  1.5492406731E+01  1.0392933900E+01
                       1.0392933900E+01  1.0392933900E+01  5.2934610689E+00
                       1.0392933900E+01  1.0392933900E+01  1.5492406731E+01
                       1.0392933900E+01  5.2934610689E+00  1.0392933900E+01
                       1.5492406731E+01  1.0392933900E+01  1.0392933900E+01
                       5.2934610689E+00  1.0392933900E+01  1.0392933900E+01
                      -4.8399983698E-18 -7.5630148231E-18  9.2359359840E-19
            xcart5     5.1907939510E+00  5.1907939510E+00  5.1907939510E+00
                       1.5572381853E+01  1.5572381853E+01  1.5572381853E+01
                       1.0381587902E+01  1.5472105365E+01  1.0381587902E+01
                       1.0381587902E+01  1.0381587902E+01  5.2910704394E+00
                       1.0381587902E+01  1.0381587902E+01  1.5472105365E+01
                       1.0381587902E+01  5.2910704394E+00  1.0381587902E+01
                       1.5472105365E+01  1.0381587902E+01  1.0381587902E+01
                       5.2910704394E+00  1.0381587902E+01  1.0381587902E+01
                      -4.2958479577E-18 -7.0667623976E-18 -3.8560417769E-19
            xcart6     5.1851209522E+00  5.1851209522E+00  5.1851209522E+00
                       1.5555362856E+01  1.5555362856E+01  1.5555362856E+01
                       1.0370241904E+01  1.5451872395E+01  1.0370241904E+01
                       1.0370241904E+01  1.0370241904E+01  5.2886114138E+00
                       1.0370241904E+01  1.0370241904E+01  1.5451872395E+01
                       1.0370241904E+01  5.2886114138E+00  1.0370241904E+01
                       1.5451872395E+01  1.0370241904E+01  1.0370241904E+01
                       5.2886114138E+00  1.0370241904E+01  1.0370241904E+01
                      -4.2887899953E-18 -7.0601719129E-18 -3.8340031798E-19
            xcart7     5.1794479533E+00  5.1794479533E+00  5.1794479533E+00
                       1.5538343860E+01  1.5538343860E+01  1.5538343860E+01
                       1.0358895907E+01  1.5431658612E+01  1.0358895907E+01
                       1.0358895907E+01  1.0358895907E+01  5.2861332011E+00
                       1.0358895907E+01  1.0358895907E+01  1.5431658612E+01
                       1.0358895907E+01  5.2861332011E+00  1.0358895907E+01
                       1.5431658612E+01  1.0358895907E+01  1.0358895907E+01
                       5.2861332011E+00  1.0358895907E+01  1.0358895907E+01
                      -4.2171762423E-18 -6.7140864105E-18 -3.6578241450E-19
            xcart8     5.1737749545E+00  5.1737749545E+00  5.1737749545E+00
                       1.5521324863E+01  1.5521324863E+01  1.5521324863E+01
                       1.0347549909E+01  1.5411579825E+01  1.0347549909E+01
                       1.0347549909E+01  1.0347549909E+01  5.2835199928E+00
                       1.0347549909E+01  1.0347549909E+01  1.5411579825E+01
                       1.0347549909E+01  5.2835199928E+00  1.0347549909E+01
                       1.5411579825E+01  1.0347549909E+01  1.0347549909E+01
                       5.2835199928E+00  1.0347549909E+01  1.0347549909E+01
                      -3.7380856511E-18 -7.2015998862E-18 -6.3034380901E-19
            xcart9     5.1681019556E+00  5.1681019556E+00  5.1681019556E+00
                       1.5504305867E+01  1.5504305867E+01  1.5504305867E+01
                       1.0336203911E+01  1.5391392769E+01  1.0336203911E+01
                       1.0336203911E+01  1.0336203911E+01  5.2810150531E+00
                       1.0336203911E+01  1.0336203911E+01  1.5391392769E+01
                       1.0336203911E+01  5.2810150531E+00  1.0336203911E+01
                       1.5391392769E+01  1.0336203911E+01  1.0336203911E+01
                       5.2810150531E+00  1.0336203911E+01  1.0336203911E+01
                      -4.3317687340E-18 -7.0523511011E-18 -3.6590699752E-19
             xred1     2.5000000000E-01  2.5000000000E-01  2.5000000000E-01
                       7.5000000000E-01  7.5000000000E-01  7.5000000000E-01
                       7.4582595756E-01  2.5417404244E-01  7.4582595756E-01
                       2.5417404244E-01  2.5417404244E-01  7.4582595756E-01
                       7.4582595756E-01  7.4582595756E-01  2.5417404244E-01
                       2.5417404244E-01  7.4582595756E-01  2.5417404244E-01
                       2.5417404244E-01  7.4582595756E-01  7.4582595756E-01
                       7.4582595756E-01  2.5417404244E-01  2.5417404244E-01
                      -1.8460246215E-19  1.0894924169E-19 -5.0120747208E-19
             xred2     2.5000000000E-01  2.5000000000E-01  2.5000000000E-01
                       7.5000000000E-01  7.5000000000E-01  7.5000000000E-01
                       7.4566171709E-01  2.5433828291E-01  7.4566171709E-01
                       2.5433828291E-01  2.5433828291E-01  7.4566171709E-01
                       7.4566171709E-01  7.4566171709E-01  2.5433828291E-01
                       2.5433828291E-01  7.4566171709E-01  2.5433828291E-01
                       2.5433828291E-01  7.4566171709E-01  7.4566171709E-01
                       7.4566171709E-01  2.5433828291E-01  2.5433828291E-01
                      -1.5211723053E-19  1.1517206193E-19 -5.2877713551E-19
             xred3     2.5000000000E-01  2.5000000000E-01  2.5000000000E-01
                       7.5000000000E-01  7.5000000000E-01  7.5000000000E-01
                       7.4549800098E-01  2.5450199902E-01  7.4549800098E-01
                       2.5450199902E-01  2.5450199902E-01  7.4549800098E-01
                       7.4549800098E-01  7.4549800098E-01  2.5450199902E-01
                       2.5450199902E-01  7.4549800098E-01  2.5450199902E-01
                       2.5450199902E-01  7.4549800098E-01  7.4549800098E-01
                       7.4549800098E-01  2.5450199902E-01  2.5450199902E-01
                      -1.3574583951E-19  6.9919138285E-20 -5.4381722729E-19
             xred4     2.5000000000E-01  2.5000000000E-01  2.5000000000E-01
                       7.5000000000E-01  7.5000000000E-01  7.5000000000E-01
                       7.4533365073E-01  2.5466634927E-01  7.4533365073E-01
                       2.5466634927E-01  2.5466634927E-01  7.4533365073E-01
                       7.4533365073E-01  7.4533365073E-01  2.5466634927E-01
                       2.5466634927E-01  7.4533365073E-01  2.5466634927E-01
                       2.5466634927E-01  7.4533365073E-01  7.4533365073E-01
                       7.4533365073E-01  2.5466634927E-01  2.5466634927E-01
                      -8.6569532353E-20  1.7543698858E-19 -6.4113785962E-19
             xred5     2.5000000000E-01  2.5000000000E-01  2.5000000000E-01
                       7.5000000000E-01  7.5000000000E-01  7.5000000000E-01
                       7.4517046480E-01  2.5482953520E-01  7.4517046480E-01
                       2.5482953520E-01  2.5482953520E-01  7.4517046480E-01
                       7.4517046480E-01  7.4517046480E-01  2.5482953520E-01
                       2.5482953520E-01  7.4517046480E-01  2.5482953520E-01
                       2.5482953520E-01  7.4517046480E-01  7.4517046480E-01
                       7.4517046480E-01  2.5482953520E-01  2.5482953520E-01
                      -1.5202484665E-19  1.1488176398E-19 -5.2867664760E-19
             xred6     2.5000000000E-01  2.5000000000E-01  2.5000000000E-01
                       7.5000000000E-01  7.5000000000E-01  7.5000000000E-01
                       7.4501021950E-01  2.5498978050E-01  7.4501021950E-01
                       2.5498978050E-01  2.5498978050E-01  7.4501021950E-01
                       7.4501021950E-01  7.4501021950E-01  2.5498978050E-01
                       2.5498978050E-01  7.4501021950E-01  2.5498978050E-01
                       2.5498978050E-01  7.4501021950E-01  7.4501021950E-01
                       7.4501021950E-01  2.5498978050E-01  2.5498978050E-01
                      -1.5210745635E-19  1.1513625341E-19 -5.2870326900E-19
             xred7     2.5000000000E-01  2.5000000000E-01  2.5000000000E-01
                       7.5000000000E-01  7.5000000000E-01  7.5000000000E-01
                       7.4485054929E-01  2.5514945071E-01  7.4485054929E-01
                       2.5514945071E-01  2.5514945071E-01  7.4485054929E-01
                       7.4485054929E-01  7.4485054929E-01  2.5514945071E-01
                       2.5514945071E-01  7.4485054929E-01  2.5514945071E-01
                       2.5514945071E-01  7.4485054929E-01  7.4485054929E-01
                       7.4485054929E-01  2.5514945071E-01  2.5514945071E-01
                      -1.3817556468E-19  1.0286461863E-19 -5.0997134895E-19
             xred8     2.5000000000E-01  2.5000000000E-01  2.5000000000E-01
                       7.5000000000E-01  7.5000000000E-01  7.5000000000E-01
                       7.4469705199E-01  2.5530294801E-01  7.4469705199E-01
                       2.5530294801E-01  2.5530294801E-01  7.4469705199E-01
                       7.4469705199E-01  7.4469705199E-01  2.5530294801E-01
                       2.5530294801E-01  7.4469705199E-01  2.5530294801E-01
                       2.5530294801E-01  7.4469705199E-01  7.4469705199E-01
                       7.4469705199E-01  2.5530294801E-01  2.5530294801E-01
                      -1.9781774817E-19  1.3690054414E-19 -4.9815375712E-19
             xred9     2.5000000000E-01  2.5000000000E-01  2.5000000000E-01
                       7.5000000000E-01  7.5000000000E-01  7.5000000000E-01
                       7.4453798036E-01  2.5546201964E-01  7.4453798036E-01
                       2.5546201964E-01  2.5546201964E-01  7.4453798036E-01
                       7.4453798036E-01  7.4453798036E-01  2.5546201964E-01
                       2.5546201964E-01  7.4453798036E-01  2.5546201964E-01
                       2.5546201964E-01  7.4453798036E-01  7.4453798036E-01
                       7.4453798036E-01  2.5546201964E-01  2.5546201964E-01
                      -1.4930478303E-19  1.1390426262E-19 -5.3299126702E-19
            znucl       55.00000   53.00000   72.00000

================================================================================


- Timing analysis has been suppressed with timopt=0



================================================================================

 Suggested references for the acknowledgment of ABINIT usage.

 The users of ABINIT have little formal obligations with respect to the ABINIT group
 (those specified in the GNU General Public License, http://www.gnu.org/copyleft/gpl.txt).
 However, it is common practice in the scientific literature,
 to acknowledge the efforts of people that have made the research possible.
 In this spirit, please find below suggested citations of work written by ABINIT developers,
 corresponding to implementations inside of ABINIT that you have used in the present run.
 Note also that it will be of great value to readers of publications presenting these results,
 to read papers enabling them to understand the theoretical formalism and details
 of the ABINIT implementation.
 For information on why they are suggested, see also https://docs.abinit.org/theory/acknowledgments.
-
- [1] Implementation of the Projector Augmented-Wave Method in the ABINIT code.
- M. Torrent, F. Jollet, F. Bottin, G. Zerah, and X. Gonze Comput. Mat. Science 42, 337, (2008).
- Comment: PAW calculations. Strong suggestion to cite this paper.
- DOI and bibtex: see https://docs.abinit.org/theory/bibliography/#torrent2008
-
- [2] Libxc: A library of exchange and correlation functionals for density functional theory.
- M.A.L. Marques, M.J.T. Oliveira, T. Burnus, Computer Physics Communications 183, 2227 (2012).
- Comment: to be cited when LibXC is used (negative value of ixc)
- Strong suggestion to cite this paper.
- DOI and bibtex: see https://docs.abinit.org/theory/bibliography/#marques2012
-
- [3] The Abinit project: Impact, environment and recent developments.
- Computer Phys. Comm. 248, 107042 (2020).
- X.Gonze, B. Amadon, G. Antonius, F.Arnardi, L.Baguet, J.-M.Beuken,
- J.Bieder, F.Bottin, J.Bouchet, E.Bousquet, N.Brouwer, F.Bruneval,
- G.Brunin, T.Cavignac, J.-B. Charraud, Wei Chen, M.Cote, S.Cottenier,
- J.Denier, G.Geneste, Ph.Ghosez, M.Giantomassi, Y.Gillet, O.Gingras,
- D.R.Hamann, G.Hautier, Xu He, N.Helbig, N.Holzwarth, Y.Jia, F.Jollet,
- W.Lafargue-Dit-Hauret, K.Lejaeghere, M.A.L.Marques, A.Martin, C.Martins,
- H.P.C. Miranda, F.Naccarato, K. Persson, G.Petretto, V.Planes, Y.Pouillon,
- S.Prokhorenko, F.Ricci, G.-M.Rignanese, A.H.Romero, M.M.Schmitt, M.Torrent,
- M.J.van Setten, B.Van Troeye, M.J.Verstraete, G.Zerah and J.W.Zwanzig
- Comment: the fifth generic paper describing the ABINIT project.
- Note that a version of this paper, that is not formatted for Computer Phys. Comm. 
- is available at https://www.abinit.org/sites/default/files/ABINIT20.pdf .
- The licence allows the authors to put it on the Web.
- DOI and bibtex: see https://docs.abinit.org/theory/bibliography/#gonze2020
-
- [4] ABINIT: Overview, and focus on selected capabilities
- J. Chem. Phys. 152, 124102 (2020).
- A. Romero, D.C. Allan, B. Amadon, G. Antonius, T. Applencourt, L.Baguet,
- J.Bieder, F.Bottin, J.Bouchet, E.Bousquet, F.Bruneval,
- G.Brunin, D.Caliste, M.Cote,
- J.Denier, C. Dreyer, Ph.Ghosez, M.Giantomassi, Y.Gillet, O.Gingras,
- D.R.Hamann, G.Hautier, F.Jollet, G. Jomard,
- A.Martin, 
- H.P.C. Miranda, F.Naccarato, G.Petretto, N.A. Pike, V.Planes,
- S.Prokhorenko, T. Rangel, F.Ricci, G.-M.Rignanese, M.Royo, M.Stengel, M.Torrent,
- M.J.van Setten, B.Van Troeye, M.J.Verstraete, J.Wiktor, J.W.Zwanziger, and X.Gonze.
- Comment: a global overview of ABINIT, with focus on selected capabilities .
- Note that a version of this paper, that is not formatted for J. Chem. Phys 
- is available at https://www.abinit.org/sites/default/files/ABINIT20_JPC.pdf .
- The licence allows the authors to put it on the Web.
- DOI and bibtex: see https://docs.abinit.org/theory/bibliography/#romero2020
-
- [5] Recent developments in the ABINIT software package.
- Computer Phys. Comm. 205, 106 (2016).
- X.Gonze, F.Jollet, F.Abreu Araujo, D.Adams, B.Amadon, T.Applencourt,
- C.Audouze, J.-M.Beuken, J.Bieder, A.Bokhanchuk, E.Bousquet, F.Bruneval
- D.Caliste, M.Cote, F.Dahm, F.Da Pieve, M.Delaveau, M.Di Gennaro,
- B.Dorado, C.Espejo, G.Geneste, L.Genovese, A.Gerossier, M.Giantomassi,
- Y.Gillet, D.R.Hamann, L.He, G.Jomard, J.Laflamme Janssen, S.Le Roux,
- A.Levitt, A.Lherbier, F.Liu, I.Lukacevic, A.Martin, C.Martins,
- M.J.T.Oliveira, S.Ponce, Y.Pouillon, T.Rangel, G.-M.Rignanese,
- A.H.Romero, B.Rousseau, O.Rubel, A.A.Shukri, M.Stankovski, M.Torrent,
- M.J.Van Setten, B.Van Troeye, M.J.Verstraete, D.Waroquier, J.Wiktor,
- B.Xu, A.Zhou, J.W.Zwanziger.
- Comment: the fourth generic paper describing the ABINIT project.
- Note that a version of this paper, that is not formatted for Computer Phys. Comm. 
- is available at https://www.abinit.org/sites/default/files/ABINIT16.pdf .
- The licence allows the authors to put it on the Web.
- DOI and bibtex: see https://docs.abinit.org/theory/bibliography/#gonze2016
-
- Proc.   0 individual time (sec): cpu=       6457.5  wall=       6457.8

================================================================================

 Calculation completed.
.Delivered   0 WARNINGs and   0 COMMENTs to log file.
+Overall time at end (sec) : cpu=      25830.0  wall=      25831.0
