
.Version 9.2.2 of ABINIT 
.(MPI version, prepared for a x86_64_linux_gnu9.3 computer) 

.Copyright (C) 1998-2020 ABINIT group . 
 ABINIT comes with ABSOLUTELY NO WARRANTY.
 It is free software, and you are welcome to redistribute it
 under certain conditions (GNU General Public License,
 see ~abinit/COPYING or http://www.gnu.org/copyleft/gpl.txt).

 ABINIT is a project of the Universite Catholique de Louvain,
 Corning Inc. and other collaborators, see ~abinit/doc/developers/contributors.txt .
 Please read https://docs.abinit.org/theory/acknowledgments for suggested
 acknowledgments of the ABINIT effort.
 For more information, see https://www.abinit.org .

.Starting date : Wed 26 Oct 2022.
- ( at 16h32 )
  
- input  file    -> Cs2TiI6.in
- output file    -> Cs2TiI6.out
- root for input  files -> Cs2TiI6i
- root for output files -> Cs2TiI6o

- inpspheads : Reading pseudopotential header in XML form from 
-   ../../../Psps_for_tests/ATOMICDATA/Cs.GGA_PBE-JTH.xml
- inpspheads : Reading pseudopotential header in XML form from 
-   ../../../Psps_for_tests/ATOMICDATA/I.GGA_PBE-JTH.xml
- inpspheads : Reading pseudopotential header in XML form from 
-   ../../../Psps_for_tests/ATOMICDATA/Hf.GGA_PBE-JTH.xml
- inpspheads : Reading pseudopotential header in XML form from 
-   ../../../Psps_for_tests/ATOMICDATA/Br.GGA_PBE-JTH.xml

 DATASET    1 : space group I4 m m (#107); Bravais tI (body-center tetrag.)
================================================================================
 Values of the parameters that define the memory need for DATASET  1.
     intxc =       0    ionmov =       0      iscf =      17    lmnmax =      18
     lnmax =       6     mgfft =      60  mpssoang =       3    mqgrid =    3664
     natom =       9  nloc_mem =       2    nspden =       1   nspinor =       1
    nsppol =       1      nsym =       8    n1xccc =       1    ntypat =       4
    occopt =       1   xclevel =       2
-    mband =          42        mffmem =           1         mkmem =          28
       mpw =        8480          nfft =      216000          nkpt =         163
Pmy_natom=         2
 PAW method is used; the additional fine FFT grid is defined by:
   mgfftf=        96    nfftf =    884736
================================================================================
P This job should need less than                     418.688 Mbytes of memory.
  Rough estimation (10% accuracy) of disk space for files :
_ WF disk file :    885.837 Mbytes ; DEN or POT disk file :      6.752 Mbytes.
================================================================================


 DATASET    2 : space group I4 m m (#107); Bravais tI (body-center tetrag.)
================================================================================
 Values of the parameters that define the memory need for DATASET  2.
     intxc =       0    ionmov =       0      iscf =      17    lmnmax =      18
     lnmax =       6     mgfft =      60  mpssoang =       3    mqgrid =    3627
     natom =       9  nloc_mem =       2    nspden =       1   nspinor =       1
    nsppol =       1      nsym =       8    n1xccc =       1    ntypat =       4
    occopt =       1   xclevel =       2
-    mband =          42        mffmem =           1         mkmem =          28
       mpw =        8238          nfft =      216000          nkpt =         163
Pmy_natom=         2
 PAW method is used; the additional fine FFT grid is defined by:
   mgfftf=        90    nfftf =    729000
================================================================================
P This job should need less than                     376.885 Mbytes of memory.
  Rough estimation (10% accuracy) of disk space for files :
_ WF disk file :    860.557 Mbytes ; DEN or POT disk file :      5.564 Mbytes.
================================================================================


 DATASET    3 : space group I4 m m (#107); Bravais tI (body-center tetrag.)
================================================================================
 Values of the parameters that define the memory need for DATASET  3.
     intxc =       0    ionmov =       0      iscf =      17    lmnmax =      18
     lnmax =       6     mgfft =      60  mpssoang =       3    mqgrid =    3590
     natom =       9  nloc_mem =       2    nspden =       1   nspinor =       1
    nsppol =       1      nsym =       8    n1xccc =       1    ntypat =       4
    occopt =       1   xclevel =       2
-    mband =          42        mffmem =           1         mkmem =          28
       mpw =        7986          nfft =      216000          nkpt =         163
Pmy_natom=         2
 PAW method is used; the additional fine FFT grid is defined by:
   mgfftf=        90    nfftf =    729000
================================================================================
P This job should need less than                     371.902 Mbytes of memory.
  Rough estimation (10% accuracy) of disk space for files :
_ WF disk file :    834.233 Mbytes ; DEN or POT disk file :      5.564 Mbytes.
================================================================================


 DATASET    4 : space group I4 m m (#107); Bravais tI (body-center tetrag.)
================================================================================
 Values of the parameters that define the memory need for DATASET  4.
     intxc =       0    ionmov =       0      iscf =      17    lmnmax =      18
     lnmax =       6     mgfft =      60  mpssoang =       3    mqgrid =    3553
     natom =       9  nloc_mem =       2    nspden =       1   nspinor =       1
    nsppol =       1      nsym =       8    n1xccc =       1    ntypat =       4
    occopt =       1   xclevel =       2
-    mband =          42        mffmem =           1         mkmem =          28
       mpw =        7740          nfft =      216000          nkpt =         163
Pmy_natom=         2
 PAW method is used; the additional fine FFT grid is defined by:
   mgfftf=        90    nfftf =    729000
================================================================================
P This job should need less than                     367.045 Mbytes of memory.
  Rough estimation (10% accuracy) of disk space for files :
_ WF disk file :    808.535 Mbytes ; DEN or POT disk file :      5.564 Mbytes.
================================================================================


 DATASET    5 : space group I4 m m (#107); Bravais tI (body-center tetrag.)
================================================================================
 Values of the parameters that define the memory need for DATASET  5.
     intxc =       0    ionmov =       0      iscf =      17    lmnmax =      18
     lnmax =       6     mgfft =      60  mpssoang =       3    mqgrid =    3516
     natom =       9  nloc_mem =       2    nspden =       1   nspinor =       1
    nsppol =       1      nsym =       8    n1xccc =       1    ntypat =       4
    occopt =       1   xclevel =       2
-    mband =          42        mffmem =           1         mkmem =          28
       mpw =        7522          nfft =      216000          nkpt =         163
Pmy_natom=         2
 PAW method is used; the additional fine FFT grid is defined by:
   mgfftf=        90    nfftf =    729000
================================================================================
P This job should need less than                     362.758 Mbytes of memory.
  Rough estimation (10% accuracy) of disk space for files :
_ WF disk file :    785.763 Mbytes ; DEN or POT disk file :      5.564 Mbytes.
================================================================================


 DATASET    6 : space group I4 m m (#107); Bravais tI (body-center tetrag.)
================================================================================
 Values of the parameters that define the memory need for DATASET  6.
     intxc =       0    ionmov =       0      iscf =      17    lmnmax =      18
     lnmax =       6     mgfft =      60  mpssoang =       3    mqgrid =    3479
     natom =       9  nloc_mem =       2    nspden =       1   nspinor =       1
    nsppol =       1      nsym =       8    n1xccc =       1    ntypat =       4
    occopt =       1   xclevel =       2
-    mband =          42        mffmem =           1         mkmem =          28
       mpw =        7284          nfft =      216000          nkpt =         163
Pmy_natom=         2
 PAW method is used; the additional fine FFT grid is defined by:
   mgfftf=        90    nfftf =    729000
================================================================================
P This job should need less than                     358.073 Mbytes of memory.
  Rough estimation (10% accuracy) of disk space for files :
_ WF disk file :    760.901 Mbytes ; DEN or POT disk file :      5.564 Mbytes.
================================================================================


 DATASET    7 : space group I4 m m (#107); Bravais tI (body-center tetrag.)
================================================================================
 Values of the parameters that define the memory need for DATASET  7.
     intxc =       0    ionmov =       0      iscf =      17    lmnmax =      18
     lnmax =       6     mgfft =      54  mpssoang =       3    mqgrid =    3441
     natom =       9  nloc_mem =       2    nspden =       1   nspinor =       1
    nsppol =       1      nsym =       8    n1xccc =       1    ntypat =       4
    occopt =       1   xclevel =       2
-    mband =          42        mffmem =           1         mkmem =          28
       mpw =        7039          nfft =      157464          nkpt =         163
Pmy_natom=         2
 PAW method is used; the additional fine FFT grid is defined by:
   mgfftf=        90    nfftf =    729000
================================================================================
P This job should need less than                     344.538 Mbytes of memory.
  Rough estimation (10% accuracy) of disk space for files :
_ WF disk file :    735.308 Mbytes ; DEN or POT disk file :      5.564 Mbytes.
================================================================================


 DATASET    8 : space group I4 m m (#107); Bravais tI (body-center tetrag.)
================================================================================
 Values of the parameters that define the memory need for DATASET  8.
     intxc =       0    ionmov =       0      iscf =      17    lmnmax =      18
     lnmax =       6     mgfft =      54  mpssoang =       3    mqgrid =    3404
     natom =       9  nloc_mem =       2    nspden =       1   nspinor =       1
    nsppol =       1      nsym =       8    n1xccc =       1    ntypat =       4
    occopt =       1   xclevel =       2
-    mband =          42        mffmem =           1         mkmem =          28
       mpw =        6846          nfft =      157464          nkpt =         163
Pmy_natom=         2
 PAW method is used; the additional fine FFT grid is defined by:
   mgfftf=        90    nfftf =    729000
================================================================================
P This job should need less than                     340.772 Mbytes of memory.
  Rough estimation (10% accuracy) of disk space for files :
_ WF disk file :    715.147 Mbytes ; DEN or POT disk file :      5.564 Mbytes.
================================================================================


 DATASET    9 : space group I4 m m (#107); Bravais tI (body-center tetrag.)
================================================================================
 Values of the parameters that define the memory need for DATASET  9.
     intxc =       0    ionmov =       0      iscf =      17    lmnmax =      18
     lnmax =       6     mgfft =      54  mpssoang =       3    mqgrid =    3367
     natom =       9  nloc_mem =       2    nspden =       1   nspinor =       1
    nsppol =       1      nsym =       8    n1xccc =       1    ntypat =       4
    occopt =       1   xclevel =       2
-    mband =          42        mffmem =           1         mkmem =          28
       mpw =        6606          nfft =      157464          nkpt =         163
Pmy_natom=         2
 PAW method is used; the additional fine FFT grid is defined by:
   mgfftf=        90    nfftf =    729000
================================================================================
P This job should need less than                     336.063 Mbytes of memory.
  Rough estimation (10% accuracy) of disk space for files :
_ WF disk file :    690.076 Mbytes ; DEN or POT disk file :      5.564 Mbytes.
================================================================================

--------------------------------------------------------------------------------
------------- Echo of variables that govern the present computation ------------
--------------------------------------------------------------------------------
-
- outvars: echo of selected default values                                      
-   iomode0 =  0 , fftalg0 =112 , wfoptalg0 = 10
-
- outvars: echo of global parameters not present in the input file              
-  max_nthreads =    0
-
 -outvars: echo values of preprocessed input variables --------
            acell1     1.5717069862E+01  1.5844896156E+01  1.5717069862E+01 Bohr
            acell2     1.5558317349E+01  1.5684834469E+01  1.5558317349E+01 Bohr
            acell3     1.5398210388E+01  1.5527647269E+01  1.5398210388E+01 Bohr
            acell4     1.5238288778E+01  1.5370071461E+01  1.5238288778E+01 Bohr
            acell5     1.5077348679E+01  1.5214673445E+01  1.5077348679E+01 Bohr
            acell6     1.4915903673E+01  1.5060374231E+01  1.4915903673E+01 Bohr
            acell7     1.4754653617E+01  1.4905680897E+01  1.4754653617E+01 Bohr
            acell8     1.4593128499E+01  1.4751605733E+01  1.4593128499E+01 Bohr
            acell9     1.4431211574E+01  1.4598412271E+01  1.4431211574E+01 Bohr
              amu      1.32905430E+02  1.26904470E+02  1.78490000E+02
                       7.99040000E+01
           diemac      1.20000000E+01
             ecut      1.60000000E+01 Hartree
-          fftalg         112
           istwfk        2    0    0    0    0    0    3    0    0    0
                         0    0    0    0    0    0    0    0    0    0
                         0    0    0    0    0    0    0    0    0    0
                         0    0    0    0    0    0    0    0    0    0
                         0    0    7    0    0    0    0    0    0    0
                       outvar_i_n : Printing only first  50 k-points.
              ixc     -101130
           jdtset        1    2    3    4    5    6    7    8    9
              kpt      0.00000000E+00  0.00000000E+00  0.00000000E+00
                       8.33333333E-02  0.00000000E+00  0.00000000E+00
                       1.66666667E-01  0.00000000E+00  0.00000000E+00
                       2.50000000E-01  0.00000000E+00  0.00000000E+00
                       3.33333333E-01  0.00000000E+00  0.00000000E+00
                       4.16666667E-01  0.00000000E+00  0.00000000E+00
                       5.00000000E-01  0.00000000E+00  0.00000000E+00
                       8.33333333E-02  8.33333333E-02  0.00000000E+00
                       1.66666667E-01  8.33333333E-02  0.00000000E+00
                       2.50000000E-01  8.33333333E-02  0.00000000E+00
                       3.33333333E-01  8.33333333E-02  0.00000000E+00
                       4.16666667E-01  8.33333333E-02  0.00000000E+00
                       5.00000000E-01  8.33333333E-02  0.00000000E+00
                      -4.16666667E-01  8.33333333E-02  0.00000000E+00
                      -3.33333333E-01  8.33333333E-02  0.00000000E+00
                      -2.50000000E-01  8.33333333E-02  0.00000000E+00
                      -1.66666667E-01  8.33333333E-02  0.00000000E+00
                      -8.33333333E-02  8.33333333E-02  0.00000000E+00
                       1.66666667E-01  1.66666667E-01  0.00000000E+00
                       2.50000000E-01  1.66666667E-01  0.00000000E+00
                       3.33333333E-01  1.66666667E-01  0.00000000E+00
                       4.16666667E-01  1.66666667E-01  0.00000000E+00
                       5.00000000E-01  1.66666667E-01  0.00000000E+00
                      -4.16666667E-01  1.66666667E-01  0.00000000E+00
                      -3.33333333E-01  1.66666667E-01  0.00000000E+00
                      -2.50000000E-01  1.66666667E-01  0.00000000E+00
                      -1.66666667E-01  1.66666667E-01  0.00000000E+00
                       2.50000000E-01  2.50000000E-01  0.00000000E+00
                       3.33333333E-01  2.50000000E-01  0.00000000E+00
                       4.16666667E-01  2.50000000E-01  0.00000000E+00
                       5.00000000E-01  2.50000000E-01  0.00000000E+00
                      -4.16666667E-01  2.50000000E-01  0.00000000E+00
                      -3.33333333E-01  2.50000000E-01  0.00000000E+00
                      -2.50000000E-01  2.50000000E-01  0.00000000E+00
                       3.33333333E-01  3.33333333E-01  0.00000000E+00
                       4.16666667E-01  3.33333333E-01  0.00000000E+00
                       5.00000000E-01  3.33333333E-01  0.00000000E+00
                      -4.16666667E-01  3.33333333E-01  0.00000000E+00
                      -3.33333333E-01  3.33333333E-01  0.00000000E+00
                       4.16666667E-01  4.16666667E-01  0.00000000E+00
                       5.00000000E-01  4.16666667E-01  0.00000000E+00
                      -4.16666667E-01  4.16666667E-01  0.00000000E+00
                       5.00000000E-01  5.00000000E-01  0.00000000E+00
                       8.33333333E-02  0.00000000E+00  8.33333333E-02
                       1.66666667E-01  0.00000000E+00  8.33333333E-02
                       2.50000000E-01  0.00000000E+00  8.33333333E-02
                       3.33333333E-01  0.00000000E+00  8.33333333E-02
                       4.16666667E-01  0.00000000E+00  8.33333333E-02
                       5.00000000E-01  0.00000000E+00  8.33333333E-02
                      -4.16666667E-01  0.00000000E+00  8.33333333E-02
                       outvar_i_n : Printing only first  50 k-points.
         kptrlatt       12    0    0      0   12    0      0    0   12
          kptrlen1     1.88604838E+02
          kptrlen2     1.86699808E+02
          kptrlen3     1.84778525E+02
          kptrlen4     1.82859465E+02
          kptrlen5     1.80928184E+02
          kptrlen6     1.78990844E+02
          kptrlen7     1.77055843E+02
          kptrlen8     1.75117542E+02
          kptrlen9     1.73174539E+02
P           mkmem          28
            natom           9
            nband          42
           ndtset           9
            ngfft1         60      60      60
            ngfft2         60      60      60
            ngfft3         60      60      60
            ngfft4         60      60      60
            ngfft5         60      60      60
            ngfft6         60      60      60
            ngfft7         54      54      54
            ngfft8         54      54      54
            ngfft9         54      54      54
          ngfftdg1         96      96      96
          ngfftdg2         90      90      90
          ngfftdg3         90      90      90
          ngfftdg4         90      90      90
          ngfftdg5         90      90      90
          ngfftdg6         90      90      90
          ngfftdg7         90      90      90
          ngfftdg8         90      90      90
          ngfftdg9         90      90      90
             nkpt         163
            nstep        2500
             nsym           8
           ntypat           4
              occ      2.000000  2.000000  2.000000  2.000000  2.000000  2.000000
                       2.000000  2.000000  2.000000  2.000000  2.000000  2.000000
                       2.000000  2.000000  2.000000  2.000000  2.000000  2.000000
                       2.000000  2.000000  2.000000  2.000000  2.000000  2.000000
                       2.000000  2.000000  2.000000  2.000000  2.000000  2.000000
                       2.000000  2.000000  2.000000  2.000000  2.000000  2.000000
                       0.000000  0.000000  0.000000  0.000000  0.000000  0.000000
        pawecutdg      4.00000000E+01 Hartree
            prtwf           0
            rprim1     0.0000000000E+00  7.0130875360E-01  7.1285765208E-01
                       7.0710678119E-01  0.0000000000E+00  7.0710678119E-01
                       7.1285765208E-01  7.0130875360E-01  0.0000000000E+00
            rprim2     0.0000000000E+00  7.0130958733E-01  7.1285683185E-01
                       7.0710678119E-01  0.0000000000E+00  7.0710678119E-01
                       7.1285683185E-01  7.0130958733E-01  0.0000000000E+00
            rprim3     0.0000000000E+00  7.0111247367E-01  7.1305069895E-01
                       7.0710678119E-01  0.0000000000E+00  7.0710678119E-01
                       7.1305069895E-01  7.0111247367E-01  0.0000000000E+00
            rprim4     0.0000000000E+00  7.0093828274E-01  7.1322193165E-01
                       7.0710678119E-01  0.0000000000E+00  7.0710678119E-01
                       7.1322193165E-01  7.0093828274E-01  0.0000000000E+00
            rprim5     0.0000000000E+00  7.0060723930E-01  7.1354712265E-01
                       7.0710678119E-01  0.0000000000E+00  7.0710678119E-01
                       7.1354712265E-01  7.0060723930E-01  0.0000000000E+00
            rprim6     0.0000000000E+00  7.0019098923E-01  7.1395558587E-01
                       7.0710678119E-01  0.0000000000E+00  7.0710678119E-01
                       7.1395558587E-01  7.0019098923E-01  0.0000000000E+00
            rprim7     0.0000000000E+00  6.9979404462E-01  7.1434466129E-01
                       7.0710678119E-01  0.0000000000E+00  7.0710678119E-01
                       7.1434466129E-01  6.9979404462E-01  0.0000000000E+00
            rprim8     0.0000000000E+00  6.9934349004E-01  7.1478576017E-01
                       7.0710678119E-01  0.0000000000E+00  7.0710678119E-01
                       7.1478576017E-01  6.9934349004E-01  0.0000000000E+00
            rprim9     0.0000000000E+00  6.9881816996E-01  7.1529935365E-01
                       7.0710678119E-01  0.0000000000E+00  7.0710678119E-01
                       7.1529935365E-01  6.9881816996E-01  0.0000000000E+00
          spgroup         107
           symrel      1  0  0   0  1  0   0  0  1       0  0  1   0  1  0   1  0  0
                       0 -1  1   0 -1  0   1 -1  0       1 -1  0   0 -1  0   0 -1  1
                       0 -1  1  -1  0  1   0  0  1       0  0  1  -1  0  1   0 -1  1
                       1  0  0   1  0 -1   1 -1  0       1 -1  0   1  0 -1   1  0  0
           toldfe      1.00000000E-08 Hartree
            typat      1  1  4  2  2  2  2  2  3
           useylm           1
              wtk        0.00058    0.00463    0.00463    0.00463    0.00463    0.00463
                         0.00231    0.00231    0.00926    0.00926    0.00926    0.00926
                         0.00926    0.00926    0.00926    0.00926    0.00926    0.00463
                         0.00231    0.00926    0.00926    0.00926    0.00926    0.00926
                         0.00926    0.00926    0.00463    0.00231    0.00926    0.00926
                         0.00926    0.00926    0.00926    0.00463    0.00231    0.00926
                         0.00926    0.00926    0.00463    0.00231    0.00926    0.00463
                         0.00116    0.00116    0.00463    0.00463    0.00463    0.00463
                         0.00463    0.00463
                       outvars : Printing only first  50 k-points.
           xangst1     2.9644595913E+00  2.9008803547E+00  2.9644595913E+00
                       8.8933787740E+00  8.7337460189E+00  8.8933787740E+00
                       5.9289191827E+00  9.0145596109E+00  5.9289191827E+00
                       5.9289191827E+00  5.8153117504E+00  2.8668288669E+00
                       5.9289191826E+00  5.8153117504E+00  8.9910094984E+00
                       5.9289191826E+00  2.8101124191E+00  5.9289191826E+00
                       8.9910094984E+00  5.8153117504E+00  5.9289191826E+00
                       2.8668288669E+00  5.8153117504E+00  5.9289191827E+00
                      -6.3651972964E-13 -5.7582761885E-02 -6.3651972964E-13
           xangst2     2.9345132667E+00  2.8701806879E+00  2.9345132667E+00
                       8.8035398000E+00  8.6441375220E+00  8.8035398000E+00
                       5.8690265332E+00  8.8968314202E+00  5.8690265332E+00
                       5.8690265332E+00  5.7585729321E+00  2.8621890141E+00
                       5.8690265334E+00  5.7585729321E+00  8.8758640525E+00
                       5.8690265334E+00  2.8044039548E+00  5.8690265334E+00
                       8.8758640525E+00  5.7585729321E+00  5.8690265334E+00
                       2.8621890141E+00  5.7585729321E+00  5.8690265332E+00
                       1.4590700644E-12 -5.8153687029E-02  1.4590700644E-12
           xangst3     2.9051047368E+00  2.8406477597E+00  2.9051047368E+00
                       8.7153142104E+00  8.5535800134E+00  8.7153142104E+00
                       5.8102094736E+00  8.7737049780E+00  5.8102094736E+00
                       5.8102094736E+00  5.6998676360E+00  2.8564349616E+00
                       5.8102094736E+00  5.6998676360E+00  8.7639839856E+00
                       5.8102094736E+00  2.7963435520E+00  5.8102094736E+00
                       8.7639839856E+00  5.6998676360E+00  5.8102094736E+00
                       2.8564349616E+00  5.6998676360E+00  5.8102094736E+00
                       2.6155721634E-13 -6.0252254737E-02  2.6155721634E-13
           xangst4     2.8756235013E+00  2.8118555998E+00  2.8756235013E+00
                       8.6268705038E+00  8.4640502655E+00  8.6268705038E+00
                       5.7512470025E+00  8.6514805434E+00  5.7512470025E+00
                       5.7512470025E+00  5.6414427011E+00  2.8498350169E+00
                       5.7512470026E+00  5.6414427011E+00  8.6526589882E+00
                       5.7512470026E+00  2.7870308631E+00  5.7512470026E+00
                       8.6526589882E+00  5.6414427011E+00  5.7512470026E+00
                       2.8498350169E+00  5.6414427011E+00  5.7512470025E+00
                       4.7560754251E-13 -6.2594576392E-02  4.7560754251E-13
           xangst5     2.8465497142E+00  2.7813378083E+00  2.8465497142E+00
                       8.5396491425E+00  8.3711952221E+00  8.5396491425E+00
                       5.6930994284E+00  8.5272067555E+00  5.6930994284E+00
                       5.6930994284E+00  5.5817130584E+00  2.8421853504E+00
                       5.6930994283E+00  5.5817130584E+00  8.5440135062E+00
                       5.6930994283E+00  2.7767256867E+00  5.6930994283E+00
                       8.5440135062E+00  5.5817130584E+00  5.6930994283E+00
                       2.8421853504E+00  5.5817130584E+00  5.6930994284E+00
                      -1.6475937947E-12 -6.4422620806E-02 -1.6475937947E-12
           xangst6     2.8176815043E+00  2.7516620380E+00  2.8176815043E+00
                       8.4530445130E+00  8.2783789343E+00  8.4530445130E+00
                       5.6353630086E+00  8.4005909515E+00  5.6353630086E+00
                       5.6353630086E+00  5.5216917234E+00  2.8333594301E+00
                       5.6353630087E+00  5.5216917234E+00  8.4373665872E+00
                       5.6353630087E+00  2.7643860384E+00  5.6353630087E+00
                       8.4373665872E+00  5.5216917234E+00  5.6353630087E+00
                       2.8333594301E+00  5.5216917234E+00  5.6353630086E+00
                       1.1788471897E-12 -6.8014314248E-02  1.1788471897E-12
           xangst7     2.7887395578E+00  2.7234199977E+00  2.7887395578E+00
                       8.3662186735E+00  8.1872904242E+00  8.3662186735E+00
                       5.5774791157E+00  8.2746987097E+00  5.5774791157E+00
                       5.5774791157E+00  5.4620699608E+00  2.8230392403E+00
                       5.5774791157E+00  5.4620699608E+00  8.3319189910E+00
                       5.5774791157E+00  2.7500198211E+00  5.5774791157E+00
                       8.3319189910E+00  5.4620699608E+00  5.5774791157E+00
                       2.8230392403E+00  5.4620699608E+00  5.5774791157E+00
                       1.2607527061E-13 -7.2710415143E-02  1.2607527061E-13
           xangst8     2.7599132662E+00  2.6935281648E+00  2.7599132662E+00
                       8.2797397986E+00  8.0941040670E+00  8.2797397986E+00
                       5.5198265325E+00  8.1500038112E+00  5.5198265325E+00
                       5.5198265325E+00  5.4020272661E+00  2.8116060091E+00
                       5.5198265324E+00  5.4020272661E+00  8.2280470558E+00
                       5.5198265324E+00  2.7351072633E+00  5.5198265324E+00
                       8.2280470558E+00  5.4020272661E+00  5.5198265324E+00
                       2.8116060091E+00  5.4020272661E+00  5.5198265325E+00
                      -6.3707887393E-13 -7.6210589332E-02 -6.3707887393E-13
           xangst9     2.7312519343E+00  2.6637799219E+00  2.7312519343E+00
                       8.1937558028E+00  8.0004224581E+00  8.1937558028E+00
                       5.4625038685E+00  8.0248969941E+00  5.4625038685E+00
                       5.4625038685E+00  5.3414003404E+00  2.7987381492E+00
                       5.4625038686E+00  5.3414003404E+00  8.1262695878E+00
                       5.4625038686E+00  2.7186625265E+00  5.4625038686E+00
                       8.1262695878E+00  5.3414003404E+00  5.4625038686E+00
                       2.7987381492E+00  5.3414003404E+00  5.4625038685E+00
                       6.4728611423E-13 -8.0188818334E-02  6.4728611423E-13
            xcart1     5.6020167596E+00  5.4818694147E+00  5.6020167596E+00
                       1.6806050279E+01  1.6504388090E+01  1.6806050279E+01
                       1.1204033519E+01  1.7035048873E+01  1.1204033519E+01
                       1.1204033519E+01  1.0989346586E+01  5.4175214284E+00
                       1.1204033519E+01  1.0989346586E+01  1.6990545610E+01
                       1.1204033519E+01  5.3103428748E+00  1.1204033519E+01
                       1.6990545610E+01  1.0989346586E+01  1.1204033519E+01
                       5.4175214284E+00  1.0989346586E+01  1.1204033519E+01
                      -1.2028479672E-12 -1.0881564994E-01 -1.2028479672E-12
            xcart2     5.5454264073E+00  5.4238554520E+00  5.5454264073E+00
                       1.6636279222E+01  1.6335052572E+01  1.6636279222E+01
                       1.1090852814E+01  1.6812574835E+01  1.1090852814E+01
                       1.1090852814E+01  1.0882125758E+01  5.4087533772E+00
                       1.1090852815E+01  1.0882125758E+01  1.6772952252E+01
                       1.1090852815E+01  5.2995554405E+00  1.1090852815E+01
                       1.6772952252E+01  1.0882125758E+01  1.1090852815E+01
                       5.4087533772E+00  1.0882125758E+01  1.1090852814E+01
                       2.7572428305E-12 -1.0989454210E-01  2.7572428305E-12
            xcart3     5.4898523399E+00  5.3680463058E+00  5.4898523399E+00
                       1.6469557020E+01  1.6163923681E+01  1.6469557020E+01
                       1.0979704680E+01  1.6579899579E+01  1.0979704680E+01
                       1.0979704680E+01  1.0771188826E+01  5.3978797939E+00
                       1.0979704680E+01  1.0771188826E+01  1.6561529566E+01
                       1.0979704680E+01  5.2843234867E+00  1.0979704680E+01
                       1.6561529566E+01  1.0771188826E+01  1.0979704680E+01
                       5.3978797939E+00  1.0771188826E+01  1.0979704680E+01
                       4.9427150696E-13 -1.1386026034E-01  4.9427150696E-13
            xcart4     5.4341408787E+00  5.3136370089E+00  5.4341408787E+00
                       1.6302422636E+01  1.5994736977E+01  1.6302422636E+01
                       1.0868281757E+01  1.6348928871E+01  1.0868281757E+01
                       1.0868281757E+01  1.0660781699E+01  5.3854077059E+00
                       1.0868281757E+01  1.0660781699E+01  1.6351155809E+01
                       1.0868281757E+01  5.2667250551E+00  1.0868281757E+01
                       1.6351155809E+01  1.0660781699E+01  1.0868281757E+01
                       5.3854077059E+00  1.0660781699E+01  1.0868281757E+01
                       8.9876800208E-13 -1.1828660679E-01  8.9876800208E-13
            xcart5     5.3791993834E+00  5.2559667407E+00  5.3791993834E+00
                       1.6137598150E+01  1.5819266375E+01  1.6137598150E+01
                       1.0758398767E+01  1.6114085446E+01  1.0758398767E+01
                       1.0758398767E+01  1.0547909033E+01  5.3709519312E+00
                       1.0758398767E+01  1.0547909033E+01  1.6145845602E+01
                       1.0758398767E+01  5.2472510940E+00  1.0758398767E+01
                       1.6145845602E+01  1.0547909033E+01  1.0758398767E+01
                       5.3709519312E+00  1.0547909033E+01  1.0758398767E+01
                      -3.1135010503E-12 -1.2174111009E-01 -3.1135010503E-12
            xcart6     5.3246463729E+00  5.1998876621E+00  5.3246463729E+00
                       1.5973939119E+01  1.5643869010E+01  1.5973939119E+01
                       1.0649292746E+01  1.5874816253E+01  1.0649292746E+01
                       1.0649292746E+01  1.0434485147E+01  5.3542733590E+00
                       1.0649292746E+01  1.0434485147E+01  1.5944312133E+01
                       1.0649292746E+01  5.2239325381E+00  1.0649292746E+01
                       1.5944312133E+01  1.0434485147E+01  1.0649292746E+01
                       5.3542733590E+00  1.0434485147E+01  1.0649292746E+01
                       2.2276983410E-12 -1.2852842705E-01  2.2276983410E-12
            xcart7     5.2699540203E+00  5.1465179405E+00  5.2699540203E+00
                       1.5809862061E+01  1.5471736672E+01  1.5809862061E+01
                       1.0539908040E+01  1.5636914393E+01  1.0539908040E+01
                       1.0539908040E+01  1.0321816345E+01  5.3347710266E+00
                       1.0539908041E+01  1.0321816345E+01  1.5745045054E+01
                       1.0539908041E+01  5.1967843218E+00  1.0539908041E+01
                       1.5745045054E+01  1.0321816345E+01  1.0539908041E+01
                       5.3347710266E+00  1.0321816345E+01  1.0539908040E+01
                       2.3824773359E-13 -1.3740277163E-01  2.3824773359E-13
            xcart8     5.2154802237E+00  5.0900305626E+00  5.2154802237E+00
                       1.5646440671E+01  1.5295639978E+01  1.5646440671E+01
                       1.0430960447E+01  1.5401275185E+01  1.0430960447E+01
                       1.0430960447E+01  1.0208352095E+01  5.3131653508E+00
                       1.0430960447E+01  1.0208352095E+01  1.5548755544E+01
                       1.0430960447E+01  5.1686036718E+00  1.0430960447E+01
                       1.5548755544E+01  1.0208352095E+01  1.0430960447E+01
                       5.3131653508E+00  1.0208352095E+01  1.0430960447E+01
                      -1.2039045968E-12 -1.4401714226E-01 -1.2039045968E-12
            xcart9     5.1613181557E+00  5.0338145307E+00  5.1613181557E+00
                       1.5483954467E+01  1.5118607393E+01  1.5483954467E+01
                       1.0322636311E+01  1.5164857563E+01  1.0322636311E+01
                       1.0322636311E+01  1.0093783809E+01  5.2888486197E+00
                       1.0322636311E+01  1.0093783809E+01  1.5356424003E+01
                       1.0322636311E+01  5.1375276228E+00  1.0322636311E+01
                       1.5356424003E+01  1.0093783809E+01  1.0322636311E+01
                       5.2888486197E+00  1.0093783809E+01  1.0322636311E+01
                       1.2231934855E-12 -1.5153490557E-01  1.2231934855E-12
             xred1     2.4866682363E-01  2.5133317637E-01  2.4866682363E-01
                       7.4866682363E-01  7.5133317637E-01  7.4866682363E-01
                       7.7273848996E-01  2.2726151004E-01  7.7273848996E-01
                       2.4026182462E-01  2.4327130825E-01  7.5672869175E-01
                       7.5672869175E-01  7.5973817538E-01  2.4026182462E-01
                       2.4088609107E-01  7.5911390893E-01  2.4088609107E-01
                       2.4026182462E-01  7.5973817538E-01  7.5672869175E-01
                       7.5672869175E-01  2.4327130825E-01  2.4026182462E-01
                      -4.9360610376E-03  4.9360610376E-03 -4.9360610376E-03
             xred2     2.4854538840E-01  2.5145461160E-01  2.4854538840E-01
                       7.4854538840E-01  7.5145461160E-01  7.4854538840E-01
                       7.7042760067E-01  2.2957239933E-01  7.7042760067E-01
                       2.4250629947E-01  2.4517065988E-01  7.5482934012E-01
                       7.5482934012E-01  7.5749370053E-01  2.4250629947E-01
                       2.4284940426E-01  7.5715059574E-01  2.4284940426E-01
                       2.4250629947E-01  7.5749370053E-01  7.5482934012E-01
                       7.5482934012E-01  2.4517065988E-01  2.4250629947E-01
                      -5.0358609096E-03  5.0358609096E-03 -5.0358609096E-03
             xred3     2.4861556496E-01  2.5138443504E-01  2.4861556496E-01
                       7.4861556496E-01  7.5138443504E-01  7.4861556496E-01
                       7.6788106251E-01  2.3211893749E-01  7.6788106251E-01
                       2.4466827732E-01  2.4695512707E-01  7.5304487293E-01
                       7.5304487293E-01  7.5533172268E-01  2.4466827732E-01
                       2.4473802837E-01  7.5526197163E-01  2.4473802837E-01
                       2.4466827732E-01  7.5533172268E-01  7.5304487293E-01
                       7.5304487293E-01  2.4695512707E-01  2.4466827732E-01
                      -5.2733213052E-03  5.2733213052E-03 -5.2733213052E-03
             xred4     2.4874015901E-01  2.5125984099E-01  2.4874015901E-01
                       7.4874015901E-01  7.5125984099E-01  7.4874015901E-01
                       7.6532046887E-01  2.3467953113E-01  7.6532046887E-01
                       2.4680687748E-01  2.4870914116E-01  7.5129085884E-01
                       7.5129085884E-01  7.5319312252E-01  2.4680687748E-01
                       2.4654413267E-01  7.5345586733E-01  2.4654413267E-01
                       2.4680687748E-01  7.5319312252E-01  7.5129085884E-01
                       7.5129085884E-01  2.4870914116E-01  2.4680687748E-01
                      -5.5371921965E-03  5.5371921965E-03 -5.5371921965E-03
             xred5     2.4878432511E-01  2.5121567489E-01  2.4878432511E-01
                       7.4878432511E-01  7.5121567489E-01  7.4878432511E-01
                       7.6273920104E-01  2.3726079896E-01  7.6273920104E-01
                       2.4888820302E-01  2.5034519106E-01  7.4965480894E-01
                       7.4965480894E-01  7.5111179698E-01  2.4888820302E-01
                       2.4837178135E-01  7.5162821865E-01  2.4837178135E-01
                       2.4888820302E-01  7.5111179698E-01  7.4965480894E-01
                       7.4965480894E-01  2.5034519106E-01  2.4888820302E-01
                      -5.7624565384E-03  5.7624565384E-03 -5.7624565384E-03
             xred6     2.4894183017E-01  2.5105816983E-01  2.4894183017E-01
                       7.4894183017E-01  7.5105816983E-01  7.4894183017E-01
                       7.5999830542E-01  2.4000169458E-01  7.5999830542E-01
                       2.5093640518E-01  2.5184565620E-01  7.4815434380E-01
                       7.4815434380E-01  7.4906359482E-01  2.5093640518E-01
                       2.5009296570E-01  7.4990703430E-01  2.5009296570E-01
                       2.5093640518E-01  7.4906359482E-01  7.4815434380E-01
                       7.4815434380E-01  2.5184565620E-01  2.5093640518E-01
                      -6.1532294420E-03  6.1532294420E-03 -6.1532294420E-03
             xred7     2.4922077073E-01  2.5077922927E-01  2.4922077073E-01
                       7.4922077073E-01  7.5077922927E-01  7.4922077073E-01
                       7.5721952241E-01  2.4278047759E-01  7.5721952241E-01
                       2.5291007636E-01  2.5323959839E-01  7.4676040161E-01
                       7.4676040161E-01  7.4708992364E-01  2.5291007636E-01
                       2.5165492649E-01  7.4834507351E-01  2.5165492649E-01
                       2.5291007636E-01  7.4708992364E-01  7.4676040161E-01
                       7.4676040161E-01  2.5323959839E-01  2.5291007636E-01
                      -6.6537462886E-03  6.6537462886E-03 -6.6537462886E-03
             xred8     2.4937416060E-01  2.5062583940E-01  2.4937416060E-01
                       7.4937416060E-01  7.5062583940E-01  7.4937416060E-01
                       7.5454951090E-01  2.4545048910E-01  7.5454951090E-01
                       2.5481683203E-01  2.5454808960E-01  7.4545191040E-01
                       7.4545191040E-01  7.4518316797E-01  2.5481683203E-01
                       2.5322366659E-01  7.4677633341E-01  2.5322366659E-01
                       2.5481683203E-01  7.4518316797E-01  7.4545191040E-01
                       7.4545191040E-01  2.5454808960E-01  2.5481683203E-01
                      -7.0557835601E-03  7.0557835601E-03 -7.0557835601E-03
             xred9     2.4957451280E-01  2.5042548720E-01  2.4957451280E-01
                       7.4957451280E-01  7.5042548720E-01  7.4957451280E-01
                       7.5186757776E-01  2.4813242224E-01  7.5186757776E-01
                       2.5662299110E-01  2.5573145598E-01  7.4426854402E-01
                       7.4426854402E-01  7.4337700890E-01  2.5662299110E-01
                       2.5471656646E-01  7.4528343354E-01  2.5471656646E-01
                       2.5662299110E-01  7.4337700890E-01  7.4426854402E-01
                       7.4426854402E-01  2.5573145598E-01  2.5662299110E-01
                      -7.5130400613E-03  7.5130400613E-03 -7.5130400613E-03
            znucl       55.00000   53.00000   72.00000   35.00000

================================================================================

 chkinp: Checking input parameters for consistency, jdtset=   1.

 chkinp: Checking input parameters for consistency, jdtset=   2.

 chkinp: Checking input parameters for consistency, jdtset=   3.

 chkinp: Checking input parameters for consistency, jdtset=   4.

 chkinp: Checking input parameters for consistency, jdtset=   5.

 chkinp: Checking input parameters for consistency, jdtset=   6.

 chkinp: Checking input parameters for consistency, jdtset=   7.

 chkinp: Checking input parameters for consistency, jdtset=   8.

 chkinp: Checking input parameters for consistency, jdtset=   9.

================================================================================
== DATASET  1 ==================================================================
-   mpi_nproc: 6, omp_nthreads: -1 (-1 if OMP is not activated)


--- !DatasetInfo
iteration_state: {dtset: 1, }
dimensions: {natom: 9, nkpt: 163, mband: 42, nsppol: 1, nspinor: 1, nspden: 1, mpw: 8480, }
cutoff_energies: {ecut:  16.0, pawecutdg:  40.0, }
electrons: {nelect:   7.20000000E+01, charge:   0.00000000E+00, occopt:   1.00000000E+00, tsmear:   1.00000000E-02, }
meta: {optdriver: 0, ionmov: 0, optcell: 0, iscf: 17, paral_kgb: 0, }
...

 Real(R)+Recip(G) space primitive vectors, cartesian coordinates (Bohr,Bohr^-1):
 R(1)=  0.0000000 11.0225187 11.2040335  G(1)= -0.0446268  0.0453617  0.0446268
 R(2)= 11.2040335  0.0000000 11.2040335  G(2)=  0.0446268 -0.0453617  0.0446268
 R(3)= 11.2040335 11.0225187  0.0000000  G(3)=  0.0446268  0.0453617 -0.0446268
 Unit cell volume ucvol=  2.7673216E+03 bohr^3
 Angles (23,13,12)=  5.97305972E+01  6.05388056E+01  5.97305972E+01 degrees

 Coarse grid specifications (used for wave-functions):

 getcut: wavevector=  0.0000  0.0000  0.0000  ngfft=  60  60  60
         ecut(hartree)=     16.000   => boxcut(ratio)=   2.10299

 Fine grid specifications (used for densities):

 getcut: wavevector=  0.0000  0.0000  0.0000  ngfft=  96  96  96
         ecut(hartree)=     40.000   => boxcut(ratio)=   2.12807

--- Pseudopotential description ------------------------------------------------
- pspini: atom type   1  psp file is ../../../Psps_for_tests/ATOMICDATA/Cs.GGA_PBE-JTH.xml
- pspatm: opening atomic psp file    ../../../Psps_for_tests/ATOMICDATA/Cs.GGA_PBE-JTH.xml
- pspatm : Reading pseudopotential header in XML form from ../../../Psps_for_tests/ATOMICDATA/Cs.GGA_PBE-JTH.xml
 Pseudopotential format is: paw10
 basis_size (lnmax)=  6 (lmn_size= 18), orbitals=   0   0   1   1   2   2
 Spheres core radius: rc_sph= 2.20660278
 1 radial meshes are used:
  - mesh 1: r(i)=AA*[exp(BB*(i-1))-1], size=1500 , AA= 0.15922E-03 BB= 0.87573E-02
 Shapefunction is SIN type: shapef(r)=[sin(pi*r/rshp)/(pi*r/rshp)]**2
 Radius for shape functions =  2.00394208
 mmax= 1500
 Radial grid used for partial waves is grid 1
 Radial grid used for projectors is grid 1
 Radial grid used for (t)core density is grid 1
 Radial grid used for Vloc is grid 1
 Radial grid used for pseudo valence density is grid 1
 Mesh size for Vloc has been set to 1341 to avoid numerical noise.
 Compensation charge density is not taken into account in XC energy/potential
 pspatm: atomic psp has been read  and splines computed

- pspini: atom type   2  psp file is ../../../Psps_for_tests/ATOMICDATA/I.GGA_PBE-JTH.xml
- pspatm: opening atomic psp file    ../../../Psps_for_tests/ATOMICDATA/I.GGA_PBE-JTH.xml
- pspatm : Reading pseudopotential header in XML form from ../../../Psps_for_tests/ATOMICDATA/I.GGA_PBE-JTH.xml
 Pseudopotential format is: paw10
 basis_size (lnmax)=  4 (lmn_size=  8), orbitals=   0   0   1   1
 Spheres core radius: rc_sph= 2.30022271
 1 radial meshes are used:
  - mesh 1: r(i)=AA*[exp(BB*(i-1))-1], size=2000 , AA= 0.12610E-03 BB= 0.66836E-02
 Shapefunction is SIN type: shapef(r)=[sin(pi*r/rshp)/(pi*r/rshp)]**2
 Radius for shape functions =  2.10879093
 mmax= 2000
 Radial grid used for partial waves is grid 1
 Radial grid used for projectors is grid 1
 Radial grid used for (t)core density is grid 1
 Radial grid used for Vloc is grid 1
 Radial grid used for pseudo valence density is grid 1
 Mesh size for Vloc has been set to 1792 to avoid numerical noise.
 Compensation charge density is not taken into account in XC energy/potential
 pspatm: atomic psp has been read  and splines computed

- pspini: atom type   3  psp file is ../../../Psps_for_tests/ATOMICDATA/Hf.GGA_PBE-JTH.xml
- pspatm: opening atomic psp file    ../../../Psps_for_tests/ATOMICDATA/Hf.GGA_PBE-JTH.xml
- pspatm : Reading pseudopotential header in XML form from ../../../Psps_for_tests/ATOMICDATA/Hf.GGA_PBE-JTH.xml
 Pseudopotential format is: paw10
 basis_size (lnmax)=  6 (lmn_size= 18), orbitals=   0   0   1   1   2   2
 Spheres core radius: rc_sph= 2.41000000
 1 radial meshes are used:
  - mesh 1: r(i)=AA*[exp(BB*(i-1))-1], size= 972 , AA= 0.19796E-03 BB= 0.14253E-01
 Shapefunction is SIN type: shapef(r)=[sin(pi*r/rshp)/(pi*r/rshp)]**2
 Radius for shape functions =  2.41000000
 mmax=  972
 Radial grid used for partial waves is grid 1
 Radial grid used for projectors is grid 1
 Radial grid used for (t)core density is grid 1
 Radial grid used for Vloc is grid 1
 Radial grid used for pseudo valence density is grid 1
 Mesh size for Vloc has been set to  809 to avoid numerical noise.
 Compensation charge density is not taken into account in XC energy/potential
 pspatm: atomic psp has been read  and splines computed

- pspini: atom type   4  psp file is ../../../Psps_for_tests/ATOMICDATA/Br.GGA_PBE-JTH.xml
- pspatm: opening atomic psp file    ../../../Psps_for_tests/ATOMICDATA/Br.GGA_PBE-JTH.xml
- pspatm : Reading pseudopotential header in XML form from ../../../Psps_for_tests/ATOMICDATA/Br.GGA_PBE-JTH.xml
 Pseudopotential format is: paw10
 basis_size (lnmax)=  4 (lmn_size=  8), orbitals=   0   0   1   1
 Spheres core radius: rc_sph= 2.20000000
 1 radial meshes are used:
  - mesh 1: r(i)=AA*[exp(BB*(i-1))-1], size= 927 , AA= 0.40483E-03 BB= 0.14169E-01
 Shapefunction is BESSEL type: shapef(r,l)=aa(1,l)*jl(q(1,l)*r)+aa(2,l)*jl(q(2,l)*r)
 Radius for shape functions =  2.02066386
 mmax=  927
 Radial grid used for partial waves is grid 1
 Radial grid used for projectors is grid 1
 Radial grid used for (t)core density is grid 1
 Radial grid used for Vloc is grid 1
 Radial grid used for pseudo valence density is grid 1
 Mesh size for Vloc has been set to  763 to avoid numerical noise.
 Compensation charge density is not taken into account in XC energy/potential
 pspatm: atomic psp has been read  and splines computed

   4.62562028E+04                                ecore*ucvol(ha*bohr**3)
--------------------------------------------------------------------------------

_setup2: Arith. and geom. avg. npw (full set) are    8459.291    8459.286

================================================================================

--- !BeginCycle
iteration_state: {dtset: 1, }
solver: {iscf: 17, nstep: 2500, nline: 4, wfoptalg: 10, }
tolerances: {toldfe: 1.00E-08, }
...

     iter   Etot(hartree)      deltaE(h)  residm     nres2
 ETOT  1  -161.89750047709    -1.619E+02 7.318E+00 5.792E+00
 ETOT  2  -163.31365208476    -1.416E+00 2.495E-02 1.959E+00
 ETOT  3  -163.30659344372     7.059E-03 2.109E-02 3.993E-01
 ETOT  4  -163.30727808033    -6.846E-04 7.789E-03 1.092E-01
 ETOT  5  -163.30705792301     2.202E-04 6.236E-03 7.667E-03
 ETOT  6  -163.30713206302    -7.414E-05 2.595E-03 1.663E-03
 ETOT  7  -163.30714785751    -1.579E-05 3.083E-03 2.662E-04
 ETOT  8  -163.30715045040    -2.593E-06 1.868E-03 1.671E-05
 ETOT  9  -163.30715061343    -1.630E-07 1.122E-03 2.941E-06
 ETOT 10  -163.30715062060    -7.168E-09 1.968E-03 6.529E-07
 ETOT 11  -163.30715062571    -5.109E-09 8.960E-04 1.495E-07

 At SCF step   11, etot is converged : 
  for the second time, diff in etot=  5.109E-09 < toldfe=  1.000E-08

 Cartesian components of stress tensor (hartree/bohr^3)
  sigma(1 1)= -4.18327771E-06  sigma(3 2)= -6.67209299E-14
  sigma(2 2)= -4.24580531E-06  sigma(3 1)=  1.31281485E-13
  sigma(3 3)= -4.18327771E-06  sigma(2 1)= -6.67206801E-14


--- !ResultsGS
iteration_state: {dtset: 1, }
comment   : Summary of ground state results
lattice_vectors:
- [  0.0000000,  11.0225187,  11.2040335, ]
- [ 11.2040335,   0.0000000,  11.2040335, ]
- [ 11.2040335,  11.0225187,   0.0000000, ]
lattice_lengths: [  15.71707,   15.84490,   15.71707, ]
lattice_angles: [ 59.731,  60.539,  59.731, ] # degrees, (23, 13, 12)
lattice_volume:   2.7673216E+03
convergence: {deltae: -5.109E-09, res2:  1.495E-07, residm:  8.960E-04, diffor: null, }
etotal    :  -1.63307151E+02
entropy   :   0.00000000E+00
fermie    :  -1.26850724E-01
cartesian_stress_tensor: # hartree/bohr^3
- [ -4.18327771E-06,  -6.67206801E-14,   1.31281485E-13, ]
- [ -6.67206801E-14,  -4.24580531E-06,  -6.67209299E-14, ]
- [  1.31281485E-13,  -6.67209299E-14,  -4.18327771E-06, ]
pressure_GPa:   1.2369E-01
xred      :
- [  2.4867E-01,   2.5133E-01,   2.4867E-01, Cs]
- [  7.4867E-01,   7.5133E-01,   7.4867E-01, Cs]
- [  7.7274E-01,   2.2726E-01,   7.7274E-01, Br]
- [  2.4026E-01,   2.4327E-01,   7.5673E-01,  I]
- [  7.5673E-01,   7.5974E-01,   2.4026E-01,  I]
- [  2.4089E-01,   7.5911E-01,   2.4089E-01,  I]
- [  2.4026E-01,   7.5974E-01,   7.5673E-01,  I]
- [  7.5673E-01,   2.4327E-01,   2.4026E-01,  I]
- [ -4.9361E-03,   4.9361E-03,  -4.9361E-03, Hf]
cartesian_forces: # hartree/bohr
- [ -2.84350592E-22,  -2.52103063E-06,   2.76221273E-22, ]
- [ -4.05464204E-22,  -2.52103063E-06,   3.97334886E-22, ]
- [ -3.19185353E-22,  -5.24104697E-07,   3.11056035E-22, ]
- [  5.39666583E-17,   2.78173828E-07,   4.96251284E-06, ]
- [ -5.39676192E-17,   2.78173828E-07,  -4.96251284E-06, ]
- [  5.36692700E-22,  -1.04715493E-05,  -5.44822018E-22, ]
- [ -4.96251284E-06,   2.78173828E-07,  -5.39668513E-17, ]
- [  4.96251284E-06,   2.78173828E-07,   5.39669036E-17, ]
- [  2.22693676E-21,   1.49250200E-05,  -2.23506608E-21, ]
force_length_stats: {min:   5.24104697E-07, max:   1.49250200E-05, mean:   5.64932758E-06, }
...

 Integrated electronic density in atomic spheres:
 ------------------------------------------------
 Atom  Sphere_radius  Integrated_density
    1        2.20660          5.37026125
    2        2.20660          5.37026125
    3        2.20000          4.93112961
    4        2.30022          4.01398817
    5        2.30022          4.01398817
    6        2.30022          4.01624612
    7        2.30022          4.01398817
    8        2.30022          4.01398817
    9        2.41000          9.26169250

 PAW TEST:
 ==== Compensation charge inside spheres ============
 The following values must be close to each other ...
 Compensation charge over spherical meshes =     -0.534928983818710
 Compensation charge over fine fft grid    =     -0.534951381851248

 ==== Results concerning PAW augmentation regions ====

 Total pseudopotential strength Dij (hartree):
 Atom #  1
   0.45065  -0.14917  -0.00000   0.00000   0.00000   0.00000   0.00000   0.00000   0.00000   0.00000   0.00000  -0.00000 ...
  -0.14917   0.04503   0.00000   0.00000   0.00000  -0.00000   0.00000   0.00000   0.00000   0.00000  -0.00000   0.00000 ...
  -0.00000   0.00000  -0.09486   0.00000   0.00000  -0.16578   0.00000   0.00000   0.00000   0.00000   0.00000   0.00000 ...
   0.00000   0.00000   0.00000  -0.09486  -0.00000   0.00000  -0.16579   0.00000   0.00000  -0.00000   0.00000   0.00000 ...
   0.00000   0.00000   0.00000  -0.00000  -0.09486   0.00000   0.00000  -0.16579  -0.00000   0.00000   0.00000   0.00000 ...
   0.00000  -0.00000  -0.16578   0.00000   0.00000   0.40714   0.00000   0.00000   0.00000   0.00000  -0.00000   0.00000 ...
   0.00000   0.00000   0.00000  -0.16579   0.00000   0.00000   0.40714  -0.00001   0.00000   0.00000   0.00000   0.00000 ...
   0.00000   0.00000   0.00000   0.00000  -0.16579   0.00000  -0.00001   0.40714   0.00000   0.00000   0.00000   0.00000 ...
   0.00000   0.00000   0.00000   0.00000  -0.00000   0.00000   0.00000   0.00000   0.00505  -0.00000   0.00000   0.00000 ...
   0.00000   0.00000   0.00000  -0.00000   0.00000   0.00000   0.00000   0.00000  -0.00000   0.00505   0.00000   0.00000 ...
   0.00000  -0.00000   0.00000   0.00000   0.00000  -0.00000   0.00000   0.00000   0.00000   0.00000   0.00505  -0.00000 ...
  -0.00000   0.00000   0.00000   0.00000   0.00000   0.00000   0.00000   0.00000   0.00000   0.00000  -0.00000   0.00505 ...
   ...  only 12  components have been written...
 Atom #  9
  -3.53425   0.43392  -0.00016   0.00000   0.00000   0.00003   0.00000   0.00000   0.00000   0.00000  -0.00006   0.00000 ...
   0.43392   0.00172   0.00001   0.00000   0.00000  -0.00000   0.00000   0.00000   0.00000   0.00000   0.00001   0.00000 ...
  -0.00016   0.00001  -1.48154   0.00000   0.00000   0.12855   0.00000   0.00000   0.00000   0.00000   0.00004   0.00000 ...
   0.00000   0.00000   0.00000  -1.48195   0.00000   0.00000   0.12862   0.00000   0.00000  -0.00008   0.00000   0.00000 ...
   0.00000   0.00000   0.00000   0.00000  -1.48195   0.00000   0.00000   0.12862  -0.00008   0.00000   0.00000   0.00000 ...
   0.00003  -0.00000   0.12855   0.00000   0.00000   0.01253   0.00000   0.00000   0.00000   0.00000  -0.00000   0.00000 ...
   0.00000   0.00000   0.00000   0.12862   0.00000   0.00000   0.01252   0.00000   0.00000   0.00001   0.00000   0.00000 ...
   0.00000   0.00000   0.00000   0.00000   0.12862   0.00000   0.00000   0.01252   0.00001   0.00000   0.00000   0.00000 ...
   0.00000   0.00000   0.00000   0.00000  -0.00008   0.00000   0.00000   0.00001  -0.39895   0.00000   0.00000   0.00000 ...
   0.00000   0.00000   0.00000  -0.00008   0.00000   0.00000   0.00001   0.00000   0.00000  -0.39895   0.00000   0.00000 ...
  -0.00006   0.00001   0.00004   0.00000   0.00000  -0.00000   0.00000   0.00000   0.00000   0.00000  -0.39831   0.00000 ...
   0.00000   0.00000   0.00000   0.00000   0.00000   0.00000   0.00000   0.00000   0.00000   0.00000   0.00000  -0.39904 ...
   ...  only 12  components have been written...


 Augmentation waves occupancies Rhoij:
 Atom #  1
   1.99687  -0.01663  -0.00000   0.00000   0.00000  -0.00001   0.00000   0.00000   0.00000   0.00000   0.00041  -0.00205 ...
  -0.01663   0.12551  -0.00100   0.00000   0.00000   0.00003   0.00000   0.00000   0.00000   0.00000  -0.00362   0.00943 ...
  -0.00000  -0.00100   2.00873   0.00000   0.00000  -0.00508   0.00000   0.00000   0.00000   0.00000   0.00007   0.00039 ...
   0.00000   0.00000   0.00000   2.00793   0.00122   0.00000  -0.00494  -0.00019   0.00025  -0.00079   0.00000   0.00000 ...
   0.00000   0.00000   0.00000   0.00122   2.00793   0.00000  -0.00019  -0.00494  -0.00079   0.00025   0.00000   0.00000 ...
  -0.00001   0.00003  -0.00508   0.00000   0.00000   0.00009   0.00000   0.00000   0.00000   0.00000   0.00000  -0.00002 ...
   0.00000   0.00000   0.00000  -0.00494  -0.00019   0.00000   0.00008   0.00001  -0.00001   0.00002   0.00000   0.00000 ...
   0.00000   0.00000   0.00000  -0.00019  -0.00494   0.00000   0.00001   0.00008   0.00002  -0.00001   0.00000   0.00000 ...
   0.00000   0.00000   0.00000   0.00025  -0.00079   0.00000  -0.00001   0.00002   0.04234   0.00010   0.00000   0.00000 ...
   0.00000   0.00000   0.00000  -0.00079   0.00025   0.00000   0.00002  -0.00001   0.00010   0.04234   0.00000   0.00000 ...
   0.00041  -0.00362   0.00007   0.00000   0.00000   0.00000   0.00000   0.00000   0.00000   0.00000   0.02628   0.00346 ...
  -0.00205   0.00943   0.00039   0.00000   0.00000  -0.00002   0.00000   0.00000   0.00000   0.00000   0.00346   0.02946 ...
   ...  only 12  components have been written...
 Atom #  9
   1.99783  -0.02139   0.00003   0.00000   0.00000   0.00025   0.00000   0.00000   0.00000   0.00000  -0.00040   0.00000 ...
  -0.02139   1.00026   0.00151   0.00000   0.00000  -0.03113   0.00000   0.00000   0.00000   0.00000  -0.01488   0.00000 ...
   0.00003   0.00151   1.99211   0.00000   0.00000  -0.06729   0.00000   0.00000   0.00000   0.00000   0.00051   0.00000 ...
   0.00000   0.00000   0.00000   1.99226   0.00000   0.00000  -0.06500   0.00000   0.00000  -0.00084   0.00000   0.00000 ...
   0.00000   0.00000   0.00000   0.00000   1.99226   0.00000   0.00000  -0.06500  -0.00084   0.00000   0.00000   0.00000 ...
   0.00025  -0.03113  -0.06729   0.00000   0.00000   1.26394   0.00000   0.00000   0.00000   0.00000   0.05194   0.00000 ...
   0.00000   0.00000   0.00000  -0.06500   0.00000   0.00000   1.14583   0.00000   0.00000   0.01382   0.00000   0.00000 ...
   0.00000   0.00000   0.00000   0.00000  -0.06500   0.00000   0.00000   1.14583   0.01382   0.00000   0.00000   0.00000 ...
   0.00000   0.00000   0.00000   0.00000  -0.00084   0.00000   0.00000   0.01382   0.44886   0.00000   0.00000   0.00000 ...
   0.00000   0.00000   0.00000  -0.00084   0.00000   0.00000   0.01382   0.00000   0.00000   0.44886   0.00000   0.00000 ...
  -0.00040  -0.01488   0.00051   0.00000   0.00000   0.05194   0.00000   0.00000   0.00000   0.00000   1.32413   0.00000 ...
   0.00000   0.00000   0.00000   0.00000   0.00000   0.00000   0.00000   0.00000   0.00000   0.00000   0.00000   0.42046 ...
   ...  only 12  components have been written...


================================================================================

 ----iterations are completed or convergence reached----

 Mean square residual over all n,k,spin=   24.340E-07; max=  89.596E-05
 reduced coordinates (array xred) for    9 atoms
       0.248666823630      0.251333176370      0.248666823630
       0.748666823630      0.751333176370      0.748666823630
       0.772738489960      0.227261510040      0.772738489960
       0.240261824620      0.243271308250      0.756728691750
       0.756728691750      0.759738175380      0.240261824620
       0.240886091070      0.759113908930      0.240886091070
       0.240261824620      0.759738175380      0.756728691750
       0.756728691750      0.243271308250      0.240261824620
      -0.004936061038      0.004936061038     -0.004936061038
 rms dE/dt=  6.4841E-05; max dE/dt=  1.3172E-04; dE/dt below (all hartree)
    1       0.000044087007      0.000000000000      0.000044087007
    2       0.000044087007      0.000000000000      0.000044087007
    3       0.000022075854      0.000000000000      0.000022075854
    4      -0.000042367436     -0.000055600160      0.000013232724
    5       0.000068832884      0.000055600160      0.000013232724
    6       0.000131721748      0.000000000000      0.000131721748
    7       0.000013232724      0.000055600160      0.000068832884
    8       0.000013232724     -0.000055600160     -0.000042367436
    9      -0.000148212411      0.000000000000     -0.000148212411

 cartesian coordinates (angstrom) at end:
    1      2.96445959134073     2.90088035473137     2.96445959134073
    2      8.89337877402254     8.73374601888545     8.89337877402254
    3      5.92891918271698     9.01455961091592     5.92891918271698
    4      5.92891918271492     5.81531175042182     2.86682886693498
    5      5.92891918264832     5.81531175042182     8.99100949842825
    6      5.92891918264840     2.81011241914899     5.92891918264840
    7      8.99100949842825     5.81531175042182     5.92891918264832
    8      2.86682886693498     5.81531175042182     5.92891918271492
    9     -0.00000000000064    -0.05758276188477    -0.00000000000064

 cartesian forces (hartree/bohr) at end:
    1     -0.00000000000000    -0.00000252103063     0.00000000000000
    2     -0.00000000000000    -0.00000252103063     0.00000000000000
    3     -0.00000000000000    -0.00000052410470     0.00000000000000
    4      0.00000000000000     0.00000027817383     0.00000496251284
    5     -0.00000000000000     0.00000027817383    -0.00000496251284
    6      0.00000000000000    -0.00001047154930    -0.00000000000000
    7     -0.00000496251284     0.00000027817383    -0.00000000000000
    8      0.00000496251284     0.00000027817383     0.00000000000000
    9      0.00000000000000     0.00001492501995    -0.00000000000000
 frms,max,avg= 4.0561389E-06 1.4925020E-05   0.000E+00 -1.479E-06  0.000E+00 h/b

 cartesian forces (eV/Angstrom) at end:
    1     -0.00000000000000    -0.00012963659656     0.00000000000000
    2     -0.00000000000000    -0.00012963659656     0.00000000000000
    3     -0.00000000000000    -0.00002695054484     0.00000000000000
    4      0.00000000000000     0.00001430427218     0.00025518264866
    5     -0.00000000000000     0.00001430427219    -0.00025518264866
    6      0.00000000000000    -0.00053846866996    -0.00000000000000
    7     -0.00025518264866     0.00001430427219    -0.00000000000000
    8      0.00025518264866     0.00001430427218     0.00000000000000
    9      0.00000000000000     0.00076747531920    -0.00000000000000
 frms,max,avg= 2.0857503E-04 7.6747532E-04   0.000E+00 -7.604E-05  0.000E+00 e/A
 length scales= 15.717069862000 15.844896156000 15.717069862000 bohr
              =  8.317115156787  8.384757918231  8.317115156787 angstroms
 prteigrs : about to open file Cs2TiI6o_DS1_EIG
 Fermi (or HOMO) energy (hartree) =  -0.12685   Average Vxc (hartree)=  -0.28357
 Eigenvalues (hartree) for nkpt= 163  k points:
 kpt#   1, nband= 42, wtk=  0.00058, kpt=  0.0000  0.0000  0.0000 (reduced coord)
  -2.42753   -1.27110   -1.27099   -1.27099   -0.88178   -0.88167   -0.63573   -0.55377
  -0.53769   -0.53769   -0.53439   -0.53302   -0.39897   -0.39851   -0.39851   -0.39705
  -0.39705   -0.39705   -0.27084   -0.21987   -0.21785   -0.21785   -0.20929   -0.20929
  -0.20745   -0.20099   -0.19413   -0.16373   -0.16373   -0.15471   -0.14046   -0.14031
  -0.14031   -0.12741   -0.12741   -0.12685   -0.04505   -0.04053   -0.04053    0.02107
   0.03019    0.04657
 prteigrs : prtvol=0 or 1, do not print more k-points.


--- !EnergyTerms
iteration_state     : {dtset: 1, }
comment             : Components of total free energy in Hartree
kinetic             :  3.75637091056651E+01
hartree             :  3.63969733081684E+01
xc                  : -6.04929848407225E+01
Ewald energy        : -1.14305748580847E+02
psp_core            :  1.67151524116424E+01
local_psp           : -7.24080885864021E+01
spherical_terms     : -6.77622548373043E+00
total_energy        : -1.63307212666226E+02
total_energy_eV     : -4.44381525096733E+03
...


--- !EnergyTermsDC
iteration_state     : {dtset: 1, }
comment             : '"Double-counting" decomposition of free energy'
band_energy         : -3.40518107709830E+01
Ewald energy        : -1.14305748580847E+02
psp_core            :  1.67151524116424E+01
xc_dc               : -5.95502800440283E+01
spherical_terms     :  2.78855363585098E+01
total_energy_dc     : -1.63307150625706E+02
total_energy_dc_eV  : -4.44381356275893E+03
...


 Cartesian components of stress tensor (hartree/bohr^3)
  sigma(1 1)= -4.18327771E-06  sigma(3 2)= -6.67209299E-14
  sigma(2 2)= -4.24580531E-06  sigma(3 1)=  1.31281485E-13
  sigma(3 3)= -4.18327771E-06  sigma(2 1)= -6.67206801E-14

-Cartesian components of stress tensor (GPa)         [Pressure=  1.2369E-01 GPa]
- sigma(1 1)= -1.23076259E-01  sigma(3 2)= -1.96299720E-09
- sigma(2 2)= -1.24915884E-01  sigma(3 1)=  3.86243399E-09
- sigma(3 3)= -1.23076259E-01  sigma(2 1)= -1.96298985E-09

================================================================================
== DATASET  2 ==================================================================
-   mpi_nproc: 6, omp_nthreads: -1 (-1 if OMP is not activated)


--- !DatasetInfo
iteration_state: {dtset: 2, }
dimensions: {natom: 9, nkpt: 163, mband: 42, nsppol: 1, nspinor: 1, nspden: 1, mpw: 8238, }
cutoff_energies: {ecut:  16.0, pawecutdg:  40.0, }
electrons: {nelect:   7.20000000E+01, charge:   0.00000000E+00, occopt:   1.00000000E+00, tsmear:   1.00000000E-02, }
meta: {optdriver: 0, ionmov: 0, optcell: 0, iscf: 17, paral_kgb: 0, }
...

 Real(R)+Recip(G) space primitive vectors, cartesian coordinates (Bohr,Bohr^-1):
 R(1)=  0.0000000 10.9111971 11.0908528  G(1)= -0.0450822  0.0458245  0.0450822
 R(2)= 11.0908528  0.0000000 11.0908528  G(2)=  0.0450822 -0.0458245  0.0450822
 R(3)= 11.0908528 10.9111971  0.0000000  G(3)=  0.0450822  0.0458245 -0.0450822
 Unit cell volume ucvol=  2.6843076E+03 bohr^3
 Angles (23,13,12)=  5.97306357E+01  6.05387287E+01  5.97306357E+01 degrees

 Coarse grid specifications (used for wave-functions):

 getcut: wavevector=  0.0000  0.0000  0.0000  ngfft=  60  60  60
         ecut(hartree)=     16.000   => boxcut(ratio)=   2.12445

 Fine grid specifications (used for densities):

 getcut: wavevector=  0.0000  0.0000  0.0000  ngfft=  90  90  90
         ecut(hartree)=     40.000   => boxcut(ratio)=   2.01569

--- Pseudopotential description ------------------------------------------------
- pspini: atom type   1  psp file is ../../../Psps_for_tests/ATOMICDATA/Cs.GGA_PBE-JTH.xml
- pspatm: opening atomic psp file    ../../../Psps_for_tests/ATOMICDATA/Cs.GGA_PBE-JTH.xml
- pspatm : Reading pseudopotential header in XML form from ../../../Psps_for_tests/ATOMICDATA/Cs.GGA_PBE-JTH.xml
 Pseudopotential format is: paw10
 basis_size (lnmax)=  6 (lmn_size= 18), orbitals=   0   0   1   1   2   2
 Spheres core radius: rc_sph= 2.20660278
 1 radial meshes are used:
  - mesh 1: r(i)=AA*[exp(BB*(i-1))-1], size=1500 , AA= 0.15922E-03 BB= 0.87573E-02
 Shapefunction is SIN type: shapef(r)=[sin(pi*r/rshp)/(pi*r/rshp)]**2
 Radius for shape functions =  2.00394208
 mmax= 1500
 Radial grid used for partial waves is grid 1
 Radial grid used for projectors is grid 1
 Radial grid used for (t)core density is grid 1
 Radial grid used for Vloc is grid 1
 Radial grid used for pseudo valence density is grid 1
 Mesh size for Vloc has been set to 1341 to avoid numerical noise.
 Compensation charge density is not taken into account in XC energy/potential
 pspatm: atomic psp has been read  and splines computed

- pspini: atom type   2  psp file is ../../../Psps_for_tests/ATOMICDATA/I.GGA_PBE-JTH.xml
- pspatm: opening atomic psp file    ../../../Psps_for_tests/ATOMICDATA/I.GGA_PBE-JTH.xml
- pspatm : Reading pseudopotential header in XML form from ../../../Psps_for_tests/ATOMICDATA/I.GGA_PBE-JTH.xml
 Pseudopotential format is: paw10
 basis_size (lnmax)=  4 (lmn_size=  8), orbitals=   0   0   1   1
 Spheres core radius: rc_sph= 2.30022271
 1 radial meshes are used:
  - mesh 1: r(i)=AA*[exp(BB*(i-1))-1], size=2000 , AA= 0.12610E-03 BB= 0.66836E-02
 Shapefunction is SIN type: shapef(r)=[sin(pi*r/rshp)/(pi*r/rshp)]**2
 Radius for shape functions =  2.10879093
 mmax= 2000
 Radial grid used for partial waves is grid 1
 Radial grid used for projectors is grid 1
 Radial grid used for (t)core density is grid 1
 Radial grid used for Vloc is grid 1
 Radial grid used for pseudo valence density is grid 1
 Mesh size for Vloc has been set to 1792 to avoid numerical noise.
 Compensation charge density is not taken into account in XC energy/potential
 pspatm: atomic psp has been read  and splines computed

- pspini: atom type   3  psp file is ../../../Psps_for_tests/ATOMICDATA/Hf.GGA_PBE-JTH.xml
- pspatm: opening atomic psp file    ../../../Psps_for_tests/ATOMICDATA/Hf.GGA_PBE-JTH.xml
- pspatm : Reading pseudopotential header in XML form from ../../../Psps_for_tests/ATOMICDATA/Hf.GGA_PBE-JTH.xml
 Pseudopotential format is: paw10
 basis_size (lnmax)=  6 (lmn_size= 18), orbitals=   0   0   1   1   2   2
 Spheres core radius: rc_sph= 2.41000000
 1 radial meshes are used:
  - mesh 1: r(i)=AA*[exp(BB*(i-1))-1], size= 972 , AA= 0.19796E-03 BB= 0.14253E-01
 Shapefunction is SIN type: shapef(r)=[sin(pi*r/rshp)/(pi*r/rshp)]**2
 Radius for shape functions =  2.41000000
 mmax=  972
 Radial grid used for partial waves is grid 1
 Radial grid used for projectors is grid 1
 Radial grid used for (t)core density is grid 1
 Radial grid used for Vloc is grid 1
 Radial grid used for pseudo valence density is grid 1
 Mesh size for Vloc has been set to  809 to avoid numerical noise.
 Compensation charge density is not taken into account in XC energy/potential
 pspatm: atomic psp has been read  and splines computed

- pspini: atom type   4  psp file is ../../../Psps_for_tests/ATOMICDATA/Br.GGA_PBE-JTH.xml
- pspatm: opening atomic psp file    ../../../Psps_for_tests/ATOMICDATA/Br.GGA_PBE-JTH.xml
- pspatm : Reading pseudopotential header in XML form from ../../../Psps_for_tests/ATOMICDATA/Br.GGA_PBE-JTH.xml
 Pseudopotential format is: paw10
 basis_size (lnmax)=  4 (lmn_size=  8), orbitals=   0   0   1   1
 Spheres core radius: rc_sph= 2.20000000
 1 radial meshes are used:
  - mesh 1: r(i)=AA*[exp(BB*(i-1))-1], size= 927 , AA= 0.40483E-03 BB= 0.14169E-01
 Shapefunction is BESSEL type: shapef(r,l)=aa(1,l)*jl(q(1,l)*r)+aa(2,l)*jl(q(2,l)*r)
 Radius for shape functions =  2.02066386
 mmax=  927
 Radial grid used for partial waves is grid 1
 Radial grid used for projectors is grid 1
 Radial grid used for (t)core density is grid 1
 Radial grid used for Vloc is grid 1
 Radial grid used for pseudo valence density is grid 1
 Mesh size for Vloc has been set to  763 to avoid numerical noise.
 Compensation charge density is not taken into account in XC energy/potential
 pspatm: atomic psp has been read  and splines computed

--------------------------------------------------------------------------------

_setup2: Arith. and geom. avg. npw (full set) are    8205.694    8205.683

================================================================================

--- !BeginCycle
iteration_state: {dtset: 2, }
solver: {iscf: 17, nstep: 2500, nline: 4, wfoptalg: 10, }
tolerances: {toldfe: 1.00E-08, }
...

     iter   Etot(hartree)      deltaE(h)  residm     nres2
 ETOT  1  -161.96986301996    -1.620E+02 9.266E+00 5.261E+00
 ETOT  2  -163.31152935767    -1.342E+00 2.706E-02 1.564E+00
 ETOT  3  -163.30551680002     6.013E-03 1.567E-02 3.242E-01
 ETOT  4  -163.30620126525    -6.845E-04 5.896E-03 8.170E-02
 ETOT  5  -163.30601129111     1.900E-04 4.096E-03 5.501E-03
 ETOT  6  -163.30608077762    -6.949E-05 3.507E-03 1.155E-03
 ETOT  7  -163.30609529809    -1.452E-05 2.277E-03 1.898E-04
 ETOT  8  -163.30609814044    -2.842E-06 1.461E-03 1.090E-05
 ETOT  9  -163.30609835241    -2.120E-07 1.483E-03 2.110E-06
 ETOT 10  -163.30609836870    -1.629E-08 1.006E-03 4.713E-07
 ETOT 11  -163.30609837682    -8.116E-09 6.546E-04 1.566E-07
 ETOT 12  -163.30609837701    -1.929E-10 5.785E-04 5.104E-08

 At SCF step   12, etot is converged : 
  for the second time, diff in etot=  1.929E-10 < toldfe=  1.000E-08

 Cartesian components of stress tensor (hartree/bohr^3)
  sigma(1 1)= -1.36321955E-05  sigma(3 2)=  1.60724023E-13
  sigma(2 2)= -1.37078491E-05  sigma(3 1)= -3.16240906E-13
  sigma(3 3)= -1.36321955E-05  sigma(2 1)=  1.60723780E-13


--- !ResultsGS
iteration_state: {dtset: 2, }
comment   : Summary of ground state results
lattice_vectors:
- [  0.0000000,  10.9111971,  11.0908528, ]
- [ 11.0908528,   0.0000000,  11.0908528, ]
- [ 11.0908528,  10.9111971,   0.0000000, ]
lattice_lengths: [  15.55832,   15.68483,   15.55832, ]
lattice_angles: [ 59.731,  60.539,  59.731, ] # degrees, (23, 13, 12)
lattice_volume:   2.6843076E+03
convergence: {deltae: -1.929E-10, res2:  5.104E-08, residm:  5.785E-04, diffor: null, }
etotal    :  -1.63306098E+02
entropy   :   0.00000000E+00
fermie    :  -1.23601463E-01
cartesian_stress_tensor: # hartree/bohr^3
- [ -1.36321955E-05,   1.60723780E-13,  -3.16240906E-13, ]
- [  1.60723780E-13,  -1.37078491E-05,   1.60724023E-13, ]
- [ -3.16240906E-13,   1.60724023E-13,  -1.36321955E-05, ]
pressure_GPa:   4.0181E-01
xred      :
- [  2.4855E-01,   2.5145E-01,   2.4855E-01, Cs]
- [  7.4855E-01,   7.5145E-01,   7.4855E-01, Cs]
- [  7.7043E-01,   2.2957E-01,   7.7043E-01, Br]
- [  2.4251E-01,   2.4517E-01,   7.5483E-01,  I]
- [  7.5483E-01,   7.5749E-01,   2.4251E-01,  I]
- [  2.4285E-01,   7.5715E-01,   2.4285E-01,  I]
- [  2.4251E-01,   7.5749E-01,   7.5483E-01,  I]
- [  7.5483E-01,   2.4517E-01,   2.4251E-01,  I]
- [ -5.0359E-03,   5.0359E-03,  -5.0359E-03, Hf]
cartesian_forces: # hartree/bohr
- [  4.29615885E-22,   1.73553572E-05,  -7.93878129E-23, ]
- [  4.29615885E-22,   1.73553572E-05,  -7.93878129E-23, ]
- [ -7.04672875E-23,   2.54694536E-06,   4.20695360E-22, ]
- [  4.14009869E-16,   1.77209500E-06,  -1.67726672E-05, ]
- [ -4.14009730E-16,   1.77209501E-06,   1.67726672E-05, ]
- [  2.53363551E-21,  -1.65182759E-05,  -2.18340744E-21, ]
- [  1.67726672E-05,   1.77209501E-06,  -4.14009452E-16, ]
- [ -1.67726672E-05,   1.77209500E-06,   4.14009541E-16, ]
- [  1.94505183E-23,  -2.78277639E-05,   3.30777554E-22, ]
force_length_stats: {min:   2.54694536E-06, max:   2.78277639E-05, mean:   1.65630874E-05, }
...

 Integrated electronic density in atomic spheres:
 ------------------------------------------------
 Atom  Sphere_radius  Integrated_density
    1        2.20660          5.34963866
    2        2.20660          5.34963866
    3        2.20000          4.92544730
    4        2.30022          4.01711852
    5        2.30022          4.01711852
    6        2.30022          4.01705514
    7        2.30022          4.01711852
    8        2.30022          4.01711852
    9        2.41000          9.26465586

 PAW TEST:
 ==== Compensation charge inside spheres ============
 The following values must be close to each other ...
 Compensation charge over spherical meshes =     -0.536560472259632
 Compensation charge over fine fft grid    =     -0.536565893637718

 ==== Results concerning PAW augmentation regions ====

 Total pseudopotential strength Dij (hartree):
 Atom #  1
   0.44956  -0.14881  -0.00000   0.00000   0.00000   0.00000   0.00000   0.00000   0.00000   0.00000   0.00000  -0.00000 ...
  -0.14881   0.04491   0.00000   0.00000   0.00000  -0.00000   0.00000   0.00000   0.00000   0.00000  -0.00000   0.00000 ...
  -0.00000   0.00000  -0.09472   0.00000   0.00000  -0.16587   0.00000   0.00000   0.00000   0.00000   0.00000  -0.00000 ...
   0.00000   0.00000   0.00000  -0.09472  -0.00000   0.00000  -0.16587   0.00000  -0.00000  -0.00000   0.00000   0.00000 ...
   0.00000   0.00000   0.00000  -0.00000  -0.09472   0.00000   0.00000  -0.16587  -0.00000  -0.00000   0.00000   0.00000 ...
   0.00000  -0.00000  -0.16587   0.00000   0.00000   0.40682   0.00000   0.00000   0.00000   0.00000  -0.00000   0.00000 ...
   0.00000   0.00000   0.00000  -0.16587   0.00000   0.00000   0.40682  -0.00001   0.00000   0.00000   0.00000   0.00000 ...
   0.00000   0.00000   0.00000   0.00000  -0.16587   0.00000  -0.00001   0.40682   0.00000   0.00000   0.00000   0.00000 ...
   0.00000   0.00000   0.00000  -0.00000  -0.00000   0.00000   0.00000   0.00000   0.00506  -0.00000   0.00000   0.00000 ...
   0.00000   0.00000   0.00000  -0.00000  -0.00000   0.00000   0.00000   0.00000  -0.00000   0.00506   0.00000   0.00000 ...
   0.00000  -0.00000   0.00000   0.00000   0.00000  -0.00000   0.00000   0.00000   0.00000   0.00000   0.00506  -0.00000 ...
  -0.00000   0.00000  -0.00000   0.00000   0.00000   0.00000   0.00000   0.00000   0.00000   0.00000  -0.00000   0.00506 ...
   ...  only 12  components have been written...
 Atom #  9
  -3.53309   0.43351  -0.00015   0.00000   0.00000   0.00003   0.00000   0.00000   0.00000   0.00000  -0.00006   0.00000 ...
   0.43351   0.00181   0.00001   0.00000   0.00000  -0.00000   0.00000   0.00000   0.00000   0.00000   0.00001   0.00000 ...
  -0.00015   0.00001  -1.47968   0.00000   0.00000   0.12817   0.00000   0.00000   0.00000   0.00000   0.00004   0.00000 ...
   0.00000   0.00000   0.00000  -1.48007   0.00000   0.00000   0.12824   0.00000   0.00000  -0.00007   0.00000   0.00000 ...
   0.00000   0.00000   0.00000   0.00000  -1.48007   0.00000   0.00000   0.12824  -0.00007   0.00000   0.00000   0.00000 ...
   0.00003  -0.00000   0.12817   0.00000   0.00000   0.01260   0.00000   0.00000   0.00000   0.00000  -0.00000   0.00000 ...
   0.00000   0.00000   0.00000   0.12824   0.00000   0.00000   0.01259   0.00000   0.00000   0.00001   0.00000   0.00000 ...
   0.00000   0.00000   0.00000   0.00000   0.12824   0.00000   0.00000   0.01259   0.00001   0.00000   0.00000   0.00000 ...
   0.00000   0.00000   0.00000   0.00000  -0.00007   0.00000   0.00000   0.00001  -0.39859   0.00000   0.00000   0.00000 ...
   0.00000   0.00000   0.00000  -0.00007   0.00000   0.00000   0.00001   0.00000   0.00000  -0.39859   0.00000   0.00000 ...
  -0.00006   0.00001   0.00004   0.00000   0.00000  -0.00000   0.00000   0.00000   0.00000   0.00000  -0.39795   0.00000 ...
   0.00000   0.00000   0.00000   0.00000   0.00000   0.00000   0.00000   0.00000   0.00000   0.00000   0.00000  -0.39867 ...
   ...  only 12  components have been written...


 Augmentation waves occupancies Rhoij:
 Atom #  1
   1.99702  -0.01631  -0.00000   0.00000   0.00000  -0.00001   0.00000   0.00000   0.00000   0.00000   0.00042  -0.00208 ...
  -0.01631   0.13494  -0.00064   0.00000   0.00000   0.00002   0.00000   0.00000   0.00000   0.00000  -0.00390   0.01002 ...
  -0.00000  -0.00064   2.00854   0.00000   0.00000  -0.00507   0.00000   0.00000   0.00000   0.00000   0.00000   0.00005 ...
   0.00000   0.00000   0.00000   2.00774   0.00122   0.00000  -0.00492  -0.00019  -0.00008  -0.00057   0.00000   0.00000 ...
   0.00000   0.00000   0.00000   0.00122   2.00774   0.00000  -0.00019  -0.00492  -0.00057  -0.00008   0.00000   0.00000 ...
  -0.00001   0.00002  -0.00507   0.00000   0.00000   0.00010   0.00000   0.00000   0.00000   0.00000   0.00000  -0.00001 ...
   0.00000   0.00000   0.00000  -0.00492  -0.00019   0.00000   0.00009   0.00001  -0.00000   0.00002   0.00000   0.00000 ...
[...]
                       8.4373665872E+00  5.5216917234E+00  5.6353630087E+00
                       2.8333594301E+00  5.5216917234E+00  5.6353630086E+00
                       1.1788471897E-12 -6.8014314248E-02  1.1788471897E-12
           xangst7     2.7887395578E+00  2.7234199977E+00  2.7887395578E+00
                       8.3662186735E+00  8.1872904242E+00  8.3662186735E+00
                       5.5774791157E+00  8.2746987097E+00  5.5774791157E+00
                       5.5774791157E+00  5.4620699608E+00  2.8230392403E+00
                       5.5774791157E+00  5.4620699608E+00  8.3319189910E+00
                       5.5774791157E+00  2.7500198211E+00  5.5774791157E+00
                       8.3319189910E+00  5.4620699608E+00  5.5774791157E+00
                       2.8230392403E+00  5.4620699608E+00  5.5774791157E+00
                       1.2607527061E-13 -7.2710415143E-02  1.2607527061E-13
           xangst8     2.7599132662E+00  2.6935281648E+00  2.7599132662E+00
                       8.2797397986E+00  8.0941040670E+00  8.2797397986E+00
                       5.5198265325E+00  8.1500038112E+00  5.5198265325E+00
                       5.5198265325E+00  5.4020272661E+00  2.8116060091E+00
                       5.5198265324E+00  5.4020272661E+00  8.2280470558E+00
                       5.5198265324E+00  2.7351072633E+00  5.5198265324E+00
                       8.2280470558E+00  5.4020272661E+00  5.5198265324E+00
                       2.8116060091E+00  5.4020272661E+00  5.5198265325E+00
                      -6.3707887393E-13 -7.6210589332E-02 -6.3707887393E-13
           xangst9     2.7312519343E+00  2.6637799219E+00  2.7312519343E+00
                       8.1937558028E+00  8.0004224581E+00  8.1937558028E+00
                       5.4625038685E+00  8.0248969941E+00  5.4625038685E+00
                       5.4625038685E+00  5.3414003404E+00  2.7987381492E+00
                       5.4625038686E+00  5.3414003404E+00  8.1262695878E+00
                       5.4625038686E+00  2.7186625265E+00  5.4625038686E+00
                       8.1262695878E+00  5.3414003404E+00  5.4625038686E+00
                       2.7987381492E+00  5.3414003404E+00  5.4625038685E+00
                       6.4728611423E-13 -8.0188818334E-02  6.4728611423E-13
            xcart1     5.6020167596E+00  5.4818694147E+00  5.6020167596E+00
                       1.6806050279E+01  1.6504388090E+01  1.6806050279E+01
                       1.1204033519E+01  1.7035048873E+01  1.1204033519E+01
                       1.1204033519E+01  1.0989346586E+01  5.4175214284E+00
                       1.1204033519E+01  1.0989346586E+01  1.6990545610E+01
                       1.1204033519E+01  5.3103428748E+00  1.1204033519E+01
                       1.6990545610E+01  1.0989346586E+01  1.1204033519E+01
                       5.4175214284E+00  1.0989346586E+01  1.1204033519E+01
                      -1.2028479672E-12 -1.0881564994E-01 -1.2028479672E-12
            xcart2     5.5454264073E+00  5.4238554520E+00  5.5454264073E+00
                       1.6636279222E+01  1.6335052572E+01  1.6636279222E+01
                       1.1090852814E+01  1.6812574835E+01  1.1090852814E+01
                       1.1090852814E+01  1.0882125758E+01  5.4087533772E+00
                       1.1090852815E+01  1.0882125758E+01  1.6772952252E+01
                       1.1090852815E+01  5.2995554405E+00  1.1090852815E+01
                       1.6772952252E+01  1.0882125758E+01  1.1090852815E+01
                       5.4087533772E+00  1.0882125758E+01  1.1090852814E+01
                       2.7572428305E-12 -1.0989454210E-01  2.7572428305E-12
            xcart3     5.4898523399E+00  5.3680463058E+00  5.4898523399E+00
                       1.6469557020E+01  1.6163923681E+01  1.6469557020E+01
                       1.0979704680E+01  1.6579899579E+01  1.0979704680E+01
                       1.0979704680E+01  1.0771188826E+01  5.3978797939E+00
                       1.0979704680E+01  1.0771188826E+01  1.6561529566E+01
                       1.0979704680E+01  5.2843234867E+00  1.0979704680E+01
                       1.6561529566E+01  1.0771188826E+01  1.0979704680E+01
                       5.3978797939E+00  1.0771188826E+01  1.0979704680E+01
                       4.9427150696E-13 -1.1386026034E-01  4.9427150696E-13
            xcart4     5.4341408787E+00  5.3136370089E+00  5.4341408787E+00
                       1.6302422636E+01  1.5994736977E+01  1.6302422636E+01
                       1.0868281757E+01  1.6348928871E+01  1.0868281757E+01
                       1.0868281757E+01  1.0660781699E+01  5.3854077059E+00
                       1.0868281757E+01  1.0660781699E+01  1.6351155809E+01
                       1.0868281757E+01  5.2667250551E+00  1.0868281757E+01
                       1.6351155809E+01  1.0660781699E+01  1.0868281757E+01
                       5.3854077059E+00  1.0660781699E+01  1.0868281757E+01
                       8.9876800208E-13 -1.1828660679E-01  8.9876800208E-13
            xcart5     5.3791993834E+00  5.2559667407E+00  5.3791993834E+00
                       1.6137598150E+01  1.5819266375E+01  1.6137598150E+01
                       1.0758398767E+01  1.6114085446E+01  1.0758398767E+01
                       1.0758398767E+01  1.0547909033E+01  5.3709519312E+00
                       1.0758398767E+01  1.0547909033E+01  1.6145845602E+01
                       1.0758398767E+01  5.2472510940E+00  1.0758398767E+01
                       1.6145845602E+01  1.0547909033E+01  1.0758398767E+01
                       5.3709519312E+00  1.0547909033E+01  1.0758398767E+01
                      -3.1135010503E-12 -1.2174111009E-01 -3.1135010503E-12
            xcart6     5.3246463729E+00  5.1998876621E+00  5.3246463729E+00
                       1.5973939119E+01  1.5643869010E+01  1.5973939119E+01
                       1.0649292746E+01  1.5874816253E+01  1.0649292746E+01
                       1.0649292746E+01  1.0434485147E+01  5.3542733590E+00
                       1.0649292746E+01  1.0434485147E+01  1.5944312133E+01
                       1.0649292746E+01  5.2239325381E+00  1.0649292746E+01
                       1.5944312133E+01  1.0434485147E+01  1.0649292746E+01
                       5.3542733590E+00  1.0434485147E+01  1.0649292746E+01
                       2.2276983410E-12 -1.2852842705E-01  2.2276983410E-12
            xcart7     5.2699540203E+00  5.1465179405E+00  5.2699540203E+00
                       1.5809862061E+01  1.5471736672E+01  1.5809862061E+01
                       1.0539908040E+01  1.5636914393E+01  1.0539908040E+01
                       1.0539908040E+01  1.0321816345E+01  5.3347710266E+00
                       1.0539908041E+01  1.0321816345E+01  1.5745045054E+01
                       1.0539908041E+01  5.1967843218E+00  1.0539908041E+01
                       1.5745045054E+01  1.0321816345E+01  1.0539908041E+01
                       5.3347710266E+00  1.0321816345E+01  1.0539908040E+01
                       2.3824773359E-13 -1.3740277163E-01  2.3824773359E-13
            xcart8     5.2154802237E+00  5.0900305626E+00  5.2154802237E+00
                       1.5646440671E+01  1.5295639978E+01  1.5646440671E+01
                       1.0430960447E+01  1.5401275185E+01  1.0430960447E+01
                       1.0430960447E+01  1.0208352095E+01  5.3131653508E+00
                       1.0430960447E+01  1.0208352095E+01  1.5548755544E+01
                       1.0430960447E+01  5.1686036718E+00  1.0430960447E+01
                       1.5548755544E+01  1.0208352095E+01  1.0430960447E+01
                       5.3131653508E+00  1.0208352095E+01  1.0430960447E+01
                      -1.2039045968E-12 -1.4401714226E-01 -1.2039045968E-12
            xcart9     5.1613181557E+00  5.0338145307E+00  5.1613181557E+00
                       1.5483954467E+01  1.5118607393E+01  1.5483954467E+01
                       1.0322636311E+01  1.5164857563E+01  1.0322636311E+01
                       1.0322636311E+01  1.0093783809E+01  5.2888486197E+00
                       1.0322636311E+01  1.0093783809E+01  1.5356424003E+01
                       1.0322636311E+01  5.1375276228E+00  1.0322636311E+01
                       1.5356424003E+01  1.0093783809E+01  1.0322636311E+01
                       5.2888486197E+00  1.0093783809E+01  1.0322636311E+01
                       1.2231934855E-12 -1.5153490557E-01  1.2231934855E-12
             xred1     2.4866682363E-01  2.5133317637E-01  2.4866682363E-01
                       7.4866682363E-01  7.5133317637E-01  7.4866682363E-01
                       7.7273848996E-01  2.2726151004E-01  7.7273848996E-01
                       2.4026182462E-01  2.4327130825E-01  7.5672869175E-01
                       7.5672869175E-01  7.5973817538E-01  2.4026182462E-01
                       2.4088609107E-01  7.5911390893E-01  2.4088609107E-01
                       2.4026182462E-01  7.5973817538E-01  7.5672869175E-01
                       7.5672869175E-01  2.4327130825E-01  2.4026182462E-01
                      -4.9360610376E-03  4.9360610376E-03 -4.9360610376E-03
             xred2     2.4854538840E-01  2.5145461160E-01  2.4854538840E-01
                       7.4854538840E-01  7.5145461160E-01  7.4854538840E-01
                       7.7042760067E-01  2.2957239933E-01  7.7042760067E-01
                       2.4250629947E-01  2.4517065988E-01  7.5482934012E-01
                       7.5482934012E-01  7.5749370053E-01  2.4250629947E-01
                       2.4284940426E-01  7.5715059574E-01  2.4284940426E-01
                       2.4250629947E-01  7.5749370053E-01  7.5482934012E-01
                       7.5482934012E-01  2.4517065988E-01  2.4250629947E-01
                      -5.0358609096E-03  5.0358609096E-03 -5.0358609096E-03
             xred3     2.4861556496E-01  2.5138443504E-01  2.4861556496E-01
                       7.4861556496E-01  7.5138443504E-01  7.4861556496E-01
                       7.6788106251E-01  2.3211893749E-01  7.6788106251E-01
                       2.4466827732E-01  2.4695512707E-01  7.5304487293E-01
                       7.5304487293E-01  7.5533172268E-01  2.4466827732E-01
                       2.4473802837E-01  7.5526197163E-01  2.4473802837E-01
                       2.4466827732E-01  7.5533172268E-01  7.5304487293E-01
                       7.5304487293E-01  2.4695512707E-01  2.4466827732E-01
                      -5.2733213052E-03  5.2733213052E-03 -5.2733213052E-03
             xred4     2.4874015901E-01  2.5125984099E-01  2.4874015901E-01
                       7.4874015901E-01  7.5125984099E-01  7.4874015901E-01
                       7.6532046887E-01  2.3467953113E-01  7.6532046887E-01
                       2.4680687748E-01  2.4870914116E-01  7.5129085884E-01
                       7.5129085884E-01  7.5319312252E-01  2.4680687748E-01
                       2.4654413267E-01  7.5345586733E-01  2.4654413267E-01
                       2.4680687748E-01  7.5319312252E-01  7.5129085884E-01
                       7.5129085884E-01  2.4870914116E-01  2.4680687748E-01
                      -5.5371921965E-03  5.5371921965E-03 -5.5371921965E-03
             xred5     2.4878432511E-01  2.5121567489E-01  2.4878432511E-01
                       7.4878432511E-01  7.5121567489E-01  7.4878432511E-01
                       7.6273920104E-01  2.3726079896E-01  7.6273920104E-01
                       2.4888820302E-01  2.5034519106E-01  7.4965480894E-01
                       7.4965480894E-01  7.5111179698E-01  2.4888820302E-01
                       2.4837178135E-01  7.5162821865E-01  2.4837178135E-01
                       2.4888820302E-01  7.5111179698E-01  7.4965480894E-01
                       7.4965480894E-01  2.5034519106E-01  2.4888820302E-01
                      -5.7624565384E-03  5.7624565384E-03 -5.7624565384E-03
             xred6     2.4894183017E-01  2.5105816983E-01  2.4894183017E-01
                       7.4894183017E-01  7.5105816983E-01  7.4894183017E-01
                       7.5999830542E-01  2.4000169458E-01  7.5999830542E-01
                       2.5093640518E-01  2.5184565620E-01  7.4815434380E-01
                       7.4815434380E-01  7.4906359482E-01  2.5093640518E-01
                       2.5009296570E-01  7.4990703430E-01  2.5009296570E-01
                       2.5093640518E-01  7.4906359482E-01  7.4815434380E-01
                       7.4815434380E-01  2.5184565620E-01  2.5093640518E-01
                      -6.1532294420E-03  6.1532294420E-03 -6.1532294420E-03
             xred7     2.4922077073E-01  2.5077922927E-01  2.4922077073E-01
                       7.4922077073E-01  7.5077922927E-01  7.4922077073E-01
                       7.5721952241E-01  2.4278047759E-01  7.5721952241E-01
                       2.5291007636E-01  2.5323959839E-01  7.4676040161E-01
                       7.4676040161E-01  7.4708992364E-01  2.5291007636E-01
                       2.5165492649E-01  7.4834507351E-01  2.5165492649E-01
                       2.5291007636E-01  7.4708992364E-01  7.4676040161E-01
                       7.4676040161E-01  2.5323959839E-01  2.5291007636E-01
                      -6.6537462886E-03  6.6537462886E-03 -6.6537462886E-03
             xred8     2.4937416060E-01  2.5062583940E-01  2.4937416060E-01
                       7.4937416060E-01  7.5062583940E-01  7.4937416060E-01
                       7.5454951090E-01  2.4545048910E-01  7.5454951090E-01
                       2.5481683203E-01  2.5454808960E-01  7.4545191040E-01
                       7.4545191040E-01  7.4518316797E-01  2.5481683203E-01
                       2.5322366659E-01  7.4677633341E-01  2.5322366659E-01
                       2.5481683203E-01  7.4518316797E-01  7.4545191040E-01
                       7.4545191040E-01  2.5454808960E-01  2.5481683203E-01
                      -7.0557835601E-03  7.0557835601E-03 -7.0557835601E-03
             xred9     2.4957451280E-01  2.5042548720E-01  2.4957451280E-01
                       7.4957451280E-01  7.5042548720E-01  7.4957451280E-01
                       7.5186757776E-01  2.4813242224E-01  7.5186757776E-01
                       2.5662299110E-01  2.5573145598E-01  7.4426854402E-01
                       7.4426854402E-01  7.4337700890E-01  2.5662299110E-01
                       2.5471656646E-01  7.4528343354E-01  2.5471656646E-01
                       2.5662299110E-01  7.4337700890E-01  7.4426854402E-01
                       7.4426854402E-01  2.5573145598E-01  2.5662299110E-01
                      -7.5130400613E-03  7.5130400613E-03 -7.5130400613E-03
            znucl       55.00000   53.00000   72.00000   35.00000

================================================================================


- Timing analysis has been suppressed with timopt=0



================================================================================

 Suggested references for the acknowledgment of ABINIT usage.

 The users of ABINIT have little formal obligations with respect to the ABINIT group
 (those specified in the GNU General Public License, http://www.gnu.org/copyleft/gpl.txt).
 However, it is common practice in the scientific literature,
 to acknowledge the efforts of people that have made the research possible.
 In this spirit, please find below suggested citations of work written by ABINIT developers,
 corresponding to implementations inside of ABINIT that you have used in the present run.
 Note also that it will be of great value to readers of publications presenting these results,
 to read papers enabling them to understand the theoretical formalism and details
 of the ABINIT implementation.
 For information on why they are suggested, see also https://docs.abinit.org/theory/acknowledgments.
-
- [1] Implementation of the Projector Augmented-Wave Method in the ABINIT code.
- M. Torrent, F. Jollet, F. Bottin, G. Zerah, and X. Gonze Comput. Mat. Science 42, 337, (2008).
- Comment: PAW calculations. Strong suggestion to cite this paper.
- DOI and bibtex: see https://docs.abinit.org/theory/bibliography/#torrent2008
-
- [2] Libxc: A library of exchange and correlation functionals for density functional theory.
- M.A.L. Marques, M.J.T. Oliveira, T. Burnus, Computer Physics Communications 183, 2227 (2012).
- Comment: to be cited when LibXC is used (negative value of ixc)
- Strong suggestion to cite this paper.
- DOI and bibtex: see https://docs.abinit.org/theory/bibliography/#marques2012
-
- [3] The Abinit project: Impact, environment and recent developments.
- Computer Phys. Comm. 248, 107042 (2020).
- X.Gonze, B. Amadon, G. Antonius, F.Arnardi, L.Baguet, J.-M.Beuken,
- J.Bieder, F.Bottin, J.Bouchet, E.Bousquet, N.Brouwer, F.Bruneval,
- G.Brunin, T.Cavignac, J.-B. Charraud, Wei Chen, M.Cote, S.Cottenier,
- J.Denier, G.Geneste, Ph.Ghosez, M.Giantomassi, Y.Gillet, O.Gingras,
- D.R.Hamann, G.Hautier, Xu He, N.Helbig, N.Holzwarth, Y.Jia, F.Jollet,
- W.Lafargue-Dit-Hauret, K.Lejaeghere, M.A.L.Marques, A.Martin, C.Martins,
- H.P.C. Miranda, F.Naccarato, K. Persson, G.Petretto, V.Planes, Y.Pouillon,
- S.Prokhorenko, F.Ricci, G.-M.Rignanese, A.H.Romero, M.M.Schmitt, M.Torrent,
- M.J.van Setten, B.Van Troeye, M.J.Verstraete, G.Zerah and J.W.Zwanzig
- Comment: the fifth generic paper describing the ABINIT project.
- Note that a version of this paper, that is not formatted for Computer Phys. Comm. 
- is available at https://www.abinit.org/sites/default/files/ABINIT20.pdf .
- The licence allows the authors to put it on the Web.
- DOI and bibtex: see https://docs.abinit.org/theory/bibliography/#gonze2020
-
- [4] ABINIT: Overview, and focus on selected capabilities
- J. Chem. Phys. 152, 124102 (2020).
- A. Romero, D.C. Allan, B. Amadon, G. Antonius, T. Applencourt, L.Baguet,
- J.Bieder, F.Bottin, J.Bouchet, E.Bousquet, F.Bruneval,
- G.Brunin, D.Caliste, M.Cote,
- J.Denier, C. Dreyer, Ph.Ghosez, M.Giantomassi, Y.Gillet, O.Gingras,
- D.R.Hamann, G.Hautier, F.Jollet, G. Jomard,
- A.Martin, 
- H.P.C. Miranda, F.Naccarato, G.Petretto, N.A. Pike, V.Planes,
- S.Prokhorenko, T. Rangel, F.Ricci, G.-M.Rignanese, M.Royo, M.Stengel, M.Torrent,
- M.J.van Setten, B.Van Troeye, M.J.Verstraete, J.Wiktor, J.W.Zwanziger, and X.Gonze.
- Comment: a global overview of ABINIT, with focus on selected capabilities .
- Note that a version of this paper, that is not formatted for J. Chem. Phys 
- is available at https://www.abinit.org/sites/default/files/ABINIT20_JPC.pdf .
- The licence allows the authors to put it on the Web.
- DOI and bibtex: see https://docs.abinit.org/theory/bibliography/#romero2020
-
- [5] Recent developments in the ABINIT software package.
- Computer Phys. Comm. 205, 106 (2016).
- X.Gonze, F.Jollet, F.Abreu Araujo, D.Adams, B.Amadon, T.Applencourt,
- C.Audouze, J.-M.Beuken, J.Bieder, A.Bokhanchuk, E.Bousquet, F.Bruneval
- D.Caliste, M.Cote, F.Dahm, F.Da Pieve, M.Delaveau, M.Di Gennaro,
- B.Dorado, C.Espejo, G.Geneste, L.Genovese, A.Gerossier, M.Giantomassi,
- Y.Gillet, D.R.Hamann, L.He, G.Jomard, J.Laflamme Janssen, S.Le Roux,
- A.Levitt, A.Lherbier, F.Liu, I.Lukacevic, A.Martin, C.Martins,
- M.J.T.Oliveira, S.Ponce, Y.Pouillon, T.Rangel, G.-M.Rignanese,
- A.H.Romero, B.Rousseau, O.Rubel, A.A.Shukri, M.Stankovski, M.Torrent,
- M.J.Van Setten, B.Van Troeye, M.J.Verstraete, D.Waroquier, J.Wiktor,
- B.Xu, A.Zhou, J.W.Zwanziger.
- Comment: the fourth generic paper describing the ABINIT project.
- Note that a version of this paper, that is not formatted for Computer Phys. Comm. 
- is available at https://www.abinit.org/sites/default/files/ABINIT16.pdf .
- The licence allows the authors to put it on the Web.
- DOI and bibtex: see https://docs.abinit.org/theory/bibliography/#gonze2016
-
- Proc.   0 individual time (sec): cpu=      12115.9  wall=      12138.5

================================================================================

 Calculation completed.
.Delivered   0 WARNINGs and   1 COMMENTs to log file.
+Overall time at end (sec) : cpu=      72694.3  wall=      72830.8
