
.Version 9.2.2 of ABINIT 
.(MPI version, prepared for a x86_64_linux_gnu9.3 computer) 

.Copyright (C) 1998-2020 ABINIT group . 
 ABINIT comes with ABSOLUTELY NO WARRANTY.
 It is free software, and you are welcome to redistribute it
 under certain conditions (GNU General Public License,
 see ~abinit/COPYING or http://www.gnu.org/copyleft/gpl.txt).

 ABINIT is a project of the Universite Catholique de Louvain,
 Corning Inc. and other collaborators, see ~abinit/doc/developers/contributors.txt .
 Please read https://docs.abinit.org/theory/acknowledgments for suggested
 acknowledgments of the ABINIT effort.
 For more information, see https://www.abinit.org .

.Starting date : Sat 25 Feb 2023.
- ( at 20h04 )
  
- The starting date is more than 2 years after the initial release
- of this version of ABINIT, namely Nov 2020.
- Note that the use beyond 3 years after the release will not be supported.
- Action: please, switch to a more recent version of ABINIT.

- input  file    -> Cs2TiI6.in
- output file    -> Cs2TiI6.out
- root for input  files -> Cs2TiI6i
- root for output files -> Cs2TiI6o

- inpspheads : Reading pseudopotential header in XML form from 
-   ../../../Psps_for_tests/ATOMICDATA/Cs.GGA_PBE-JTH.xml
- inpspheads : Reading pseudopotential header in XML form from 
-   ../../../Psps_for_tests/ATOMICDATA/I.GGA_PBE-JTH.xml
- inpspheads : Reading pseudopotential header in XML form from 
-   ../../../Psps_for_tests/ATOMICDATA/Zr.GGA_PBE-JTH.xml
- inpspheads : Reading pseudopotential header in XML form from 
-   ../../../Psps_for_tests/ATOMICDATA/Br.GGA_PBE-JTH.xml

 DATASET    1 : space group I4/m m m (#139); Bravais tI (body-center tetrag.)
================================================================================
 Values of the parameters that define the memory need for DATASET  1.
     intxc =       0    ionmov =       0      iscf =      17    lmnmax =      18
     lnmax =       6     mgfft =      54  mpssoang =       3    mqgrid =    3305
     natom =       9  nloc_mem =       2    nspden =       1   nspinor =       1
    nsppol =       1      nsym =      16    n1xccc =       1    ntypat =       4
    occopt =       1   xclevel =       2
-    mband =          42        mffmem =           1         mkmem =          11
       mpw =        6222          nfft =      157464          nkpt =          63
Pmy_natom=         2
 PAW method is used; the additional fine FFT grid is defined by:
   mgfftf=        90    nfftf =    729000
================================================================================
P This job should need less than                     252.189 Mbytes of memory.
  Rough estimation (10% accuracy) of disk space for files :
_ WF disk file :    251.214 Mbytes ; DEN or POT disk file :      5.564 Mbytes.
================================================================================


 DATASET    2 : space group I4/m m m (#139); Bravais tI (body-center tetrag.)
================================================================================
 Values of the parameters that define the memory need for DATASET  2.
     intxc =       0    ionmov =       0      iscf =      -2    lmnmax =      18
     lnmax =       6     mgfft =      54  mpssoang =       3    mqgrid =    3305
     natom =       9  nloc_mem =       2    nspden =       1   nspinor =       1
    nsppol =       1      nsym =      16    n1xccc =       1    ntypat =       4
    occopt =       1   xclevel =       2
-    mband =         100        mffmem =           1         mkmem =          11
       mpw =        6222          nfft =      157464          nkpt =          63
Pmy_natom=         2
 PAW method is used; the additional fine FFT grid is defined by:
   mgfftf=        90    nfftf =    729000
================================================================================
P This job should need less than                     271.331 Mbytes of memory.
  Rough estimation (10% accuracy) of disk space for files :
_ WF disk file :    598.125 Mbytes ; DEN or POT disk file :      5.564 Mbytes.
================================================================================


 DATASET    3 : space group I4/m m m (#139); Bravais tI (body-center tetrag.)
================================================================================
 Values of the parameters that define the memory need for DATASET  3.
     intxc =       0    ionmov =       0      iscf =      -2    lmnmax =      18
     lnmax =       6     mgfft =      54  mpssoang =       3    mqgrid =    3305
     natom =       9  nloc_mem =       2    nspden =       1   nspinor =       1
    nsppol =       1      nsym =      16    n1xccc =       1    ntypat =       4
    occopt =       1   xclevel =       2
-    mband =         100        mffmem =           1         mkmem =          72
       mpw =        6222          nfft =      157464          nkpt =         432
Pmy_natom=         2
 PAW method is used; the additional fine FFT grid is defined by:
   mgfftf=        90    nfftf =    729000
================================================================================
P This job should need less than                     928.750 Mbytes of memory.
  Rough estimation (10% accuracy) of disk space for files :
_ WF disk file :   4101.418 Mbytes ; DEN or POT disk file :      5.564 Mbytes.
================================================================================


 DATASET    4 : space group I4/m m m (#139); Bravais tI (body-center tetrag.)
================================================================================
 Values of the parameters that define the memory need for DATASET  4 (RF).
     intxc =       0      iscf =      -3    lmnmax =      18     lnmax =       6
     mgfft =      54  mpssoang =       3    mqgrid =    3001     natom =       9
  nloc_mem =       2    nspden =       1   nspinor =       1    nsppol =       1
      nsym =      16    n1xccc =       1    ntypat =       4    occopt =       1
   xclevel =       2
-    mband =         100        mffmem =           1         mkmem =          72
-   mkqmem =          72        mk1mem =          72           mpw =        6222
      nfft =      157464          nkpt =         432
Pmy_natom=         2
================================================================================
P This job should need less than                    2243.853 Mbytes of memory.
  Rough estimation (10% accuracy) of disk space for files :
_ WF disk file :      5.418 Mbytes ; DEN or POT disk file :      1.203 Mbytes.
================================================================================


 DATASET    5 : space group I4/m m m (#139); Bravais tI (body-center tetrag.)
================================================================================
 Values of the parameters that define the memory need for DATASET  5 (RF).
     intxc =       0      iscf =      -3    lmnmax =      18     lnmax =       6
     mgfft =      54  mpssoang =       3    mqgrid =    3001     natom =       9
  nloc_mem =       2    nspden =       1   nspinor =       1    nsppol =       1
      nsym =      16    n1xccc =       1    ntypat =       4    occopt =       1
   xclevel =       2
-    mband =         100        mffmem =           1         mkmem =          72
-   mkqmem =          72        mk1mem =          72           mpw =        6222
      nfft =      157464          nkpt =         432
Pmy_natom=         2
================================================================================
P This job should need less than                    2243.853 Mbytes of memory.
  Rough estimation (10% accuracy) of disk space for files :
_ WF disk file :      5.418 Mbytes ; DEN or POT disk file :      1.203 Mbytes.
================================================================================


 DATASET    6 : space group I4/m m m (#139); Bravais tI (body-center tetrag.)
================================================================================
 Values of the parameters that define the memory need for DATASET  6 (RF).
     intxc =       0      iscf =      -3    lmnmax =      18     lnmax =       6
     mgfft =      54  mpssoang =       3    mqgrid =    3001     natom =       9
  nloc_mem =       2    nspden =       1   nspinor =       1    nsppol =       1
      nsym =      16    n1xccc =       1    ntypat =       4    occopt =       1
   xclevel =       2
-    mband =         100        mffmem =           1         mkmem =          72
-   mkqmem =          72        mk1mem =          72           mpw =        6222
      nfft =      157464          nkpt =         432
Pmy_natom=         2
================================================================================
P This job should need less than                    2243.853 Mbytes of memory.
  Rough estimation (10% accuracy) of disk space for files :
_ WF disk file :      5.418 Mbytes ; DEN or POT disk file :      1.203 Mbytes.
================================================================================

--------------------------------------------------------------------------------
------------- Echo of variables that govern the present computation ------------
--------------------------------------------------------------------------------
-
- outvars: echo of selected default values                                      
-   iomode0 =  0 , fftalg0 =112 , wfoptalg0 = 10
-
- outvars: echo of global parameters not present in the input file              
-  max_nthreads =    0
-
 -outvars: echo values of preprocessed input variables --------
            acell      1.4212778538E+01  1.4212778538E+01  1.4217466964E+01 Bohr
              amu      1.32905430E+02  1.26904470E+02  9.12240000E+01
                       7.99040000E+01
           diemac      1.20000000E+01
             ecut      1.60000000E+01 Hartree
-          fftalg         112
           getden1          0
           getden2          1
           getden3          1
           getden4          0
           getden5          0
           getden6          0
           getwfk1          0
           getwfk2          1
           getwfk3          2
           getwfk4          3
           getwfk5          3
           getwfk6          3
             iscf1         17
             iscf2         -2
             iscf3         -2
             iscf4         -3
             iscf5         -3
             iscf6         -3
              ixc     -101130
           jdtset        1    2    3    4    5    6
              kpt1    -8.33333333E-02 -1.66666667E-01  0.00000000E+00
                      -8.33333333E-02 -3.33333333E-01  0.00000000E+00
                      -1.66666667E-01 -2.50000000E-01  0.00000000E+00
                      -8.33333333E-02 -2.50000000E-01  8.33333333E-02
                      -8.33333333E-02  5.00000000E-01  0.00000000E+00
                      -1.66666667E-01 -4.16666667E-01  0.00000000E+00
                      -8.33333333E-02 -4.16666667E-01  8.33333333E-02
                      -2.50000000E-01 -3.33333333E-01  0.00000000E+00
                      -1.66666667E-01 -3.33333333E-01  8.33333333E-02
                      -8.33333333E-02 -3.33333333E-01  1.66666667E-01
                      -8.33333333E-02  3.33333333E-01  0.00000000E+00
                      -1.66666667E-01  4.16666667E-01  0.00000000E+00
                      -8.33333333E-02  4.16666667E-01  8.33333333E-02
                      -2.50000000E-01  5.00000000E-01  0.00000000E+00
                      -1.66666667E-01  5.00000000E-01  8.33333333E-02
                      -8.33333333E-02  5.00000000E-01  1.66666667E-01
                      -3.33333333E-01 -4.16666667E-01  0.00000000E+00
                      -2.50000000E-01 -4.16666667E-01  8.33333333E-02
                      -1.66666667E-01 -4.16666667E-01  1.66666667E-01
                      -8.33333333E-02 -4.16666667E-01  2.50000000E-01
                      -8.33333333E-02  1.66666667E-01  0.00000000E+00
                      -1.66666667E-01  2.50000000E-01  0.00000000E+00
                      -8.33333333E-02  2.50000000E-01  8.33333333E-02
                      -2.50000000E-01  3.33333333E-01  0.00000000E+00
                      -1.66666667E-01  3.33333333E-01  8.33333333E-02
                      -8.33333333E-02  3.33333333E-01  1.66666667E-01
                      -3.33333333E-01  4.16666667E-01  0.00000000E+00
                      -2.50000000E-01  4.16666667E-01  8.33333333E-02
                      -1.66666667E-01  4.16666667E-01  1.66666667E-01
                      -8.33333333E-02  4.16666667E-01  2.50000000E-01
                      -4.16666667E-01  5.00000000E-01  0.00000000E+00
                      -3.33333333E-01  5.00000000E-01  8.33333333E-02
                      -2.50000000E-01  5.00000000E-01  1.66666667E-01
                      -1.66666667E-01  5.00000000E-01  2.50000000E-01
                      -8.33333333E-02  5.00000000E-01  3.33333333E-01
                      -8.33333333E-02  0.00000000E+00  0.00000000E+00
                      -8.33333333E-02  8.33333333E-02  8.33333333E-02
                      -8.33333333E-02  1.66666667E-01  1.66666667E-01
                      -8.33333333E-02  2.50000000E-01  2.50000000E-01
                      -8.33333333E-02  3.33333333E-01  3.33333333E-01
                      -8.33333333E-02  4.16666667E-01  4.16666667E-01
                      -2.50000000E-01  0.00000000E+00  0.00000000E+00
                      -1.66666667E-01  0.00000000E+00  8.33333333E-02
                      -2.50000000E-01  8.33333333E-02  8.33333333E-02
                      -1.66666667E-01  8.33333333E-02  1.66666667E-01
                      -2.50000000E-01  1.66666667E-01  1.66666667E-01
                      -1.66666667E-01  1.66666667E-01  2.50000000E-01
                      -2.50000000E-01  2.50000000E-01  2.50000000E-01
                      -1.66666667E-01  2.50000000E-01  3.33333333E-01
                      -2.50000000E-01  3.33333333E-01  3.33333333E-01
              kpt2    -8.33333333E-02 -1.66666667E-01  0.00000000E+00
                      -8.33333333E-02 -3.33333333E-01  0.00000000E+00
                      -1.66666667E-01 -2.50000000E-01  0.00000000E+00
                      -8.33333333E-02 -2.50000000E-01  8.33333333E-02
                      -8.33333333E-02  5.00000000E-01  0.00000000E+00
                      -1.66666667E-01 -4.16666667E-01  0.00000000E+00
                      -8.33333333E-02 -4.16666667E-01  8.33333333E-02
                      -2.50000000E-01 -3.33333333E-01  0.00000000E+00
                      -1.66666667E-01 -3.33333333E-01  8.33333333E-02
                      -8.33333333E-02 -3.33333333E-01  1.66666667E-01
                      -8.33333333E-02  3.33333333E-01  0.00000000E+00
                      -1.66666667E-01  4.16666667E-01  0.00000000E+00
                      -8.33333333E-02  4.16666667E-01  8.33333333E-02
                      -2.50000000E-01  5.00000000E-01  0.00000000E+00
                      -1.66666667E-01  5.00000000E-01  8.33333333E-02
                      -8.33333333E-02  5.00000000E-01  1.66666667E-01
                      -3.33333333E-01 -4.16666667E-01  0.00000000E+00
                      -2.50000000E-01 -4.16666667E-01  8.33333333E-02
                      -1.66666667E-01 -4.16666667E-01  1.66666667E-01
                      -8.33333333E-02 -4.16666667E-01  2.50000000E-01
                      -8.33333333E-02  1.66666667E-01  0.00000000E+00
                      -1.66666667E-01  2.50000000E-01  0.00000000E+00
                      -8.33333333E-02  2.50000000E-01  8.33333333E-02
                      -2.50000000E-01  3.33333333E-01  0.00000000E+00
                      -1.66666667E-01  3.33333333E-01  8.33333333E-02
                      -8.33333333E-02  3.33333333E-01  1.66666667E-01
                      -3.33333333E-01  4.16666667E-01  0.00000000E+00
                      -2.50000000E-01  4.16666667E-01  8.33333333E-02
                      -1.66666667E-01  4.16666667E-01  1.66666667E-01
                      -8.33333333E-02  4.16666667E-01  2.50000000E-01
                      -4.16666667E-01  5.00000000E-01  0.00000000E+00
                      -3.33333333E-01  5.00000000E-01  8.33333333E-02
                      -2.50000000E-01  5.00000000E-01  1.66666667E-01
                      -1.66666667E-01  5.00000000E-01  2.50000000E-01
                      -8.33333333E-02  5.00000000E-01  3.33333333E-01
                      -8.33333333E-02  0.00000000E+00  0.00000000E+00
                      -8.33333333E-02  8.33333333E-02  8.33333333E-02
                      -8.33333333E-02  1.66666667E-01  1.66666667E-01
                      -8.33333333E-02  2.50000000E-01  2.50000000E-01
                      -8.33333333E-02  3.33333333E-01  3.33333333E-01
                      -8.33333333E-02  4.16666667E-01  4.16666667E-01
                      -2.50000000E-01  0.00000000E+00  0.00000000E+00
                      -1.66666667E-01  0.00000000E+00  8.33333333E-02
                      -2.50000000E-01  8.33333333E-02  8.33333333E-02
                      -1.66666667E-01  8.33333333E-02  1.66666667E-01
                      -2.50000000E-01  1.66666667E-01  1.66666667E-01
                      -1.66666667E-01  1.66666667E-01  2.50000000E-01
                      -2.50000000E-01  2.50000000E-01  2.50000000E-01
                      -1.66666667E-01  2.50000000E-01  3.33333333E-01
                      -2.50000000E-01  3.33333333E-01  3.33333333E-01
              kpt3    -8.33333333E-02 -1.66666667E-01  0.00000000E+00
                      -1.66666667E-01 -8.33333333E-02  0.00000000E+00
                      -8.33333333E-02 -8.33333333E-02  8.33333333E-02
                      -8.33333333E-02 -3.33333333E-01  0.00000000E+00
                      -1.66666667E-01 -2.50000000E-01  0.00000000E+00
                      -8.33333333E-02 -2.50000000E-01  8.33333333E-02
                      -2.50000000E-01 -1.66666667E-01  0.00000000E+00
                      -1.66666667E-01 -1.66666667E-01  8.33333333E-02
                      -8.33333333E-02 -1.66666667E-01  1.66666667E-01
                      -3.33333333E-01 -8.33333333E-02  0.00000000E+00
                      -2.50000000E-01 -8.33333333E-02  8.33333333E-02
                      -1.66666667E-01 -8.33333333E-02  1.66666667E-01
                      -8.33333333E-02 -8.33333333E-02  2.50000000E-01
                      -8.33333333E-02  5.00000000E-01  0.00000000E+00
                      -1.66666667E-01 -4.16666667E-01  0.00000000E+00
                      -8.33333333E-02 -4.16666667E-01  8.33333333E-02
                      -2.50000000E-01 -3.33333333E-01  0.00000000E+00
                      -1.66666667E-01 -3.33333333E-01  8.33333333E-02
                      -8.33333333E-02 -3.33333333E-01  1.66666667E-01
                      -3.33333333E-01 -2.50000000E-01  0.00000000E+00
                      -2.50000000E-01 -2.50000000E-01  8.33333333E-02
                      -1.66666667E-01 -2.50000000E-01  1.66666667E-01
                      -8.33333333E-02 -2.50000000E-01  2.50000000E-01
                      -4.16666667E-01 -1.66666667E-01  0.00000000E+00
                      -3.33333333E-01 -1.66666667E-01  8.33333333E-02
                      -2.50000000E-01 -1.66666667E-01  1.66666667E-01
                      -1.66666667E-01 -1.66666667E-01  2.50000000E-01
                      -8.33333333E-02 -1.66666667E-01  3.33333333E-01
                       5.00000000E-01 -8.33333333E-02  0.00000000E+00
                      -4.16666667E-01 -8.33333333E-02  8.33333333E-02
                      -3.33333333E-01 -8.33333333E-02  1.66666667E-01
                      -2.50000000E-01 -8.33333333E-02  2.50000000E-01
                      -1.66666667E-01 -8.33333333E-02  3.33333333E-01
                      -8.33333333E-02 -8.33333333E-02  4.16666667E-01
                      -8.33333333E-02  3.33333333E-01  0.00000000E+00
                      -1.66666667E-01  4.16666667E-01  0.00000000E+00
                      -8.33333333E-02  4.16666667E-01  8.33333333E-02
                      -2.50000000E-01  5.00000000E-01  0.00000000E+00
                      -1.66666667E-01  5.00000000E-01  8.33333333E-02
                      -8.33333333E-02  5.00000000E-01  1.66666667E-01
                      -3.33333333E-01 -4.16666667E-01  0.00000000E+00
                      -2.50000000E-01 -4.16666667E-01  8.33333333E-02
                      -1.66666667E-01 -4.16666667E-01  1.66666667E-01
                      -8.33333333E-02 -4.16666667E-01  2.50000000E-01
                      -4.16666667E-01 -3.33333333E-01  0.00000000E+00
                      -3.33333333E-01 -3.33333333E-01  8.33333333E-02
                      -2.50000000E-01 -3.33333333E-01  1.66666667E-01
                      -1.66666667E-01 -3.33333333E-01  2.50000000E-01
                      -8.33333333E-02 -3.33333333E-01  3.33333333E-01
                       5.00000000E-01 -2.50000000E-01  0.00000000E+00
              kpt4    -8.33333333E-02 -1.66666667E-01  0.00000000E+00
                      -1.66666667E-01 -8.33333333E-02  0.00000000E+00
                      -8.33333333E-02 -8.33333333E-02  8.33333333E-02
                      -8.33333333E-02 -3.33333333E-01  0.00000000E+00
                      -1.66666667E-01 -2.50000000E-01  0.00000000E+00
                      -8.33333333E-02 -2.50000000E-01  8.33333333E-02
                      -2.50000000E-01 -1.66666667E-01  0.00000000E+00
                      -1.66666667E-01 -1.66666667E-01  8.33333333E-02
                      -8.33333333E-02 -1.66666667E-01  1.66666667E-01
                      -3.33333333E-01 -8.33333333E-02  0.00000000E+00
                      -2.50000000E-01 -8.33333333E-02  8.33333333E-02
                      -1.66666667E-01 -8.33333333E-02  1.66666667E-01
                      -8.33333333E-02 -8.33333333E-02  2.50000000E-01
                      -8.33333333E-02  5.00000000E-01  0.00000000E+00
                      -1.66666667E-01 -4.16666667E-01  0.00000000E+00
                      -8.33333333E-02 -4.16666667E-01  8.33333333E-02
                      -2.50000000E-01 -3.33333333E-01  0.00000000E+00
                      -1.66666667E-01 -3.33333333E-01  8.33333333E-02
                      -8.33333333E-02 -3.33333333E-01  1.66666667E-01
                      -3.33333333E-01 -2.50000000E-01  0.00000000E+00
                      -2.50000000E-01 -2.50000000E-01  8.33333333E-02
                      -1.66666667E-01 -2.50000000E-01  1.66666667E-01
                      -8.33333333E-02 -2.50000000E-01  2.50000000E-01
                      -4.16666667E-01 -1.66666667E-01  0.00000000E+00
                      -3.33333333E-01 -1.66666667E-01  8.33333333E-02
                      -2.50000000E-01 -1.66666667E-01  1.66666667E-01
                      -1.66666667E-01 -1.66666667E-01  2.50000000E-01
                      -8.33333333E-02 -1.66666667E-01  3.33333333E-01
                       5.00000000E-01 -8.33333333E-02  0.00000000E+00
                      -4.16666667E-01 -8.33333333E-02  8.33333333E-02
                      -3.33333333E-01 -8.33333333E-02  1.66666667E-01
                      -2.50000000E-01 -8.33333333E-02  2.50000000E-01
                      -1.66666667E-01 -8.33333333E-02  3.33333333E-01
                      -8.33333333E-02 -8.33333333E-02  4.16666667E-01
                      -8.33333333E-02  3.33333333E-01  0.00000000E+00
                      -1.66666667E-01  4.16666667E-01  0.00000000E+00
                      -8.33333333E-02  4.16666667E-01  8.33333333E-02
                      -2.50000000E-01  5.00000000E-01  0.00000000E+00
                      -1.66666667E-01  5.00000000E-01  8.33333333E-02
                      -8.33333333E-02  5.00000000E-01  1.66666667E-01
                      -3.33333333E-01 -4.16666667E-01  0.00000000E+00
                      -2.50000000E-01 -4.16666667E-01  8.33333333E-02
                      -1.66666667E-01 -4.16666667E-01  1.66666667E-01
                      -8.33333333E-02 -4.16666667E-01  2.50000000E-01
                      -4.16666667E-01 -3.33333333E-01  0.00000000E+00
                      -3.33333333E-01 -3.33333333E-01  8.33333333E-02
                      -2.50000000E-01 -3.33333333E-01  1.66666667E-01
                      -1.66666667E-01 -3.33333333E-01  2.50000000E-01
                      -8.33333333E-02 -3.33333333E-01  3.33333333E-01
                       5.00000000E-01 -2.50000000E-01  0.00000000E+00
              kpt5    -8.33333333E-02 -1.66666667E-01  0.00000000E+00
                      -1.66666667E-01 -8.33333333E-02  0.00000000E+00
                      -8.33333333E-02 -8.33333333E-02  8.33333333E-02
                      -8.33333333E-02 -3.33333333E-01  0.00000000E+00
                      -1.66666667E-01 -2.50000000E-01  0.00000000E+00
                      -8.33333333E-02 -2.50000000E-01  8.33333333E-02
                      -2.50000000E-01 -1.66666667E-01  0.00000000E+00
                      -1.66666667E-01 -1.66666667E-01  8.33333333E-02
                      -8.33333333E-02 -1.66666667E-01  1.66666667E-01
                      -3.33333333E-01 -8.33333333E-02  0.00000000E+00
                      -2.50000000E-01 -8.33333333E-02  8.33333333E-02
                      -1.66666667E-01 -8.33333333E-02  1.66666667E-01
                      -8.33333333E-02 -8.33333333E-02  2.50000000E-01
                      -8.33333333E-02  5.00000000E-01  0.00000000E+00
                      -1.66666667E-01 -4.16666667E-01  0.00000000E+00
                      -8.33333333E-02 -4.16666667E-01  8.33333333E-02
                      -2.50000000E-01 -3.33333333E-01  0.00000000E+00
                      -1.66666667E-01 -3.33333333E-01  8.33333333E-02
                      -8.33333333E-02 -3.33333333E-01  1.66666667E-01
                      -3.33333333E-01 -2.50000000E-01  0.00000000E+00
                      -2.50000000E-01 -2.50000000E-01  8.33333333E-02
                      -1.66666667E-01 -2.50000000E-01  1.66666667E-01
                      -8.33333333E-02 -2.50000000E-01  2.50000000E-01
                      -4.16666667E-01 -1.66666667E-01  0.00000000E+00
                      -3.33333333E-01 -1.66666667E-01  8.33333333E-02
                      -2.50000000E-01 -1.66666667E-01  1.66666667E-01
                      -1.66666667E-01 -1.66666667E-01  2.50000000E-01
                      -8.33333333E-02 -1.66666667E-01  3.33333333E-01
                       5.00000000E-01 -8.33333333E-02  0.00000000E+00
                      -4.16666667E-01 -8.33333333E-02  8.33333333E-02
                      -3.33333333E-01 -8.33333333E-02  1.66666667E-01
                      -2.50000000E-01 -8.33333333E-02  2.50000000E-01
                      -1.66666667E-01 -8.33333333E-02  3.33333333E-01
                      -8.33333333E-02 -8.33333333E-02  4.16666667E-01
                      -8.33333333E-02  3.33333333E-01  0.00000000E+00
                      -1.66666667E-01  4.16666667E-01  0.00000000E+00
                      -8.33333333E-02  4.16666667E-01  8.33333333E-02
                      -2.50000000E-01  5.00000000E-01  0.00000000E+00
                      -1.66666667E-01  5.00000000E-01  8.33333333E-02
                      -8.33333333E-02  5.00000000E-01  1.66666667E-01
                      -3.33333333E-01 -4.16666667E-01  0.00000000E+00
                      -2.50000000E-01 -4.16666667E-01  8.33333333E-02
                      -1.66666667E-01 -4.16666667E-01  1.66666667E-01
                      -8.33333333E-02 -4.16666667E-01  2.50000000E-01
                      -4.16666667E-01 -3.33333333E-01  0.00000000E+00
                      -3.33333333E-01 -3.33333333E-01  8.33333333E-02
                      -2.50000000E-01 -3.33333333E-01  1.66666667E-01
                      -1.66666667E-01 -3.33333333E-01  2.50000000E-01
                      -8.33333333E-02 -3.33333333E-01  3.33333333E-01
                       5.00000000E-01 -2.50000000E-01  0.00000000E+00
              kpt6    -8.33333333E-02 -1.66666667E-01  0.00000000E+00
                      -1.66666667E-01 -8.33333333E-02  0.00000000E+00
                      -8.33333333E-02 -8.33333333E-02  8.33333333E-02
                      -8.33333333E-02 -3.33333333E-01  0.00000000E+00
                      -1.66666667E-01 -2.50000000E-01  0.00000000E+00
                      -8.33333333E-02 -2.50000000E-01  8.33333333E-02
                      -2.50000000E-01 -1.66666667E-01  0.00000000E+00
                      -1.66666667E-01 -1.66666667E-01  8.33333333E-02
                      -8.33333333E-02 -1.66666667E-01  1.66666667E-01
                      -3.33333333E-01 -8.33333333E-02  0.00000000E+00
                      -2.50000000E-01 -8.33333333E-02  8.33333333E-02
                      -1.66666667E-01 -8.33333333E-02  1.66666667E-01
                      -8.33333333E-02 -8.33333333E-02  2.50000000E-01
                      -8.33333333E-02  5.00000000E-01  0.00000000E+00
                      -1.66666667E-01 -4.16666667E-01  0.00000000E+00
                      -8.33333333E-02 -4.16666667E-01  8.33333333E-02
                      -2.50000000E-01 -3.33333333E-01  0.00000000E+00
                      -1.66666667E-01 -3.33333333E-01  8.33333333E-02
                      -8.33333333E-02 -3.33333333E-01  1.66666667E-01
                      -3.33333333E-01 -2.50000000E-01  0.00000000E+00
                      -2.50000000E-01 -2.50000000E-01  8.33333333E-02
                      -1.66666667E-01 -2.50000000E-01  1.66666667E-01
                      -8.33333333E-02 -2.50000000E-01  2.50000000E-01
                      -4.16666667E-01 -1.66666667E-01  0.00000000E+00
                      -3.33333333E-01 -1.66666667E-01  8.33333333E-02
                      -2.50000000E-01 -1.66666667E-01  1.66666667E-01
                      -1.66666667E-01 -1.66666667E-01  2.50000000E-01
                      -8.33333333E-02 -1.66666667E-01  3.33333333E-01
                       5.00000000E-01 -8.33333333E-02  0.00000000E+00
                      -4.16666667E-01 -8.33333333E-02  8.33333333E-02
                      -3.33333333E-01 -8.33333333E-02  1.66666667E-01
                      -2.50000000E-01 -8.33333333E-02  2.50000000E-01
                      -1.66666667E-01 -8.33333333E-02  3.33333333E-01
                      -8.33333333E-02 -8.33333333E-02  4.16666667E-01
                      -8.33333333E-02  3.33333333E-01  0.00000000E+00
                      -1.66666667E-01  4.16666667E-01  0.00000000E+00
                      -8.33333333E-02  4.16666667E-01  8.33333333E-02
                      -2.50000000E-01  5.00000000E-01  0.00000000E+00
                      -1.66666667E-01  5.00000000E-01  8.33333333E-02
                      -8.33333333E-02  5.00000000E-01  1.66666667E-01
                      -3.33333333E-01 -4.16666667E-01  0.00000000E+00
                      -2.50000000E-01 -4.16666667E-01  8.33333333E-02
                      -1.66666667E-01 -4.16666667E-01  1.66666667E-01
                      -8.33333333E-02 -4.16666667E-01  2.50000000E-01
                      -4.16666667E-01 -3.33333333E-01  0.00000000E+00
                      -3.33333333E-01 -3.33333333E-01  8.33333333E-02
                      -2.50000000E-01 -3.33333333E-01  1.66666667E-01
                      -1.66666667E-01 -3.33333333E-01  2.50000000E-01
                      -8.33333333E-02 -3.33333333E-01  3.33333333E-01
                       5.00000000E-01 -2.50000000E-01  0.00000000E+00
                       outvar_i_n : Printing only first  50 k-points.
           kptopt1          1
           kptopt2          1
           kptopt3          2
           kptopt4          2
           kptopt5          2
           kptopt6          2
         kptrlatt        6   -6    6     -6    6    6     -6   -6    6
          kptrlen      1.20559629E+02
P           mkmem1         11
P           mkmem2         11
P           mkmem3         72
P           mkmem4         72
P           mkmem5         72
P           mkmem6         72
P          mkqmem1         11
P          mkqmem2         11
P          mkqmem3         72
P          mkqmem4         72
P          mkqmem5         72
P          mkqmem6         72
P          mk1mem1         11
P          mk1mem2         11
P          mk1mem3         72
P          mk1mem4         72
P          mk1mem5         72
P          mk1mem6         72
            natom           9
            nband1         42
            nband2        100
            nband3        100
            nband4        100
            nband5        100
            nband6        100
           nbdbuf1          0
           nbdbuf2          2
           nbdbuf3          2
           nbdbuf4          2
           nbdbuf5          2
           nbdbuf6          2
           ndtset           6
            ngfft          54      54      54
          ngfftdg          90      90      90
             nkpt1         63
             nkpt2         63
             nkpt3        432
             nkpt4        432
             nkpt5        432
             nkpt6        432
            nline1          4
            nline2          4
            nline3          4
            nline4          0
            nline5          0
            nline6          0
             nqpt1          0
             nqpt2          0
             nqpt3          0
             nqpt4          1
             nqpt5          1
             nqpt6          1
            nstep1        200
            nstep2        200
            nstep3        100
            nstep4          1
            nstep5          1
            nstep6          1
             nsym          16
           ntypat           4
              occ1     2.000000  2.000000  2.000000  2.000000  2.000000  2.000000
                       2.000000  2.000000  2.000000  2.000000  2.000000  2.000000
                       2.000000  2.000000  2.000000  2.000000  2.000000  2.000000
                       2.000000  2.000000  2.000000  2.000000  2.000000  2.000000
                       2.000000  2.000000  2.000000  2.000000  2.000000  2.000000
                       2.000000  2.000000  2.000000  2.000000  2.000000  2.000000
                       0.000000  0.000000  0.000000  0.000000  0.000000  0.000000
              occ4     2.000000  2.000000  2.000000  2.000000  2.000000  2.000000
                       2.000000  2.000000  2.000000  2.000000  2.000000  2.000000
                       2.000000  2.000000  2.000000  2.000000  2.000000  2.000000
                       2.000000  2.000000  2.000000  2.000000  2.000000  2.000000
                       2.000000  2.000000  2.000000  2.000000  2.000000  2.000000
                       2.000000  2.000000  2.000000  2.000000  2.000000  2.000000
                       0.000000  0.000000  0.000000  0.000000  0.000000  0.000000
                       0.000000  0.000000  0.000000  0.000000  0.000000  0.000000
                       0.000000  0.000000  0.000000  0.000000  0.000000  0.000000
                       0.000000  0.000000  0.000000  0.000000  0.000000  0.000000
                       0.000000  0.000000  0.000000  0.000000  0.000000  0.000000
                       0.000000  0.000000  0.000000  0.000000  0.000000  0.000000
                       0.000000  0.000000  0.000000  0.000000  0.000000  0.000000
                       0.000000  0.000000  0.000000  0.000000  0.000000  0.000000
                       0.000000  0.000000  0.000000  0.000000  0.000000  0.000000
                       0.000000  0.000000  0.000000  0.000000  0.000000  0.000000
                       0.000000  0.000000  0.000000  0.000000
              occ5     2.000000  2.000000  2.000000  2.000000  2.000000  2.000000
                       2.000000  2.000000  2.000000  2.000000  2.000000  2.000000
                       2.000000  2.000000  2.000000  2.000000  2.000000  2.000000
                       2.000000  2.000000  2.000000  2.000000  2.000000  2.000000
                       2.000000  2.000000  2.000000  2.000000  2.000000  2.000000
                       2.000000  2.000000  2.000000  2.000000  2.000000  2.000000
                       0.000000  0.000000  0.000000  0.000000  0.000000  0.000000
                       0.000000  0.000000  0.000000  0.000000  0.000000  0.000000
                       0.000000  0.000000  0.000000  0.000000  0.000000  0.000000
                       0.000000  0.000000  0.000000  0.000000  0.000000  0.000000
                       0.000000  0.000000  0.000000  0.000000  0.000000  0.000000
                       0.000000  0.000000  0.000000  0.000000  0.000000  0.000000
                       0.000000  0.000000  0.000000  0.000000  0.000000  0.000000
                       0.000000  0.000000  0.000000  0.000000  0.000000  0.000000
                       0.000000  0.000000  0.000000  0.000000  0.000000  0.000000
                       0.000000  0.000000  0.000000  0.000000  0.000000  0.000000
                       0.000000  0.000000  0.000000  0.000000
              occ6     2.000000  2.000000  2.000000  2.000000  2.000000  2.000000
                       2.000000  2.000000  2.000000  2.000000  2.000000  2.000000
                       2.000000  2.000000  2.000000  2.000000  2.000000  2.000000
                       2.000000  2.000000  2.000000  2.000000  2.000000  2.000000
                       2.000000  2.000000  2.000000  2.000000  2.000000  2.000000
                       2.000000  2.000000  2.000000  2.000000  2.000000  2.000000
                       0.000000  0.000000  0.000000  0.000000  0.000000  0.000000
                       0.000000  0.000000  0.000000  0.000000  0.000000  0.000000
                       0.000000  0.000000  0.000000  0.000000  0.000000  0.000000
                       0.000000  0.000000  0.000000  0.000000  0.000000  0.000000
                       0.000000  0.000000  0.000000  0.000000  0.000000  0.000000
                       0.000000  0.000000  0.000000  0.000000  0.000000  0.000000
                       0.000000  0.000000  0.000000  0.000000  0.000000  0.000000
                       0.000000  0.000000  0.000000  0.000000  0.000000  0.000000
                       0.000000  0.000000  0.000000  0.000000  0.000000  0.000000
                       0.000000  0.000000  0.000000  0.000000  0.000000  0.000000
                       0.000000  0.000000  0.000000  0.000000
        optdriver1          0
        optdriver2          0
        optdriver3          0
        optdriver4          1
        optdriver5          1
        optdriver6          1
        pawecutdg      4.00000000E+01 Hartree
            prtwf1          1
            prtwf2          1
            prtwf3          1
            prtwf4          3
            prtwf5          3
            prtwf6          3
            rfdir1          0       0       0
            rfdir2          0       0       0
            rfdir3          0       0       0
            rfdir4          1       0       0
            rfdir5          0       1       0
            rfdir6          0       0       1
           rfelfd1          0
           rfelfd2          0
           rfelfd3          0
           rfelfd4          2
           rfelfd5          2
           rfelfd6          2
            rprim      0.0000000000E+00  7.0734003733E-01  7.0687344807E-01
                       7.0734003733E-01  0.0000000000E+00  7.0687344807E-01
                       7.0710678119E-01  7.0710678119E-01  0.0000000000E+00
           shiftk      5.00000000E-01  5.00000000E-01  5.00000000E-01
          spgroup         139
           symrel      1  0  0   0  1  0   0  0  1      -1  0  0   0 -1  0   0  0 -1
                      -1  0  1   0 -1  1   0  0  1       1  0 -1   0  1 -1   0  0 -1
                       0  1 -1   1  0 -1   0  0 -1       0 -1  1  -1  0  1   0  0  1
                       0 -1  0  -1  0  0   0  0 -1       0  1  0   1  0  0   0  0  1
                       1  0  0   1  0 -1   1 -1  0      -1  0  0  -1  0  1  -1  1  0
                       0 -1  0   0 -1  1   1 -1  0       0  1  0   0  1 -1  -1  1  0
                       0  1 -1   0  1  0  -1  1  0       0 -1  1   0 -1  0   1 -1  0
                      -1  0  1  -1  0  0  -1  1  0       1  0 -1   1  0  0   1 -1  0
           tolwfr      1.00000000E-18
            typat      1  1  2  2  4  4  4  4  3
           useylm           1
              wtk1       0.00926    0.00926    0.00926    0.01852    0.00926    0.00926
                         0.01852    0.00926    0.01852    0.01852    0.00926    0.00926
                         0.01852    0.00926    0.01852    0.01852    0.00926    0.01852
                         0.01852    0.01852    0.00926    0.00926    0.01852    0.00926
                         0.01852    0.01852    0.00926    0.01852    0.01852    0.01852
                         0.00926    0.01852    0.01852    0.01852    0.01852    0.00926
                         0.01852    0.01852    0.01852    0.01852    0.01852    0.00926
                         0.01852    0.01852    0.01852    0.01852    0.01852    0.01852
                         0.01852    0.01852
              wtk2       0.00926    0.00926    0.00926    0.01852    0.00926    0.00926
                         0.01852    0.00926    0.01852    0.01852    0.00926    0.00926
                         0.01852    0.00926    0.01852    0.01852    0.00926    0.01852
                         0.01852    0.01852    0.00926    0.00926    0.01852    0.00926
                         0.01852    0.01852    0.00926    0.01852    0.01852    0.01852
                         0.00926    0.01852    0.01852    0.01852    0.01852    0.00926
                         0.01852    0.01852    0.01852    0.01852    0.01852    0.00926
                         0.01852    0.01852    0.01852    0.01852    0.01852    0.01852
                         0.01852    0.01852
              wtk3       0.00231    0.00231    0.00231    0.00231    0.00231    0.00231
                         0.00231    0.00231    0.00231    0.00231    0.00231    0.00231
                         0.00231    0.00231    0.00231    0.00231    0.00231    0.00231
                         0.00231    0.00231    0.00231    0.00231    0.00231    0.00231
                         0.00231    0.00231    0.00231    0.00231    0.00231    0.00231
                         0.00231    0.00231    0.00231    0.00231    0.00231    0.00231
                         0.00231    0.00231    0.00231    0.00231    0.00231    0.00231
                         0.00231    0.00231    0.00231    0.00231    0.00231    0.00231
                         0.00231    0.00231
              wtk4       0.00231    0.00231    0.00231    0.00231    0.00231    0.00231
                         0.00231    0.00231    0.00231    0.00231    0.00231    0.00231
                         0.00231    0.00231    0.00231    0.00231    0.00231    0.00231
                         0.00231    0.00231    0.00231    0.00231    0.00231    0.00231
                         0.00231    0.00231    0.00231    0.00231    0.00231    0.00231
                         0.00231    0.00231    0.00231    0.00231    0.00231    0.00231
                         0.00231    0.00231    0.00231    0.00231    0.00231    0.00231
                         0.00231    0.00231    0.00231    0.00231    0.00231    0.00231
                         0.00231    0.00231
              wtk5       0.00231    0.00231    0.00231    0.00231    0.00231    0.00231
                         0.00231    0.00231    0.00231    0.00231    0.00231    0.00231
                         0.00231    0.00231    0.00231    0.00231    0.00231    0.00231
                         0.00231    0.00231    0.00231    0.00231    0.00231    0.00231
                         0.00231    0.00231    0.00231    0.00231    0.00231    0.00231
                         0.00231    0.00231    0.00231    0.00231    0.00231    0.00231
                         0.00231    0.00231    0.00231    0.00231    0.00231    0.00231
                         0.00231    0.00231    0.00231    0.00231    0.00231    0.00231
                         0.00231    0.00231
              wtk6       0.00231    0.00231    0.00231    0.00231    0.00231    0.00231
                         0.00231    0.00231    0.00231    0.00231    0.00231    0.00231
                         0.00231    0.00231    0.00231    0.00231    0.00231    0.00231
                         0.00231    0.00231    0.00231    0.00231    0.00231    0.00231
                         0.00231    0.00231    0.00231    0.00231    0.00231    0.00231
                         0.00231    0.00231    0.00231    0.00231    0.00231    0.00231
                         0.00231    0.00231    0.00231    0.00231    0.00231    0.00231
                         0.00231    0.00231    0.00231    0.00231    0.00231    0.00231
                         0.00231    0.00231
                       outvars : Printing only first  50 k-points.
           xangst      2.6599799639E+00  2.6599799639E+00  2.6582253367E+00
                       7.9799398918E+00  7.9799398918E+00  7.9746760102E+00
                       5.3199599279E+00  5.3199599279E+00  2.8318924793E+00
                       5.3199599279E+00  5.3199599279E+00  7.8010088676E+00
                       8.0314800716E+00  5.3199599279E+00  5.3164506734E+00
                       5.3199599279E+00  8.0314800716E+00  5.3164506734E+00
                       5.3199599279E+00  2.6084397841E+00  5.3164506734E+00
                       2.6084397841E+00  5.3199599279E+00  5.3164506734E+00
                      -1.8855824658E-20 -3.6054405222E-20 -3.7196029527E-22
            xcart      5.0266336508E+00  5.0266336508E+00  5.0233178859E+00
                       1.5079900952E+01  1.5079900952E+01  1.5069953658E+01
                       1.0053267302E+01  1.0053267302E+01  5.3515012237E+00
                       1.0053267302E+01  1.0053267302E+01  1.4741770320E+01
                       1.5177297777E+01  1.0053267302E+01  1.0046635772E+01
                       1.0053267302E+01  1.5177297777E+01  1.0046635772E+01
                       1.0053267302E+01  4.9292368261E+00  1.0046635772E+01
                       4.9292368261E+00  1.0053267302E+01  1.0046635772E+01
                      -3.5632344614E-20 -6.8132951754E-20 -7.0290309037E-22
             xred      2.5000000000E-01  2.5000000000E-01  2.5000000000E-01
                       7.5000000000E-01  7.5000000000E-01  7.5000000000E-01
                       2.6633299670E-01  2.6633299670E-01  7.3366700330E-01
                       7.3366700330E-01  7.3366700330E-01  2.6633299670E-01
                       2.4515596165E-01  7.5484403835E-01  7.5484403835E-01
                       7.5484403835E-01  2.4515596165E-01  7.5484403835E-01
                       2.4515596165E-01  7.5484403835E-01  2.4515596165E-01
                       7.5484403835E-01  2.4515596165E-01  2.4515596165E-01
                      -1.6514021364E-21  1.5814381100E-21 -5.1257927506E-21
            znucl       55.00000   53.00000   40.00000   35.00000

================================================================================

 chkinp: Checking input parameters for consistency, jdtset=   1.

 chkinp: Checking input parameters for consistency, jdtset=   2.

 chkinp: Checking input parameters for consistency, jdtset=   3.

 chkinp: Checking input parameters for consistency, jdtset=   4.

 chkinp: Checking input parameters for consistency, jdtset=   5.

 chkinp: Checking input parameters for consistency, jdtset=   6.

================================================================================
== DATASET  1 ==================================================================
-   mpi_nproc: 6, omp_nthreads: -1 (-1 if OMP is not activated)


--- !DatasetInfo
iteration_state: {dtset: 1, }
dimensions: {natom: 9, nkpt: 63, mband: 42, nsppol: 1, nspinor: 1, nspden: 1, mpw: 6222, }
cutoff_energies: {ecut:  16.0, pawecutdg:  40.0, }
electrons: {nelect:   7.20000000E+01, charge:   0.00000000E+00, occopt:   1.00000000E+00, tsmear:   1.00000000E-02, }
meta: {optdriver: 0, ionmov: 0, optcell: 0, iscf: 17, paral_kgb: 0, }
...

 Real(R)+Recip(G) space primitive vectors, cartesian coordinates (Bohr,Bohr^-1):
 R(1)=  0.0000000 10.0532673 10.0466358  G(1)= -0.0497351  0.0497351  0.0497679
 R(2)= 10.0532673  0.0000000 10.0466358  G(2)=  0.0497351 -0.0497351  0.0497679
 R(3)= 10.0532673 10.0532673  0.0000000  G(3)=  0.0497351  0.0497351 -0.0497679
 Unit cell volume ucvol=  2.0307905E+03 bohr^3
 Angles (23,13,12)=  5.99890873E+01  5.99890873E+01  6.00218255E+01 degrees

 Coarse grid specifications (used for wave-functions):

 getcut: wavevector=  0.0000  0.0000  0.0000  ngfft=  54  54  54
         ecut(hartree)=     16.000   => boxcut(ratio)=   2.11006

 Fine grid specifications (used for densities):

 getcut: wavevector=  0.0000  0.0000  0.0000  ngfft=  90  90  90
         ecut(hartree)=     40.000   => boxcut(ratio)=   2.22371

 getcut : COMMENT -
  Note that boxcut > 2.2 ; recall that boxcut=Gcut(box)/Gcut(sphere) = 2
  is sufficient for exact treatment of convolution.
  Such a large boxcut is a waste : you could raise ecut
  e.g. ecut=   49.449019 Hartrees makes boxcut=2


--- Pseudopotential description ------------------------------------------------
- pspini: atom type   1  psp file is ../../../Psps_for_tests/ATOMICDATA/Cs.GGA_PBE-JTH.xml
- pspatm: opening atomic psp file    ../../../Psps_for_tests/ATOMICDATA/Cs.GGA_PBE-JTH.xml
- pspatm : Reading pseudopotential header in XML form from ../../../Psps_for_tests/ATOMICDATA/Cs.GGA_PBE-JTH.xml
 Pseudopotential format is: paw10
 basis_size (lnmax)=  6 (lmn_size= 18), orbitals=   0   0   1   1   2   2
 Spheres core radius: rc_sph= 2.20660278
 1 radial meshes are used:
  - mesh 1: r(i)=AA*[exp(BB*(i-1))-1], size=1500 , AA= 0.15922E-03 BB= 0.87573E-02
 Shapefunction is SIN type: shapef(r)=[sin(pi*r/rshp)/(pi*r/rshp)]**2
 Radius for shape functions =  2.00394208
 mmax= 1500
 Radial grid used for partial waves is grid 1
 Radial grid used for projectors is grid 1
 Radial grid used for (t)core density is grid 1
 Radial grid used for Vloc is grid 1
 Radial grid used for pseudo valence density is grid 1
 Mesh size for Vloc has been set to 1341 to avoid numerical noise.
 Compensation charge density is not taken into account in XC energy/potential
 pspatm: atomic psp has been read  and splines computed

- pspini: atom type   2  psp file is ../../../Psps_for_tests/ATOMICDATA/I.GGA_PBE-JTH.xml
- pspatm: opening atomic psp file    ../../../Psps_for_tests/ATOMICDATA/I.GGA_PBE-JTH.xml
- pspatm : Reading pseudopotential header in XML form from ../../../Psps_for_tests/ATOMICDATA/I.GGA_PBE-JTH.xml
 Pseudopotential format is: paw10
 basis_size (lnmax)=  4 (lmn_size=  8), orbitals=   0   0   1   1
 Spheres core radius: rc_sph= 2.30022271
 1 radial meshes are used:
  - mesh 1: r(i)=AA*[exp(BB*(i-1))-1], size=2000 , AA= 0.12610E-03 BB= 0.66836E-02
 Shapefunction is SIN type: shapef(r)=[sin(pi*r/rshp)/(pi*r/rshp)]**2
 Radius for shape functions =  2.10879093
 mmax= 2000
 Radial grid used for partial waves is grid 1
 Radial grid used for projectors is grid 1
 Radial grid used for (t)core density is grid 1
 Radial grid used for Vloc is grid 1
 Radial grid used for pseudo valence density is grid 1
 Mesh size for Vloc has been set to 1792 to avoid numerical noise.
 Compensation charge density is not taken into account in XC energy/potential
 pspatm: atomic psp has been read  and splines computed

- pspini: atom type   3  psp file is ../../../Psps_for_tests/ATOMICDATA/Zr.GGA_PBE-JTH.xml
- pspatm: opening atomic psp file    ../../../Psps_for_tests/ATOMICDATA/Zr.GGA_PBE-JTH.xml
- pspatm : Reading pseudopotential header in XML form from ../../../Psps_for_tests/ATOMICDATA/Zr.GGA_PBE-JTH.xml
 Pseudopotential format is: paw10
 basis_size (lnmax)=  6 (lmn_size= 18), orbitals=   0   0   1   1   2   2
 Spheres core radius: rc_sph= 2.21000000
 1 radial meshes are used:
  - mesh 1: r(i)=AA*[exp(BB*(i-1))-1], size= 941 , AA= 0.35256E-03 BB= 0.14102E-01
 Shapefunction is BESSEL type: shapef(r,l)=aa(1,l)*jl(q(1,l)*r)+aa(2,l)*jl(q(2,l)*r)
 Radius for shape functions =  2.21000000
 mmax=  941
 Radial grid used for partial waves is grid 1
 Radial grid used for projectors is grid 1
 Radial grid used for (t)core density is grid 1
 Radial grid used for Vloc is grid 1
 Radial grid used for pseudo valence density is grid 1
 Mesh size for Vloc has been set to  777 to avoid numerical noise.
 Compensation charge density is not taken into account in XC energy/potential
 pspatm: atomic psp has been read  and splines computed

- pspini: atom type   4  psp file is ../../../Psps_for_tests/ATOMICDATA/Br.GGA_PBE-JTH.xml
- pspatm: opening atomic psp file    ../../../Psps_for_tests/ATOMICDATA/Br.GGA_PBE-JTH.xml
- pspatm : Reading pseudopotential header in XML form from ../../../Psps_for_tests/ATOMICDATA/Br.GGA_PBE-JTH.xml
 Pseudopotential format is: paw10
 basis_size (lnmax)=  4 (lmn_size=  8), orbitals=   0   0   1   1
 Spheres core radius: rc_sph= 2.20000000
 1 radial meshes are used:
  - mesh 1: r(i)=AA*[exp(BB*(i-1))-1], size= 927 , AA= 0.40483E-03 BB= 0.14169E-01
 Shapefunction is BESSEL type: shapef(r,l)=aa(1,l)*jl(q(1,l)*r)+aa(2,l)*jl(q(2,l)*r)
 Radius for shape functions =  2.02066386
 mmax=  927
 Radial grid used for partial waves is grid 1
 Radial grid used for projectors is grid 1
 Radial grid used for (t)core density is grid 1
 Radial grid used for Vloc is grid 1
 Radial grid used for pseudo valence density is grid 1
 Mesh size for Vloc has been set to  763 to avoid numerical noise.
 Compensation charge density is not taken into account in XC energy/potential
 pspatm: atomic psp has been read  and splines computed

   2.93056170E+04                                ecore*ucvol(ha*bohr**3)
--------------------------------------------------------------------------------

_setup2: Arith. and geom. avg. npw (full set) are    6207.806    6207.801

================================================================================

--- !BeginCycle
iteration_state: {dtset: 1, }
solver: {iscf: 17, nstep: 200, nline: 4, wfoptalg: 10, }
tolerances: {tolwfr: 1.00E-18, }
...

     iter   Etot(hartree)      deltaE(h)  residm     nres2
 ETOT  1  -166.44011677299    -1.664E+02 2.542E-01 1.994E+01
 ETOT  2  -166.63572532271    -1.956E-01 1.604E-02 5.017E+00
 ETOT  3  -166.63238601382     3.339E-03 3.966E-03 1.063E+00
 ETOT  4  -166.63301150054    -6.255E-04 1.640E-03 5.999E-02
 ETOT  5  -166.63274571239     2.658E-04 1.115E-03 5.724E-03
 ETOT  6  -166.63278588459    -4.017E-05 1.734E-03 4.693E-04
 ETOT  7  -166.63278597935    -9.476E-08 9.182E-04 7.751E-05
 ETOT  8  -166.63278712350    -1.144E-06 3.829E-04 1.541E-05
 ETOT  9  -166.63278715821    -3.470E-08 1.428E-04 2.533E-06
 ETOT 10  -166.63278719708    -3.887E-08 1.744E-04 2.207E-07
 ETOT 11  -166.63278719900    -1.916E-09 9.365E-05 6.043E-08
 ETOT 12  -166.63278719969    -6.904E-10 1.117E-04 9.943E-09
 ETOT 13  -166.63278719978    -8.950E-11 9.121E-05 1.940E-09
 ETOT 14  -166.63278719978    -2.046E-12 9.029E-05 1.866E-10
 ETOT 15  -166.63278719977     8.384E-12 7.434E-05 3.047E-11
 ETOT 16  -166.63278719977     1.393E-12 6.718E-05 4.293E-12
 ETOT 17  -166.63278719977    -3.070E-12 5.265E-05 7.305E-13
 ETOT 18  -166.63278719977     5.883E-12 5.554E-05 1.254E-13
 ETOT 19  -166.63278719976     3.297E-12 3.382E-05 1.975E-14
 ETOT 20  -166.63278719977    -5.372E-12 4.661E-05 2.220E-15
 ETOT 21  -166.63278719976     6.168E-12 2.042E-05 2.346E-16
 ETOT 22  -166.63278719977    -4.320E-12 3.581E-05 5.490E-17
 ETOT 23  -166.63278719977    -3.951E-12 1.308E-05 1.857E-17
 ETOT 24  -166.63278719977     5.457E-12 2.571E-05 2.410E-18
 ETOT 25  -166.63278719977     7.958E-13 9.155E-06 5.267E-19
 ETOT 26  -166.63278719977    -1.421E-12 1.759E-05 1.476E-19
 ETOT 27  -166.63278719976     5.741E-12 6.151E-06 1.064E-20
 ETOT 28  -166.63278719976    -1.791E-12 1.165E-05 3.042E-20
 ETOT 29  -166.63278719976    -1.137E-13 4.022E-06 1.697E-20
 ETOT 30  -166.63278719976     1.080E-12 7.545E-06 1.636E-20
 ETOT 31  -166.63278719976     6.537E-13 3.669E-06 4.724E-20
 ETOT 32  -166.63278719976    -7.390E-13 4.822E-06 7.640E-21
 ETOT 33  -166.63278719976     7.390E-13 3.839E-06 2.104E-22
 ETOT 34  -166.63278719976    -5.684E-13 3.893E-06 2.467E-21
 ETOT 35  -166.63278719976    -2.842E-13 3.991E-06 3.243E-21
 ETOT 36  -166.63278719976     5.684E-14 4.032E-06 6.494E-23
 ETOT 37  -166.63278719976    -2.274E-13 4.120E-06 1.456E-20
 ETOT 38  -166.63278719976     1.705E-13 4.147E-06 4.426E-20
 ETOT 39  -166.63278719976    -1.137E-13 4.221E-06 2.723E-22
 ETOT 40  -166.63278719976     5.684E-14 4.232E-06 1.923E-21
 ETOT 41  -166.63278719976    -1.990E-13 4.293E-06 3.053E-20
 ETOT 42  -166.63278719976     5.684E-14 4.286E-06 2.529E-21
 ETOT 43  -166.63278719976     5.684E-14 4.331E-06 2.223E-19
 ETOT 44  -166.63278719976    -2.842E-14 4.307E-06 3.297E-20
 ETOT 45  -166.63278719976     2.842E-14 4.336E-06 6.780E-20
 ETOT 46  -166.63278719976     2.558E-13 4.293E-06 2.688E-21
 ETOT 47  -166.63278719976    -1.137E-13 4.306E-06 5.023E-20
 ETOT 48  -166.63278719976    -2.842E-13 4.246E-06 1.317E-21
 ETOT 49  -166.63278719976     4.547E-13 4.243E-06 2.953E-19
 ETOT 50  -166.63278719976     2.842E-14 4.166E-06 2.514E-21
 ETOT 51  -166.63278719976     2.757E-12 4.148E-06 2.519E-19
 ETOT 52  -166.63278719976    -2.274E-12 4.056E-06 6.285E-21
 ETOT 53  -166.63278719976    -1.137E-13 4.024E-06 3.099E-20
 ETOT 54  -166.63278719976     3.126E-13 3.919E-06 9.097E-20
 ETOT 55  -166.63278719976    -3.126E-13 3.875E-06 1.160E-20
 ETOT 56  -166.63278719976    -5.116E-13 3.759E-06 2.303E-20
 ETOT 57  -166.63278719976     7.958E-13 3.705E-06 5.808E-21
 ETOT 58  -166.63278719976    -3.126E-13 3.580E-06 8.902E-21
 ETOT 59  -166.63278719976    -4.832E-13 3.518E-06 2.842E-20
 ETOT 60  -166.63278719976    -3.411E-13 3.387E-06 7.106E-20
 ETOT 61  -166.63278719976     2.842E-14 3.318E-06 9.242E-22
 ETOT 62  -166.63278719976     8.527E-14 3.184E-06 1.418E-20
 ETOT 63  -166.63278719976    -2.274E-13 3.111E-06 3.759E-21
 ETOT 64  -166.63278719976     0.000E+00 2.975E-06 3.529E-20
 ETOT 65  -166.63278719976    -5.684E-14 2.900E-06 1.160E-19
 ETOT 66  -166.63278719976     8.527E-14 2.765E-06 1.044E-21
 ETOT 67  -166.63278719976    -1.421E-13 2.688E-06 1.699E-20
 ETOT 68  -166.63278719976     3.126E-13 2.556E-06 1.187E-21
 ETOT 69  -166.63278719976    -2.842E-14 2.480E-06 5.975E-22
 ETOT 70  -166.63278719976     2.842E-14 2.351E-06 9.034E-20
 ETOT 71  -166.63278719976    -1.421E-13 2.277E-06 1.546E-21
 ETOT 72  -166.63278719976     1.137E-13 2.153E-06 1.052E-20
 ETOT 73  -166.63278719976    -1.137E-13 2.082E-06 8.558E-20
 ETOT 74  -166.63278719976     0.000E+00 1.964E-06 2.934E-20
 ETOT 75  -166.63278719976     0.000E+00 1.896E-06 3.225E-20
 ETOT 76  -166.63278719976    -1.705E-13 1.785E-06 2.302E-20
 ETOT 77  -166.63278719976     1.705E-13 1.721E-06 7.362E-21
 ETOT 78  -166.63278719976    -1.137E-13 1.617E-06 5.727E-20
 ETOT 79  -166.63278719976     2.558E-13 1.556E-06 2.987E-20
 ETOT 80  -166.63278719976    -2.842E-14 1.460E-06 1.455E-20
 ETOT 81  -166.63278719976     2.842E-14 1.404E-06 1.559E-22
 ETOT 82  -166.63278719976    -1.421E-13 1.315E-06 3.188E-20
 ETOT 83  -166.63278719976    -5.684E-14 1.263E-06 5.465E-22
 ETOT 84  -166.63278719976     0.000E+00 1.182E-06 7.642E-20
 ETOT 85  -166.63278719976     1.421E-13 1.134E-06 4.682E-21
 ETOT 86  -166.63278719976    -1.705E-13 1.059E-06 6.257E-20
 ETOT 87  -166.63278719976     8.527E-14 1.016E-06 5.401E-20
 ETOT 88  -166.63278719976     2.842E-14 9.477E-07 4.008E-20
 ETOT 89  -166.63278719976    -1.137E-13 9.079E-07 3.540E-22
 ETOT 90  -166.63278719976     8.527E-14 8.464E-07 7.032E-22
 ETOT 91  -166.63278719976     2.842E-14 8.103E-07 1.253E-21
 ETOT 92  -166.63278719976    -5.684E-14 7.548E-07 2.009E-20
 ETOT 93  -166.63278719976    -8.527E-14 7.222E-07 2.042E-20
 ETOT 94  -166.63278719976     2.842E-14 6.721E-07 1.382E-21
 ETOT 95  -166.63278719976     1.137E-13 6.427E-07 2.376E-22
 ETOT 96  -166.63278719976     8.527E-14 5.978E-07 2.147E-20
 ETOT 97  -166.63278719976    -1.137E-13 5.714E-07 5.717E-21
 ETOT 98  -166.63278719976     2.842E-14 5.310E-07 1.895E-20
 ETOT 99  -166.63278719976    -8.527E-14 5.074E-07 8.843E-22
 ETOT  100  -166.63278719976    -2.842E-14 4.713E-07 5.262E-20
 ETOT  101  -166.63278719976     8.527E-14 4.502E-07 7.980E-20
 ETOT  102  -166.63278719976    -1.137E-13 4.180E-07 8.578E-21
 ETOT  103  -166.63278719976    -5.684E-14 3.991E-07 4.397E-21
 ETOT  104  -166.63278719976     5.684E-14 3.704E-07 2.744E-21
 ETOT  105  -166.63278719976     0.000E+00 3.535E-07 2.802E-21
 ETOT  106  -166.63278719976     0.000E+00 3.279E-07 5.491E-21
 ETOT  107  -166.63278719976     5.684E-14 3.130E-07 3.635E-21
 ETOT  108  -166.63278719976     8.527E-14 2.902E-07 7.076E-22
 ETOT  109  -166.63278719976    -1.137E-13 2.769E-07 2.070E-20
 ETOT  110  -166.63278719976     1.137E-13 2.567E-07 1.983E-21
 ETOT  111  -166.63278719976    -5.684E-14 2.449E-07 1.910E-22
 ETOT  112  -166.63278719976    -8.527E-14 2.270E-07 5.935E-21
 ETOT  113  -166.63278719976     5.684E-14 2.165E-07 1.455E-21
 ETOT  114  -166.63278719976    -8.527E-14 2.006E-07 6.610E-21
 ETOT  115  -166.63278719976     2.842E-14 1.913E-07 1.213E-20
 ETOT  116  -166.63278719976     5.684E-14 1.772E-07 4.005E-20
 ETOT  117  -166.63278719976    -2.842E-14 1.689E-07 1.571E-20
 ETOT  118  -166.63278719976     1.990E-13 1.565E-07 2.760E-21
 ETOT  119  -166.63278719976    -1.421E-13 1.492E-07 4.561E-22
 ETOT  120  -166.63278719976    -5.684E-14 1.381E-07 5.931E-21
 ETOT  121  -166.63278719976     8.527E-14 1.317E-07 3.309E-21
 ETOT  122  -166.63278719976    -2.842E-14 1.219E-07 8.476E-21
 ETOT  123  -166.63278719976    -5.684E-14 1.162E-07 4.563E-21
 ETOT  124  -166.63278719976     2.842E-14 1.076E-07 1.351E-20
 ETOT  125  -166.63278719976     0.000E+00 1.026E-07 3.750E-20
 ETOT  126  -166.63278719976     0.000E+00 9.494E-08 3.615E-22
 ETOT  127  -166.63278719976    -5.684E-14 9.047E-08 1.374E-20
 ETOT  128  -166.63278719976     8.527E-14 8.375E-08 8.874E-22
 ETOT  129  -166.63278719976     2.842E-14 7.980E-08 5.873E-20
 ETOT  130  -166.63278719976    -5.684E-14 7.387E-08 6.246E-22
 ETOT  131  -166.63278719976     0.000E+00 7.038E-08 1.366E-20
 ETOT  132  -166.63278719976     1.137E-13 6.515E-08 1.099E-21
 ETOT  133  -166.63278719976    -8.527E-14 6.207E-08 2.488E-20
 ETOT  134  -166.63278719976    -5.684E-14 5.744E-08 9.318E-21
 ETOT  135  -166.63278719976     8.527E-14 5.473E-08 4.844E-21
 ETOT  136  -166.63278719976     0.000E+00 5.065E-08 4.058E-22
 ETOT  137  -166.63278719976     0.000E+00 4.825E-08 3.487E-23
 ETOT  138  -166.63278719976     1.137E-13 4.465E-08 1.664E-20
 ETOT  139  -166.63278719976    -1.137E-13 4.254E-08 8.309E-21
 ETOT  140  -166.63278719976     2.842E-14 3.936E-08 1.149E-19
 ETOT  141  -166.63278719976    -8.527E-14 3.750E-08 1.528E-20
 ETOT  142  -166.63278719976     0.000E+00 3.470E-08 2.750E-20
 ETOT  143  -166.63278719976     8.527E-14 3.305E-08 3.580E-21
 ETOT  144  -166.63278719976    -8.527E-14 3.059E-08 5.011E-21
 ETOT  145  -166.63278719976     2.842E-14 2.913E-08 5.842E-21
 ETOT  146  -166.63278719976     8.527E-14 2.696E-08 9.983E-22
 ETOT  147  -166.63278719976    -5.684E-14 2.568E-08 2.180E-20
 ETOT  148  -166.63278719976    -2.842E-14 2.376E-08 5.692E-20
 ETOT  149  -166.63278719976     2.842E-14 2.263E-08 4.190E-23
 ETOT  150  -166.63278719976     0.000E+00 2.094E-08 9.343E-21
 ETOT  151  -166.63278719976    -1.137E-13 1.994E-08 1.981E-21
 ETOT  152  -166.63278719976     8.527E-14 1.845E-08 2.543E-21
 ETOT  153  -166.63278719976     2.842E-14 1.757E-08 9.495E-24
 ETOT  154  -166.63278719976     5.684E-14 1.626E-08 7.667E-20
 ETOT  155  -166.63278719976    -1.421E-13 1.549E-08 1.066E-20
 ETOT  156  -166.63278719976     5.684E-14 1.433E-08 2.011E-21
 ETOT  157  -166.63278719976     5.684E-14 1.365E-08 1.468E-21
 ETOT  158  -166.63278719976    -2.842E-14 1.263E-08 4.229E-22
 ETOT  159  -166.63278719976    -5.684E-14 1.203E-08 2.827E-20
 ETOT  160  -166.63278719976     1.137E-13 1.113E-08 4.596E-22
 ETOT  161  -166.63278719976     0.000E+00 1.060E-08 2.216E-21
 ETOT  162  -166.63278719976    -1.137E-13 9.805E-09 7.023E-20
 ETOT  163  -166.63278719976    -8.527E-14 9.337E-09 5.271E-20
 ETOT  164  -166.63278719976     1.137E-13 8.639E-09 2.680E-20
 ETOT  165  -166.63278719976     2.842E-14 8.227E-09 6.340E-21
 ETOT  166  -166.63278719976     5.684E-14 7.612E-09 4.715E-20
 ETOT  167  -166.63278719976    -2.842E-14 7.249E-09 4.121E-21
 ETOT  168  -166.63278719976    -5.684E-14 6.707E-09 2.989E-22
 ETOT  169  -166.63278719976    -2.842E-14 6.387E-09 5.502E-21
 ETOT  170  -166.63278719976     2.842E-14 5.910E-09 2.372E-20
 ETOT  171  -166.63278719976    -8.527E-14 5.627E-09 4.418E-20
 ETOT  172  -166.63278719976     2.842E-14 5.207E-09 4.682E-21
 ETOT  173  -166.63278719976     8.527E-14 4.958E-09 2.504E-22
 ETOT  174  -166.63278719976    -8.527E-14 4.588E-09 3.170E-21
 ETOT  175  -166.63278719976     5.684E-14 4.369E-09 1.270E-20
 ETOT  176  -166.63278719976     1.137E-13 4.042E-09 6.813E-20
 ETOT  177  -166.63278719976    -8.527E-14 3.849E-09 7.990E-21
 ETOT  178  -166.63278719976     2.842E-14 3.562E-09 5.794E-21
 ETOT  179  -166.63278719976     0.000E+00 3.391E-09 1.935E-21
 ETOT  180  -166.63278719976     1.421E-13 3.138E-09 5.131E-22
 ETOT  181  -166.63278719976    -8.527E-14 2.988E-09 3.171E-20
 ETOT  182  -166.63278719976     5.684E-14 2.765E-09 1.828E-20
 ETOT  183  -166.63278719976     8.527E-14 2.632E-09 9.168E-21
 ETOT  184  -166.63278719976    -8.527E-14 2.436E-09 4.904E-20
 ETOT  185  -166.63278719976    -2.842E-14 2.319E-09 1.617E-20
 ETOT  186  -166.63278719976    -5.684E-14 2.146E-09 2.469E-20
 ETOT  187  -166.63278719976     0.000E+00 2.043E-09 3.620E-21
 ETOT  188  -166.63278719976     1.137E-13 1.891E-09 9.280E-22
 ETOT  189  -166.63278719976     0.000E+00 1.800E-09 2.960E-22
 ETOT  190  -166.63278719976     2.842E-14 1.666E-09 1.168E-20
 ETOT  191  -166.63278719976    -5.684E-14 1.586E-09 5.716E-21
 ETOT  192  -166.63278719976     1.705E-13 1.468E-09 4.193E-23
 ETOT  193  -166.63278719976    -8.527E-14 1.397E-09 1.638E-20
 ETOT  194  -166.63278719976    -2.842E-14 1.293E-09 6.538E-20
 ETOT  195  -166.63278719976    -2.842E-14 1.231E-09 2.357E-20
 ETOT  196  -166.63278719976     0.000E+00 1.139E-09 1.472E-20
 ETOT  197  -166.63278719976    -5.684E-14 1.085E-09 6.677E-21
 ETOT  198  -166.63278719976     1.421E-13 1.004E-09 2.746E-21
 ETOT  199  -166.63278719976    -2.842E-14 9.557E-10 4.650E-21
 ETOT  200  -166.63278719976     0.000E+00 8.844E-10 1.653E-20

 Cartesian components of stress tensor (hartree/bohr^3)
  sigma(1 1)= -1.36413262E-04  sigma(3 2)= -1.48253528E-14
  sigma(2 2)= -1.36413262E-04  sigma(3 1)= -1.48242939E-14
  sigma(3 3)= -1.36285253E-04  sigma(2 1)=  2.96315473E-14


 scprqt:  WARNING -
  nstep=  200 was not enough SCF cycles to converge;
  maximum residual=  8.844E-10 exceeds tolwfr=  1.000E-18


--- !ResultsGS
iteration_state: {dtset: 1, }
comment   : Summary of ground state results
lattice_vectors:
- [  0.0000000,  10.0532673,  10.0466358, ]
- [ 10.0532673,   0.0000000,  10.0466358, ]
- [ 10.0532673,  10.0532673,   0.0000000, ]
lattice_lengths: [  14.21278,   14.21278,   14.21747, ]
lattice_angles: [ 59.989,  59.989,  60.022, ] # degrees, (23, 13, 12)
lattice_volume:   2.0307905E+03
convergence: {deltae:  0.000E+00, res2:  1.653E-20, residm:  8.844E-10, diffor: null, }
etotal    :  -1.66632787E+02
entropy   :   0.00000000E+00
fermie    :  -2.49553349E-02
cartesian_stress_tensor: # hartree/bohr^3
- [ -1.36413262E-04,   2.96315473E-14,  -1.48242939E-14, ]
- [  2.96315473E-14,  -1.36413262E-04,  -1.48253528E-14, ]
- [ -1.48242939E-14,  -1.48253528E-14,  -1.36285253E-04, ]
pressure_GPa:   4.0122E+00
xred      :
- [  2.5000E-01,   2.5000E-01,   2.5000E-01, Cs]
- [  7.5000E-01,   7.5000E-01,   7.5000E-01, Cs]
- [  2.6633E-01,   2.6633E-01,   7.3367E-01,  I]
- [  7.3367E-01,   7.3367E-01,   2.6633E-01,  I]
- [  2.4516E-01,   7.5484E-01,   7.5484E-01, Br]
- [  7.5484E-01,   2.4516E-01,   7.5484E-01, Br]
- [  2.4516E-01,   7.5484E-01,   2.4516E-01, Br]
- [  7.5484E-01,   2.4516E-01,   2.4516E-01, Br]
- [ -1.6514E-21,   1.5814E-21,  -5.1258E-21, Zr]
cartesian_forces: # hartree/bohr
- [  9.41147543E-23,  -8.68498850E-23,   9.41147091E-23, ]
- [  9.41148196E-23,  -8.68499704E-23,   9.41147141E-23, ]
- [ -1.12651111E-22,   1.19915971E-22,  -2.48325002E-06, ]
- [  3.00880655E-22,  -2.93615796E-22,   2.48325002E-06, ]
- [  6.43582214E-06,   1.36812547E-17,  -1.36901481E-17, ]
- [  1.36814357E-17,   6.43582214E-06,  -1.36901481E-17, ]
- [ -1.36812474E-17,  -6.43582214E-06,   1.36903363E-17, ]
- [ -6.43582214E-06,  -1.36805814E-17,   1.36894893E-17, ]
- [  9.41147719E-23,  -8.68499126E-23,   9.41147719E-23, ]
force_length_stats: {min:   1.58927870E-22, max:   6.43582214E-06, mean:   3.41219873E-06, }
...

 Integrated electronic density in atomic spheres:
 ------------------------------------------------
 Atom  Sphere_radius  Integrated_density
    1        2.20660          5.38768084
    2        2.20660          5.38768084
    3        2.30022          4.03778465
    4        2.30022          4.03778465
    5        2.20000          4.94183747
    6        2.20000          4.94183747
    7        2.20000          4.94183747
    8        2.20000          4.94183747
    9        2.21000          8.85865452

 PAW TEST:
 ==== Compensation charge inside spheres ============
 The following values must be close to each other ...
 Compensation charge over spherical meshes =     -4.999629091869719
 Compensation charge over fine fft grid    =     -4.999629716256942

 ==== Results concerning PAW augmentation regions ====

 Total pseudopotential strength Dij (hartree):
 Atom #  1
   0.42040  -0.13932   0.00000   0.00000   0.00000   0.00000   0.00000   0.00000   0.00000   0.00000   0.00000   0.00000 ...
  -0.13932   0.04184   0.00000   0.00000   0.00000   0.00000   0.00000   0.00000   0.00000   0.00000  -0.00000   0.00000 ...
   0.00000   0.00000  -0.09112   0.00000   0.00000  -0.16805   0.00000   0.00000   0.00000   0.00000   0.00000  -0.00000 ...
   0.00000   0.00000   0.00000  -0.09112   0.00000   0.00000  -0.16805   0.00000  -0.00000   0.00000   0.00000   0.00000 ...
   0.00000   0.00000   0.00000   0.00000  -0.09112   0.00000   0.00000  -0.16805   0.00000  -0.00000   0.00000   0.00000 ...
   0.00000   0.00000  -0.16805   0.00000   0.00000   0.39804   0.00000   0.00000   0.00000   0.00000   0.00000   0.00000 ...
   0.00000   0.00000   0.00000  -0.16805   0.00000   0.00000   0.39805   0.00000   0.00000   0.00000   0.00000   0.00000 ...
   0.00000   0.00000   0.00000   0.00000  -0.16805   0.00000   0.00000   0.39804   0.00000   0.00000   0.00000   0.00000 ...
   0.00000   0.00000   0.00000  -0.00000   0.00000   0.00000   0.00000   0.00000   0.00557   0.00000   0.00000   0.00000 ...
   0.00000   0.00000   0.00000   0.00000  -0.00000   0.00000   0.00000   0.00000   0.00000   0.00557   0.00000   0.00000 ...
   0.00000  -0.00000   0.00000   0.00000   0.00000   0.00000   0.00000   0.00000   0.00000   0.00000   0.00557   0.00000 ...
   0.00000   0.00000  -0.00000   0.00000   0.00000   0.00000   0.00000   0.00000   0.00000   0.00000   0.00000   0.00557 ...
   ...  only 12  components have been written...
 Atom #  9
   3.05678  -0.88992   0.00000   0.00000   0.00000   0.00000   0.00000   0.00000   0.00000   0.00000  -0.00002   0.00000 ...
  -0.88992   0.26584   0.00000   0.00000   0.00000   0.00000   0.00000   0.00000   0.00000   0.00000  -0.00000   0.00000 ...
   0.00000   0.00000   0.27541   0.00000   0.00000  -0.05625   0.00000   0.00000   0.00000   0.00000   0.00000   0.00000 ...
   0.00000   0.00000   0.00000   0.27533   0.00000   0.00000  -0.05624   0.00000   0.00000   0.00000   0.00000   0.00000 ...
   0.00000   0.00000   0.00000   0.00000   0.27541   0.00000   0.00000  -0.05625   0.00000   0.00000   0.00000   0.00000 ...
   0.00000   0.00000  -0.05625   0.00000   0.00000   0.01534   0.00000   0.00000   0.00000   0.00000   0.00000   0.00000 ...
   0.00000   0.00000   0.00000  -0.05624   0.00000   0.00000   0.01534   0.00000   0.00000   0.00000   0.00000   0.00000 ...
   0.00000   0.00000   0.00000   0.00000  -0.05625   0.00000   0.00000   0.01534   0.00000   0.00000   0.00000   0.00000 ...
   0.00000   0.00000   0.00000   0.00000   0.00000   0.00000   0.00000   0.00000  -0.00696   0.00000   0.00000   0.00000 ...
   0.00000   0.00000   0.00000   0.00000   0.00000   0.00000   0.00000   0.00000   0.00000  -0.00695   0.00000   0.00000 ...
  -0.00002  -0.00000   0.00000   0.00000   0.00000   0.00000   0.00000   0.00000   0.00000   0.00000  -0.00688   0.00000 ...
   0.00000   0.00000   0.00000   0.00000   0.00000   0.00000   0.00000   0.00000   0.00000   0.00000   0.00000  -0.00695 ...
   ...  only 12  components have been written...


 Augmentation waves occupancies Rhoij:
 Atom #  1
   1.99911  -0.01146   0.00000   0.00000   0.00000   0.00000   0.00000   0.00000   0.00000   0.00000   0.00214   0.00000 ...
  -0.01146   0.21003   0.00000   0.00000   0.00000   0.00000   0.00000   0.00000   0.00000   0.00000  -0.02938   0.00000 ...
   0.00000   0.00000   2.00942   0.00000   0.00000  -0.00498   0.00000   0.00000   0.00000   0.00000   0.00000  -0.00243 ...
   0.00000   0.00000   0.00000   2.00668   0.00000   0.00000  -0.00450   0.00000  -0.00221   0.00000   0.00000   0.00000 ...
   0.00000   0.00000   0.00000   0.00000   2.00942   0.00000   0.00000  -0.00498   0.00000  -0.00243   0.00000   0.00000 ...
   0.00000   0.00000  -0.00498   0.00000   0.00000   0.00017   0.00000   0.00000   0.00000   0.00000   0.00000   0.00009 ...
   0.00000   0.00000   0.00000  -0.00450   0.00000   0.00000   0.00013   0.00000   0.00007   0.00000   0.00000   0.00000 ...
   0.00000   0.00000   0.00000   0.00000  -0.00498   0.00000   0.00000   0.00017   0.00000   0.00009   0.00000   0.00000 ...
   0.00000   0.00000   0.00000  -0.00221   0.00000   0.00000   0.00007   0.00000   0.10811   0.00000   0.00000   0.00000 ...
   0.00000   0.00000   0.00000   0.00000  -0.00243   0.00000   0.00000   0.00009   0.00000   0.06182   0.00000   0.00000 ...
   0.00214  -0.02938   0.00000   0.00000   0.00000   0.00000   0.00000   0.00000   0.00000   0.00000   0.05880   0.00000 ...
   0.00000   0.00000  -0.00243   0.00000   0.00000   0.00009   0.00000   0.00000   0.00000   0.00000   0.00000   0.06182 ...
   ...  only 12  components have been written...
 Atom #  9
   1.99380  -0.06236   0.00000   0.00000   0.00000   0.00000   0.00000   0.00000   0.00000   0.00000   0.00419   0.00000 ...
  -0.06236   1.07946   0.00000   0.00000   0.00000   0.00000   0.00000   0.00000   0.00000   0.00000  -0.02513   0.00000 ...
   0.00000   0.00000   1.96919   0.00000   0.00000  -0.18803   0.00000   0.00000   0.00000   0.00000   0.00000   0.00000 ...
   0.00000   0.00000   0.00000   1.97031   0.00000   0.00000  -0.17798   0.00000   0.00000   0.00000   0.00000   0.00000 ...
   0.00000   0.00000   0.00000   0.00000   1.96919   0.00000   0.00000  -0.18803   0.00000   0.00000   0.00000   0.00000 ...
   0.00000   0.00000  -0.18803   0.00000   0.00000   1.73884   0.00000   0.00000   0.00000   0.00000   0.00000   0.00000 ...
   0.00000   0.00000   0.00000  -0.17798   0.00000   0.00000   1.58344   0.00000   0.00000   0.00000   0.00000   0.00000 ...
   0.00000   0.00000   0.00000   0.00000  -0.18803   0.00000   0.00000   1.73884   0.00000   0.00000   0.00000   0.00000 ...
   0.00000   0.00000   0.00000   0.00000   0.00000   0.00000   0.00000   0.00000   0.51548   0.00000   0.00000   0.00000 ...
   0.00000   0.00000   0.00000   0.00000   0.00000   0.00000   0.00000   0.00000   0.00000   0.51399   0.00000   0.00000 ...
   0.00419  -0.02513   0.00000   0.00000   0.00000   0.00000   0.00000   0.00000   0.00000   0.00000   1.43377   0.00000 ...
   0.00000   0.00000   0.00000   0.00000   0.00000   0.00000   0.00000   0.00000   0.00000   0.00000   0.00000   0.51399 ...
   ...  only 12  components have been written...


================================================================================

 ----iterations are completed or convergence reached----

 Mean square residual over all n,k,spin=   34.020E-14; max=  88.438E-11
 reduced coordinates (array xred) for    9 atoms
       0.250000000000      0.250000000000      0.250000000000
       0.750000000000      0.750000000000      0.750000000000
       0.266332996700      0.266332996700      0.733667003300
       0.733667003300      0.733667003300      0.266332996700
       0.245155961650      0.754844038350      0.754844038350
       0.754844038350      0.245155961650      0.754844038350
       0.245155961650      0.754844038350      0.245155961650
       0.754844038350      0.245155961650      0.245155961650
      -0.000000000000      0.000000000000     -0.000000000000
 rms dE/dt=  3.6504E-05; max dE/dt=  6.4701E-05; dE/dt below (all hartree)
    1       0.000000000000      0.000000000000     -0.000000000000
    2       0.000000000000      0.000000000000      0.000000000000
    3       0.000024948308      0.000024948308      0.000000000000
    4      -0.000024948308     -0.000024948308      0.000000000000
    5       0.000000000000     -0.000064701040     -0.000064701040
    6      -0.000064701040      0.000000000000     -0.000064701040
    7       0.000064701040     -0.000000000000      0.000064701040
    8      -0.000000000000      0.000064701040      0.000064701040
    9       0.000000000000      0.000000000000      0.000000000000

 cartesian coordinates (angstrom) at end:
    1      2.65997996393770     2.65997996393770     2.65822533672379
    2      7.97993989181310     7.97993989181311     7.97467601017136
    3      5.31995992787012     5.31995992787012     2.83189247933405
    4      5.31995992788069     5.31995992788069     7.80100886756109
    5      8.03148007163529     5.31995992786964     5.31645067344757
    6      5.31995992786964     8.03148007163529     5.31645067344757
    7      5.31995992788117     2.60843978411552     5.31645067344757
    8      2.60843978411552     5.31995992788117     5.31645067344757
    9     -0.00000000000000    -0.00000000000000    -0.00000000000000

 cartesian forces (hartree/bohr) at end:
    1      0.00000000000000    -0.00000000000000     0.00000000000000
    2      0.00000000000000    -0.00000000000000     0.00000000000000
    3     -0.00000000000000     0.00000000000000    -0.00000248325002
    4      0.00000000000000    -0.00000000000000     0.00000248325002
    5      0.00000643582214     0.00000000000000    -0.00000000000000
    6      0.00000000000000     0.00000643582214    -0.00000000000000
    7     -0.00000000000000    -0.00000643582214     0.00000000000000
    8     -0.00000643582214    -0.00000000000000     0.00000000000000
    9      0.00000000000000    -0.00000000000000     0.00000000000000
 frms,max,avg= 2.5676931E-06 6.4358221E-06   0.000E+00  0.000E+00  0.000E+00 h/b

 cartesian forces (eV/Angstrom) at end:
    1      0.00000000000000    -0.00000000000000     0.00000000000000
    2      0.00000000000000    -0.00000000000000     0.00000000000000
    3     -0.00000000000000     0.00000000000000    -0.00012769383954
    4      0.00000000000000    -0.00000000000000     0.00012769383954
    5      0.00033094325266     0.00000000000000    -0.00000000000000
    6      0.00000000000000     0.00033094325266    -0.00000000000000
    7     -0.00000000000000    -0.00033094325266     0.00000000000000
    8     -0.00033094325266    -0.00000000000000     0.00000000000000
    9      0.00000000000000    -0.00000000000000     0.00000000000000
 frms,max,avg= 1.3203608E-04 3.3094325E-04   0.000E+00  0.000E+00  0.000E+00 e/A
 length scales= 14.212778538000 14.212778538000 14.217466964000 bohr
              =  7.521078473047  7.521078473047  7.523559481230 angstroms
 prteigrs : about to open file Cs2TiI6o_DS1_EIG
 Fermi (or HOMO) energy (hartree) =  -0.02496   Average Vxc (hartree)=  -0.32559
[...]
                       2.000000  2.000000  2.000000  2.000000  2.000000  2.000000
                       2.000000  2.000000  2.000000  2.000000  2.000000  2.000000
                       2.000000  2.000000  2.000000  2.000000  2.000000  2.000000
                       0.000000  0.000000  0.000000  0.000000  0.000000  0.000000
                       0.000000  0.000000  0.000000  0.000000  0.000000  0.000000
                       0.000000  0.000000  0.000000  0.000000  0.000000  0.000000
                       0.000000  0.000000  0.000000  0.000000  0.000000  0.000000
                       0.000000  0.000000  0.000000  0.000000  0.000000  0.000000
                       0.000000  0.000000  0.000000  0.000000  0.000000  0.000000
                       0.000000  0.000000  0.000000  0.000000  0.000000  0.000000
                       0.000000  0.000000  0.000000  0.000000  0.000000  0.000000
                       0.000000  0.000000  0.000000  0.000000  0.000000  0.000000
                       0.000000  0.000000  0.000000  0.000000  0.000000  0.000000
                       0.000000  0.000000  0.000000  0.000000
              occ5     2.000000  2.000000  2.000000  2.000000  2.000000  2.000000
                       2.000000  2.000000  2.000000  2.000000  2.000000  2.000000
                       2.000000  2.000000  2.000000  2.000000  2.000000  2.000000
                       2.000000  2.000000  2.000000  2.000000  2.000000  2.000000
                       2.000000  2.000000  2.000000  2.000000  2.000000  2.000000
                       2.000000  2.000000  2.000000  2.000000  2.000000  2.000000
                       0.000000  0.000000  0.000000  0.000000  0.000000  0.000000
                       0.000000  0.000000  0.000000  0.000000  0.000000  0.000000
                       0.000000  0.000000  0.000000  0.000000  0.000000  0.000000
                       0.000000  0.000000  0.000000  0.000000  0.000000  0.000000
                       0.000000  0.000000  0.000000  0.000000  0.000000  0.000000
                       0.000000  0.000000  0.000000  0.000000  0.000000  0.000000
                       0.000000  0.000000  0.000000  0.000000  0.000000  0.000000
                       0.000000  0.000000  0.000000  0.000000  0.000000  0.000000
                       0.000000  0.000000  0.000000  0.000000  0.000000  0.000000
                       0.000000  0.000000  0.000000  0.000000  0.000000  0.000000
                       0.000000  0.000000  0.000000  0.000000
              occ6     2.000000  2.000000  2.000000  2.000000  2.000000  2.000000
                       2.000000  2.000000  2.000000  2.000000  2.000000  2.000000
                       2.000000  2.000000  2.000000  2.000000  2.000000  2.000000
                       2.000000  2.000000  2.000000  2.000000  2.000000  2.000000
                       2.000000  2.000000  2.000000  2.000000  2.000000  2.000000
                       2.000000  2.000000  2.000000  2.000000  2.000000  2.000000
                       0.000000  0.000000  0.000000  0.000000  0.000000  0.000000
                       0.000000  0.000000  0.000000  0.000000  0.000000  0.000000
                       0.000000  0.000000  0.000000  0.000000  0.000000  0.000000
                       0.000000  0.000000  0.000000  0.000000  0.000000  0.000000
                       0.000000  0.000000  0.000000  0.000000  0.000000  0.000000
                       0.000000  0.000000  0.000000  0.000000  0.000000  0.000000
                       0.000000  0.000000  0.000000  0.000000  0.000000  0.000000
                       0.000000  0.000000  0.000000  0.000000  0.000000  0.000000
                       0.000000  0.000000  0.000000  0.000000  0.000000  0.000000
                       0.000000  0.000000  0.000000  0.000000  0.000000  0.000000
                       0.000000  0.000000  0.000000  0.000000
        optdriver1          0
        optdriver2          0
        optdriver3          0
        optdriver4          1
        optdriver5          1
        optdriver6          1
        pawecutdg      4.00000000E+01 Hartree
            prtwf1          1
            prtwf2          1
            prtwf3          1
            prtwf4          3
            prtwf5          3
            prtwf6          3
            rfdir1          0       0       0
            rfdir2          0       0       0
            rfdir3          0       0       0
            rfdir4          1       0       0
            rfdir5          0       1       0
            rfdir6          0       0       1
           rfelfd1          0
           rfelfd2          0
           rfelfd3          0
           rfelfd4          2
           rfelfd5          2
           rfelfd6          2
            rprim      0.0000000000E+00  7.0734003733E-01  7.0687344807E-01
                       7.0734003733E-01  0.0000000000E+00  7.0687344807E-01
                       7.0710678119E-01  7.0710678119E-01  0.0000000000E+00
           shiftk      5.00000000E-01  5.00000000E-01  5.00000000E-01
          spgroup         139
           strten1    -1.3641326237E-04 -1.3641326237E-04 -1.3628525324E-04
                      -1.4825352779E-14 -1.4824293900E-14  2.9631547261E-14
           symrel      1  0  0   0  1  0   0  0  1      -1  0  0   0 -1  0   0  0 -1
                      -1  0  1   0 -1  1   0  0  1       1  0 -1   0  1 -1   0  0 -1
                       0  1 -1   1  0 -1   0  0 -1       0 -1  1  -1  0  1   0  0  1
                       0 -1  0  -1  0  0   0  0 -1       0  1  0   1  0  0   0  0  1
                       1  0  0   1  0 -1   1 -1  0      -1  0  0  -1  0  1  -1  1  0
                       0 -1  0   0 -1  1   1 -1  0       0  1  0   0  1 -1  -1  1  0
                       0  1 -1   0  1  0  -1  1  0       0 -1  1   0 -1  0   1 -1  0
                      -1  0  1  -1  0  0  -1  1  0       1  0 -1   1  0  0   1 -1  0
           tolwfr      1.00000000E-18
            typat      1  1  2  2  4  4  4  4  3
           useylm           1
              wtk1       0.00926    0.00926    0.00926    0.01852    0.00926    0.00926
                         0.01852    0.00926    0.01852    0.01852    0.00926    0.00926
                         0.01852    0.00926    0.01852    0.01852    0.00926    0.01852
                         0.01852    0.01852    0.00926    0.00926    0.01852    0.00926
                         0.01852    0.01852    0.00926    0.01852    0.01852    0.01852
                         0.00926    0.01852    0.01852    0.01852    0.01852    0.00926
                         0.01852    0.01852    0.01852    0.01852    0.01852    0.00926
                         0.01852    0.01852    0.01852    0.01852    0.01852    0.01852
                         0.01852    0.01852
              wtk2       0.00926    0.00926    0.00926    0.01852    0.00926    0.00926
                         0.01852    0.00926    0.01852    0.01852    0.00926    0.00926
                         0.01852    0.00926    0.01852    0.01852    0.00926    0.01852
                         0.01852    0.01852    0.00926    0.00926    0.01852    0.00926
                         0.01852    0.01852    0.00926    0.01852    0.01852    0.01852
                         0.00926    0.01852    0.01852    0.01852    0.01852    0.00926
                         0.01852    0.01852    0.01852    0.01852    0.01852    0.00926
                         0.01852    0.01852    0.01852    0.01852    0.01852    0.01852
                         0.01852    0.01852
              wtk3       0.00231    0.00231    0.00231    0.00231    0.00231    0.00231
                         0.00231    0.00231    0.00231    0.00231    0.00231    0.00231
                         0.00231    0.00231    0.00231    0.00231    0.00231    0.00231
                         0.00231    0.00231    0.00231    0.00231    0.00231    0.00231
                         0.00231    0.00231    0.00231    0.00231    0.00231    0.00231
                         0.00231    0.00231    0.00231    0.00231    0.00231    0.00231
                         0.00231    0.00231    0.00231    0.00231    0.00231    0.00231
                         0.00231    0.00231    0.00231    0.00231    0.00231    0.00231
                         0.00231    0.00231
              wtk4       0.00231    0.00231    0.00231    0.00231    0.00231    0.00231
                         0.00231    0.00231    0.00231    0.00231    0.00231    0.00231
                         0.00231    0.00231    0.00231    0.00231    0.00231    0.00231
                         0.00231    0.00231    0.00231    0.00231    0.00231    0.00231
                         0.00231    0.00231    0.00231    0.00231    0.00231    0.00231
                         0.00231    0.00231    0.00231    0.00231    0.00231    0.00231
                         0.00231    0.00231    0.00231    0.00231    0.00231    0.00231
                         0.00231    0.00231    0.00231    0.00231    0.00231    0.00231
                         0.00231    0.00231
              wtk5       0.00231    0.00231    0.00231    0.00231    0.00231    0.00231
                         0.00231    0.00231    0.00231    0.00231    0.00231    0.00231
                         0.00231    0.00231    0.00231    0.00231    0.00231    0.00231
                         0.00231    0.00231    0.00231    0.00231    0.00231    0.00231
                         0.00231    0.00231    0.00231    0.00231    0.00231    0.00231
                         0.00231    0.00231    0.00231    0.00231    0.00231    0.00231
                         0.00231    0.00231    0.00231    0.00231    0.00231    0.00231
                         0.00231    0.00231    0.00231    0.00231    0.00231    0.00231
                         0.00231    0.00231
              wtk6       0.00231    0.00231    0.00231    0.00231    0.00231    0.00231
                         0.00231    0.00231    0.00231    0.00231    0.00231    0.00231
                         0.00231    0.00231    0.00231    0.00231    0.00231    0.00231
                         0.00231    0.00231    0.00231    0.00231    0.00231    0.00231
                         0.00231    0.00231    0.00231    0.00231    0.00231    0.00231
                         0.00231    0.00231    0.00231    0.00231    0.00231    0.00231
                         0.00231    0.00231    0.00231    0.00231    0.00231    0.00231
                         0.00231    0.00231    0.00231    0.00231    0.00231    0.00231
                         0.00231    0.00231
                       outvars : Printing only first  50 k-points.
           xangst      2.6599799639E+00  2.6599799639E+00  2.6582253367E+00
                       7.9799398918E+00  7.9799398918E+00  7.9746760102E+00
                       5.3199599279E+00  5.3199599279E+00  2.8318924793E+00
                       5.3199599279E+00  5.3199599279E+00  7.8010088676E+00
                       8.0314800716E+00  5.3199599279E+00  5.3164506734E+00
                       5.3199599279E+00  8.0314800716E+00  5.3164506734E+00
                       5.3199599279E+00  2.6084397841E+00  5.3164506734E+00
                       2.6084397841E+00  5.3199599279E+00  5.3164506734E+00
                      -1.8855824658E-20 -3.6054405222E-20 -3.7196029527E-22
            xcart      5.0266336508E+00  5.0266336508E+00  5.0233178859E+00
                       1.5079900952E+01  1.5079900952E+01  1.5069953658E+01
                       1.0053267302E+01  1.0053267302E+01  5.3515012237E+00
                       1.0053267302E+01  1.0053267302E+01  1.4741770320E+01
                       1.5177297777E+01  1.0053267302E+01  1.0046635772E+01
                       1.0053267302E+01  1.5177297777E+01  1.0046635772E+01
                       1.0053267302E+01  4.9292368261E+00  1.0046635772E+01
                       4.9292368261E+00  1.0053267302E+01  1.0046635772E+01
                      -3.5632344614E-20 -6.8132951754E-20 -7.0290309037E-22
             xred      2.5000000000E-01  2.5000000000E-01  2.5000000000E-01
                       7.5000000000E-01  7.5000000000E-01  7.5000000000E-01
                       2.6633299670E-01  2.6633299670E-01  7.3366700330E-01
                       7.3366700330E-01  7.3366700330E-01  2.6633299670E-01
                       2.4515596165E-01  7.5484403835E-01  7.5484403835E-01
                       7.5484403835E-01  2.4515596165E-01  7.5484403835E-01
                       2.4515596165E-01  7.5484403835E-01  2.4515596165E-01
                       7.5484403835E-01  2.4515596165E-01  2.4515596165E-01
                      -1.6514021364E-21  1.5814381100E-21 -5.1257927506E-21
            znucl       55.00000   53.00000   40.00000   35.00000

================================================================================


- Timing analysis has been suppressed with timopt=0



================================================================================

 Suggested references for the acknowledgment of ABINIT usage.

 The users of ABINIT have little formal obligations with respect to the ABINIT group
 (those specified in the GNU General Public License, http://www.gnu.org/copyleft/gpl.txt).
 However, it is common practice in the scientific literature,
 to acknowledge the efforts of people that have made the research possible.
 In this spirit, please find below suggested citations of work written by ABINIT developers,
 corresponding to implementations inside of ABINIT that you have used in the present run.
 Note also that it will be of great value to readers of publications presenting these results,
 to read papers enabling them to understand the theoretical formalism and details
 of the ABINIT implementation.
 For information on why they are suggested, see also https://docs.abinit.org/theory/acknowledgments.
-
- [1] Projector augmented-wave formulation of response to strain and electric-field perturbation 
- within density functional perturbation theory 
- A. Martin, M. Torrent, and R. Caracas. Phys. Rev. B 99, 094112 (2019)
- Comment: in case Elastic constants, Born Effective charges, piezoelectric tensor 
- are computed within the Projector Augmented-Wave (PAW) approach. 
- Strong suggestion to cite this paper in your publications.
- DOI and bibtex: see https://docs.abinit.org/theory/bibliography/#martin2019
-
- [2] Projector augmented-wave approach to density-functional perturbation theory.
- C. Audouze, F. Jollet, M. Torrent and X. Gonze, Phys. Rev. B 73, 235101 (2006).
- Comparison between projector augmented-wave and ultrasoft pseudopotential formalisms
- at the density-functional perturbation theory level.
- C. Audouze, F. Jollet, M. Torrent and X. Gonze, Phys. Rev. B 78, 035105 (2008).
- Comment: to be cited in case the computation of response function with PAW, i.e. (rfphon=1 or rfelfd=1) and usepaw=1.
- Strong suggestion to cite these papers.
- DOI and bibtex: see https://docs.abinit.org/theory/bibliography/#audouze2006,
- and https://docs.abinit.org/theory/bibliography/#audouze2008
-
- [3] Implementation of the Projector Augmented-Wave Method in the ABINIT code.
- M. Torrent, F. Jollet, F. Bottin, G. Zerah, and X. Gonze Comput. Mat. Science 42, 337, (2008).
- Comment: PAW calculations. Strong suggestion to cite this paper.
- DOI and bibtex: see https://docs.abinit.org/theory/bibliography/#torrent2008
-
- [4] Libxc: A library of exchange and correlation functionals for density functional theory.
- M.A.L. Marques, M.J.T. Oliveira, T. Burnus, Computer Physics Communications 183, 2227 (2012).
- Comment: to be cited when LibXC is used (negative value of ixc)
- Strong suggestion to cite this paper.
- DOI and bibtex: see https://docs.abinit.org/theory/bibliography/#marques2012
-
- [5] The Abinit project: Impact, environment and recent developments.
- Computer Phys. Comm. 248, 107042 (2020).
- X.Gonze, B. Amadon, G. Antonius, F.Arnardi, L.Baguet, J.-M.Beuken,
- J.Bieder, F.Bottin, J.Bouchet, E.Bousquet, N.Brouwer, F.Bruneval,
- G.Brunin, T.Cavignac, J.-B. Charraud, Wei Chen, M.Cote, S.Cottenier,
- J.Denier, G.Geneste, Ph.Ghosez, M.Giantomassi, Y.Gillet, O.Gingras,
- D.R.Hamann, G.Hautier, Xu He, N.Helbig, N.Holzwarth, Y.Jia, F.Jollet,
- W.Lafargue-Dit-Hauret, K.Lejaeghere, M.A.L.Marques, A.Martin, C.Martins,
- H.P.C. Miranda, F.Naccarato, K. Persson, G.Petretto, V.Planes, Y.Pouillon,
- S.Prokhorenko, F.Ricci, G.-M.Rignanese, A.H.Romero, M.M.Schmitt, M.Torrent,
- M.J.van Setten, B.Van Troeye, M.J.Verstraete, G.Zerah and J.W.Zwanzig
- Comment: the fifth generic paper describing the ABINIT project.
- Note that a version of this paper, that is not formatted for Computer Phys. Comm. 
- is available at https://www.abinit.org/sites/default/files/ABINIT20.pdf .
- The licence allows the authors to put it on the Web.
- DOI and bibtex: see https://docs.abinit.org/theory/bibliography/#gonze2020
-
- [6] First-principles responses of solids to atomic displacements and homogeneous electric fields:,
- implementation of a conjugate-gradient algorithm. X. Gonze, Phys. Rev. B55, 10337 (1997).
- Comment: Non-vanishing rfphon and/or rfelfd, in the norm-conserving case.
- DOI and bibtex: see https://docs.abinit.org/theory/bibliography/#gonze1997
-
- [7] Dynamical matrices, Born effective charges, dielectric permittivity tensors, and ,
- interatomic force constants from density-functional perturbation theory,
- X. Gonze and C. Lee, Phys. Rev. B55, 10355 (1997).
- Comment: Non-vanishing rfphon and/or rfelfd, in the norm-conserving case.
- DOI and bibtex: see https://docs.abinit.org/theory/bibliography/#gonze1997a
-
- [8] ABINIT: Overview, and focus on selected capabilities
- J. Chem. Phys. 152, 124102 (2020).
- A. Romero, D.C. Allan, B. Amadon, G. Antonius, T. Applencourt, L.Baguet,
- J.Bieder, F.Bottin, J.Bouchet, E.Bousquet, F.Bruneval,
- G.Brunin, D.Caliste, M.Cote,
- J.Denier, C. Dreyer, Ph.Ghosez, M.Giantomassi, Y.Gillet, O.Gingras,
- D.R.Hamann, G.Hautier, F.Jollet, G. Jomard,
- A.Martin, 
- H.P.C. Miranda, F.Naccarato, G.Petretto, N.A. Pike, V.Planes,
- S.Prokhorenko, T. Rangel, F.Ricci, G.-M.Rignanese, M.Royo, M.Stengel, M.Torrent,
- M.J.van Setten, B.Van Troeye, M.J.Verstraete, J.Wiktor, J.W.Zwanziger, and X.Gonze.
- Comment: a global overview of ABINIT, with focus on selected capabilities .
- Note that a version of this paper, that is not formatted for J. Chem. Phys 
- is available at https://www.abinit.org/sites/default/files/ABINIT20_JPC.pdf .
- The licence allows the authors to put it on the Web.
- DOI and bibtex: see https://docs.abinit.org/theory/bibliography/#romero2020
-
- [9] Recent developments in the ABINIT software package.
- Computer Phys. Comm. 205, 106 (2016).
- X.Gonze, F.Jollet, F.Abreu Araujo, D.Adams, B.Amadon, T.Applencourt,
- C.Audouze, J.-M.Beuken, J.Bieder, A.Bokhanchuk, E.Bousquet, F.Bruneval
- D.Caliste, M.Cote, F.Dahm, F.Da Pieve, M.Delaveau, M.Di Gennaro,
- B.Dorado, C.Espejo, G.Geneste, L.Genovese, A.Gerossier, M.Giantomassi,
- Y.Gillet, D.R.Hamann, L.He, G.Jomard, J.Laflamme Janssen, S.Le Roux,
- A.Levitt, A.Lherbier, F.Liu, I.Lukacevic, A.Martin, C.Martins,
- M.J.T.Oliveira, S.Ponce, Y.Pouillon, T.Rangel, G.-M.Rignanese,
- A.H.Romero, B.Rousseau, O.Rubel, A.A.Shukri, M.Stankovski, M.Torrent,
- M.J.Van Setten, B.Van Troeye, M.J.Verstraete, D.Waroquier, J.Wiktor,
- B.Xu, A.Zhou, J.W.Zwanziger.
- Comment: the fourth generic paper describing the ABINIT project.
- Note that a version of this paper, that is not formatted for Computer Phys. Comm. 
- is available at https://www.abinit.org/sites/default/files/ABINIT16.pdf .
- The licence allows the authors to put it on the Web.
- DOI and bibtex: see https://docs.abinit.org/theory/bibliography/#gonze2016
-
- Proc.   0 individual time (sec): cpu=       3960.2  wall=       3960.7

================================================================================

 Calculation completed.
.Delivered   1 WARNINGs and  18 COMMENTs to log file.
+Overall time at end (sec) : cpu=      23760.3  wall=      23763.7
