
.Version 9.2.2 of ABINIT 
.(MPI version, prepared for a x86_64_linux_gnu9.3 computer) 

.Copyright (C) 1998-2020 ABINIT group . 
 ABINIT comes with ABSOLUTELY NO WARRANTY.
 It is free software, and you are welcome to redistribute it
 under certain conditions (GNU General Public License,
 see ~abinit/COPYING or http://www.gnu.org/copyleft/gpl.txt).

 ABINIT is a project of the Universite Catholique de Louvain,
 Corning Inc. and other collaborators, see ~abinit/doc/developers/contributors.txt .
 Please read https://docs.abinit.org/theory/acknowledgments for suggested
 acknowledgments of the ABINIT effort.
 For more information, see https://www.abinit.org .

.Starting date : Mon  5 Sep 2022.
- ( at 17h21 )
  
- input  file    -> Cs2TiI6.in
- output file    -> Cs2TiI6.out
- root for input  files -> Cs2TiI6i
- root for output files -> Cs2TiI6o

- inpspheads : Reading pseudopotential header in XML form from 
-   ../../../Psps_for_tests/ATOMICDATA/Cs.GGA_PBE-JTH.xml
- inpspheads : Reading pseudopotential header in XML form from 
-   ../../../Psps_for_tests/ATOMICDATA/I.GGA_PBE-JTH.xml
- inpspheads : Reading pseudopotential header in XML form from 
-   ../../../Psps_for_tests/ATOMICDATA/Hf.GGA_PBE-JTH.xml

 Symmetries : space group Fm -3 m (#225); Bravais cF (face-center cubic)
================================================================================
 Values of the parameters that define the memory need of the present run
     intxc =       0    ionmov =       2      iscf =      17    lmnmax =      18
     lnmax =       6     mgfft =      60  mpssoang =       3    mqgrid =    3604
     natom =       9  nloc_mem =       2    nspden =       1   nspinor =       1
    nsppol =       1      nsym =      48    n1xccc =       1    ntypat =       3
    occopt =       1   xclevel =       2
-    mband =          42        mffmem =           1         mkmem =           3
       mpw =        8064          nfft =      216000          nkpt =          10
Pmy_natom=         3
 PAW method is used; the additional fine FFT grid is defined by:
   mgfftf=        90    nfftf =    729000
================================================================================
P This job should need less than                     251.024 Mbytes of memory.
  Rough estimation (10% accuracy) of disk space for files :
_ WF disk file :     51.682 Mbytes ; DEN or POT disk file :      5.564 Mbytes.
================================================================================

--------------------------------------------------------------------------------
------------- Echo of variables that govern the present computation ------------
--------------------------------------------------------------------------------
-
- outvars: echo of selected default values                                      
-   iomode0 =  0 , fftalg0 =112 , wfoptalg0 = 10
-
- outvars: echo of global parameters not present in the input file              
-  max_nthreads =    0
-
 -outvars: echo values of preprocessed input variables --------
            acell      1.6045663836E+01  1.6045663836E+01  1.6045663836E+01 Bohr
              amu      1.32905430E+02  1.26904470E+02  1.78490000E+02
           diemac      1.20000000E+01
          dilatmx      1.15000000E+00
             ecut      1.60000000E+01 Hartree
           ecutsm      5.00000000E-01 Hartree
-          fftalg         112
           ionmov           2
              ixc     -101130
              kpt     -1.25000000E-01 -2.50000000E-01  0.00000000E+00
                      -1.25000000E-01  5.00000000E-01  0.00000000E+00
                      -2.50000000E-01 -3.75000000E-01  0.00000000E+00
                      -1.25000000E-01 -3.75000000E-01  1.25000000E-01
                      -1.25000000E-01  2.50000000E-01  0.00000000E+00
                      -2.50000000E-01  3.75000000E-01  0.00000000E+00
                      -3.75000000E-01  5.00000000E-01  0.00000000E+00
                      -2.50000000E-01  5.00000000E-01  1.25000000E-01
                      -1.25000000E-01  0.00000000E+00  0.00000000E+00
                      -3.75000000E-01  0.00000000E+00  0.00000000E+00
         kptrlatt        4   -4    4     -4    4    4     -4   -4    4
          kptrlen      7.62451046E+01
P           mkmem           3
            natom           9
            nband          42
            ngfft          60      60      60
          ngfftdg          90      90      90
             nkpt          10
            nstep        2500
             nsym          48
            ntime        1000
           ntypat           3
              occ      2.000000  2.000000  2.000000  2.000000  2.000000  2.000000
                       2.000000  2.000000  2.000000  2.000000  2.000000  2.000000
                       2.000000  2.000000  2.000000  2.000000  2.000000  2.000000
                       2.000000  2.000000  2.000000  2.000000  2.000000  2.000000
                       2.000000  2.000000  2.000000  2.000000  2.000000  2.000000
                       2.000000  2.000000  2.000000  2.000000  2.000000  2.000000
                       0.000000  0.000000  0.000000  0.000000  0.000000  0.000000
        optforces           1
        pawecutdg      4.00000000E+01 Hartree
            prtwf           0
            rprim      0.0000000000E+00  5.9396969620E-01  5.9396969620E-01
                       5.9396969620E-01  0.0000000000E+00  5.9396969620E-01
                       5.9396969620E-01  5.9396969620E-01  0.0000000000E+00
           shiftk      5.00000000E-01  5.00000000E-01  5.00000000E-01
          spgroup         225
           symrel      1  0  0   0  1  0   0  0  1      -1  0  0   0 -1  0   0  0 -1
                       0 -1  1   0 -1  0   1 -1  0       0  1 -1   0  1  0  -1  1  0
                      -1  0  0  -1  0  1  -1  1  0       1  0  0   1  0 -1   1 -1  0
                       0  1 -1   1  0 -1   0  0 -1       0 -1  1  -1  0  1   0  0  1
                      -1  0  0  -1  1  0  -1  0  1       1  0  0   1 -1  0   1  0 -1
                       0 -1  1   1 -1  0   0 -1  0       0  1 -1  -1  1  0   0  1  0
                       1  0  0   0  0  1   0  1  0      -1  0  0   0  0 -1   0 -1  0
                       0  1 -1   0  0 -1   1  0 -1       0 -1  1   0  0  1  -1  0  1
                      -1  0  1  -1  1  0  -1  0  0       1  0 -1   1 -1  0   1  0  0
                       0 -1  0   1 -1  0   0 -1  1       0  1  0  -1  1  0   0  1 -1
                       1  0 -1   0  0 -1   0  1 -1      -1  0  1   0  0  1   0 -1  1
                       0  1  0   0  0  1   1  0  0       0 -1  0   0  0 -1  -1  0  0
                       1  0 -1   0  1 -1   0  0 -1      -1  0  1   0 -1  1   0  0  1
                       0 -1  0   0 -1  1   1 -1  0       0  1  0   0  1 -1  -1  1  0
                      -1  0  1  -1  0  0  -1  1  0       1  0 -1   1  0  0   1 -1  0
                       0  1  0   1  0  0   0  0  1       0 -1  0  -1  0  0   0  0 -1
                       0  0 -1   0  1 -1   1  0 -1       0  0  1   0 -1  1  -1  0  1
                       1 -1  0   0 -1  1   0 -1  0      -1  1  0   0  1 -1   0  1  0
                       0  0  1   1  0  0   0  1  0       0  0 -1  -1  0  0   0 -1  0
                      -1  1  0  -1  0  0  -1  0  1       1 -1  0   1  0  0   1  0 -1
                       0  0  1   0  1  0   1  0  0       0  0 -1   0 -1  0  -1  0  0
                       1 -1  0   0 -1  0   0 -1  1      -1  1  0   0  1  0   0  1 -1
                       0  0 -1   1  0 -1   0  1 -1       0  0  1  -1  0  1   0 -1  1
                      -1  1  0  -1  0  1  -1  0  0       1 -1  0   1  0 -1   1  0  0
           toldff      1.00000000E-08
           tolmxf      1.00000000E-05
            typat      1  1  2  2  2  2  2  2  3
           useylm           1
              wtk        0.09375    0.09375    0.09375    0.18750    0.09375    0.09375
                         0.09375    0.18750    0.03125    0.03125
           xangst      2.5216982260E+00  2.5216982260E+00  2.5216982260E+00
                       7.5650946781E+00  7.5650946781E+00  7.5650946781E+00
                       5.0433964521E+00  7.6811087107E+00  5.0433964521E+00
                       5.0433964521E+00  5.0433964521E+00  2.4056841934E+00
                       5.0433964521E+00  5.0433964521E+00  7.6811087107E+00
                       5.0433964521E+00  2.4056841934E+00  5.0433964521E+00
                       7.6811087107E+00  5.0433964521E+00  5.0433964521E+00
                       2.4056841934E+00  5.0433964521E+00  5.0433964521E+00
                       0.0000000000E+00  0.0000000000E+00  0.0000000000E+00
            xcart      4.7653190370E+00  4.7653190370E+00  4.7653190370E+00
                       1.4295957111E+01  1.4295957111E+01  1.4295957111E+01
                       9.5306380740E+00  1.4515191860E+01  9.5306380740E+00
                       9.5306380740E+00  9.5306380740E+00  4.5460842877E+00
                       9.5306380740E+00  9.5306380740E+00  1.4515191860E+01
                       9.5306380740E+00  4.5460842877E+00  9.5306380740E+00
                       1.4515191860E+01  9.5306380740E+00  9.5306380740E+00
                       4.5460842877E+00  9.5306380740E+00  9.5306380740E+00
                       0.0000000000E+00  0.0000000000E+00  0.0000000000E+00
             xred      2.5000000000E-01  2.5000000000E-01  2.5000000000E-01
                       7.5000000000E-01  7.5000000000E-01  7.5000000000E-01
                       7.6150157773E-01  2.3849842227E-01  7.6150157773E-01
                       2.3849842227E-01  2.3849842227E-01  7.6150157773E-01
                       7.6150157773E-01  7.6150157773E-01  2.3849842227E-01
                       2.3849842227E-01  7.6150157773E-01  2.3849842227E-01
                       2.3849842227E-01  7.6150157773E-01  7.6150157773E-01
                       7.6150157773E-01  2.3849842227E-01  2.3849842227E-01
                       0.0000000000E+00  0.0000000000E+00  0.0000000000E+00
            znucl       55.00000   53.00000   72.00000

================================================================================

 chkinp: Checking input parameters for consistency.

================================================================================
== DATASET  1 ==================================================================
-   mpi_nproc: 4, omp_nthreads: -1 (-1 if OMP is not activated)


--- !DatasetInfo
iteration_state: {dtset: 1, }
dimensions: {natom: 9, nkpt: 10, mband: 42, nsppol: 1, nspinor: 1, nspden: 1, mpw: 8064, }
cutoff_energies: {ecut:  16.0, pawecutdg:  40.0, }
electrons: {nelect:   7.20000000E+01, charge:   0.00000000E+00, occopt:   1.00000000E+00, tsmear:   1.00000000E-02, }
meta: {optdriver: 0, ionmov: 2, optcell: 0, iscf: 17, paral_kgb: 0, }
...

 Real(R)+Recip(G) space primitive vectors, cartesian coordinates (Bohr,Bohr^-1):
 R(1)=  0.0000000  9.5306381  9.5306381  G(1)= -0.0524624  0.0524624  0.0524624
 R(2)=  9.5306381  0.0000000  9.5306381  G(2)=  0.0524624 -0.0524624  0.0524624
 R(3)=  9.5306381  9.5306381  0.0000000  G(3)=  0.0524624  0.0524624 -0.0524624
 Unit cell volume ucvol=  1.7313941E+03 bohr^3
 Angles (23,13,12)=  6.00000000E+01  6.00000000E+01  6.00000000E+01 degrees

 Coarse grid specifications (used for wave-functions):

 getcut: wavevector=  0.0000  0.0000  0.0000  ngfft=  60  60  60
         ecut(hartree)=     21.160   => boxcut(ratio)=   2.14977

 Fine grid specifications (used for densities):

 getcut: wavevector=  0.0000  0.0000  0.0000  ngfft=  90  90  90
         ecut(hartree)=     52.900   => boxcut(ratio)=   2.03970

--- Pseudopotential description ------------------------------------------------
- pspini: atom type   1  psp file is ../../../Psps_for_tests/ATOMICDATA/Cs.GGA_PBE-JTH.xml
- pspatm: opening atomic psp file    ../../../Psps_for_tests/ATOMICDATA/Cs.GGA_PBE-JTH.xml
- pspatm : Reading pseudopotential header in XML form from ../../../Psps_for_tests/ATOMICDATA/Cs.GGA_PBE-JTH.xml
 Pseudopotential format is: paw10
 basis_size (lnmax)=  6 (lmn_size= 18), orbitals=   0   0   1   1   2   2
 Spheres core radius: rc_sph= 2.20660278
 1 radial meshes are used:
  - mesh 1: r(i)=AA*[exp(BB*(i-1))-1], size=1500 , AA= 0.15922E-03 BB= 0.87573E-02
 Shapefunction is SIN type: shapef(r)=[sin(pi*r/rshp)/(pi*r/rshp)]**2
 Radius for shape functions =  2.00394208
 mmax= 1500
 Radial grid used for partial waves is grid 1
 Radial grid used for projectors is grid 1
 Radial grid used for (t)core density is grid 1
 Radial grid used for Vloc is grid 1
 Radial grid used for pseudo valence density is grid 1
 Mesh size for Vloc has been set to 1341 to avoid numerical noise.
 Compensation charge density is not taken into account in XC energy/potential
 pspatm: atomic psp has been read  and splines computed

- pspini: atom type   2  psp file is ../../../Psps_for_tests/ATOMICDATA/I.GGA_PBE-JTH.xml
- pspatm: opening atomic psp file    ../../../Psps_for_tests/ATOMICDATA/I.GGA_PBE-JTH.xml
- pspatm : Reading pseudopotential header in XML form from ../../../Psps_for_tests/ATOMICDATA/I.GGA_PBE-JTH.xml
 Pseudopotential format is: paw10
 basis_size (lnmax)=  4 (lmn_size=  8), orbitals=   0   0   1   1
 Spheres core radius: rc_sph= 2.30022271
 1 radial meshes are used:
  - mesh 1: r(i)=AA*[exp(BB*(i-1))-1], size=2000 , AA= 0.12610E-03 BB= 0.66836E-02
 Shapefunction is SIN type: shapef(r)=[sin(pi*r/rshp)/(pi*r/rshp)]**2
 Radius for shape functions =  2.10879093
 mmax= 2000
 Radial grid used for partial waves is grid 1
 Radial grid used for projectors is grid 1
 Radial grid used for (t)core density is grid 1
 Radial grid used for Vloc is grid 1
 Radial grid used for pseudo valence density is grid 1
 Mesh size for Vloc has been set to 1792 to avoid numerical noise.
 Compensation charge density is not taken into account in XC energy/potential
 pspatm: atomic psp has been read  and splines computed

- pspini: atom type   3  psp file is ../../../Psps_for_tests/ATOMICDATA/Hf.GGA_PBE-JTH.xml
- pspatm: opening atomic psp file    ../../../Psps_for_tests/ATOMICDATA/Hf.GGA_PBE-JTH.xml
- pspatm : Reading pseudopotential header in XML form from ../../../Psps_for_tests/ATOMICDATA/Hf.GGA_PBE-JTH.xml
 Pseudopotential format is: paw10
 basis_size (lnmax)=  6 (lmn_size= 18), orbitals=   0   0   1   1   2   2
 Spheres core radius: rc_sph= 2.41000000
 1 radial meshes are used:
  - mesh 1: r(i)=AA*[exp(BB*(i-1))-1], size= 972 , AA= 0.19796E-03 BB= 0.14253E-01
 Shapefunction is SIN type: shapef(r)=[sin(pi*r/rshp)/(pi*r/rshp)]**2
 Radius for shape functions =  2.41000000
 mmax=  972
 Radial grid used for partial waves is grid 1
 Radial grid used for projectors is grid 1
 Radial grid used for (t)core density is grid 1
 Radial grid used for Vloc is grid 1
 Radial grid used for pseudo valence density is grid 1
 Mesh size for Vloc has been set to  809 to avoid numerical noise.
 Compensation charge density is not taken into account in XC energy/potential
 pspatm: atomic psp has been read  and splines computed

   5.00972281E+04                                ecore*ucvol(ha*bohr**3)
--------------------------------------------------------------------------------

_setup2: Arith. and geom. avg. npw (full set) are    8049.594    8049.583

================================================================================

=== [ionmov= 2] Broyden-Fletcher-Goldfard-Shanno method (forces)            
================================================================================

--- Iteration: (   1/1000) Internal Cycle: (1/1)
--------------------------------------------------------------------------------

---SELF-CONSISTENT-FIELD CONVERGENCE--------------------------------------------

--- !BeginCycle
iteration_state: {dtset: 1, itime: 1, icycle: 1, }
solver: {iscf: 17, nstep: 2500, nline: 4, wfoptalg: 10, }
tolerances: {toldff: 1.00E-08, }
...

     iter   Etot(hartree)      deltaE(h)  residm     nres2    diffor    maxfor
 ETOT  1  -157.80903513984    -1.578E+02 4.967E+00 1.319E+01 4.243E-02 4.243E-02
 ETOT  2  -160.96248872868    -3.153E+00 4.091E-02 1.143E+01 1.596E-01 2.020E-01
 ETOT  3  -160.91491375351     4.757E-02 1.163E-02 2.926E+00 5.042E-02 1.516E-01
 ETOT  4  -160.90613859132     8.775E-03 2.781E-03 1.300E-01 2.096E-03 1.495E-01
 ETOT  5  -160.90732268584    -1.184E-03 8.546E-04 5.512E-02 9.585E-03 1.591E-01
 ETOT  6  -160.90718103839     1.416E-04 9.218E-04 1.797E-03 3.921E-03 1.552E-01
 ETOT  7  -160.90721693350    -3.590E-05 6.283E-04 5.256E-04 6.944E-04 1.559E-01
 ETOT  8  -160.90722054571    -3.612E-06 1.088E-03 7.633E-05 5.320E-05 1.559E-01
 ETOT  9  -160.90722069932    -1.536E-07 6.120E-04 1.569E-05 6.265E-05 1.560E-01
 ETOT 10  -160.90722062817     7.116E-08 7.575E-04 4.427E-07 6.321E-05 1.560E-01
 ETOT 11  -160.90722064233    -1.417E-08 3.187E-04 2.174E-07 4.434E-06 1.560E-01
 ETOT 12  -160.90722064185     4.798E-10 3.024E-04 2.276E-08 8.895E-07 1.560E-01
 ETOT 13  -160.90722064211    -2.541E-10 9.942E-05 7.639E-09 1.412E-06 1.560E-01
 ETOT 14  -160.90722064212    -1.054E-11 7.580E-05 1.165E-09 5.730E-07 1.560E-01
 ETOT 15  -160.90722064215    -3.521E-11 6.055E-05 2.859E-11 2.611E-07 1.560E-01
 ETOT 16  -160.90722064214     1.083E-11 4.829E-05 7.509E-12 2.199E-08 1.560E-01
 ETOT 17  -160.90722064215    -5.343E-12 5.565E-05 4.853E-13 7.440E-08 1.560E-01
 ETOT 18  -160.90722064215    -2.728E-12 4.390E-05 9.150E-14 1.704E-08 1.560E-01
 ETOT 19  -160.90722064214     1.037E-11 5.091E-05 8.735E-15 1.208E-08 1.560E-01
 ETOT 20  -160.90722064214    -5.087E-12 3.841E-05 8.726E-16 1.640E-10 1.560E-01
 ETOT 21  -160.90722064215    -8.015E-12 4.547E-05 6.612E-17 4.083E-10 1.560E-01

 At SCF step   21, forces are converged : 
  for the second time, max diff in force=  4.083E-10 < toldff=  1.000E-08

 Cartesian components of stress tensor (hartree/bohr^3)
  sigma(1 1)= -1.18934285E-03  sigma(3 2)=  0.00000000E+00
  sigma(2 2)= -1.18934285E-03  sigma(3 1)=  0.00000000E+00
  sigma(3 3)= -1.18934285E-03  sigma(2 1)=  0.00000000E+00


--- !ResultsGS
iteration_state: {dtset: 1, itime: 1, icycle: 1, }
comment   : Summary of ground state results
lattice_vectors:
- [  0.0000000,   9.5306381,   9.5306381, ]
- [  9.5306381,   0.0000000,   9.5306381, ]
- [  9.5306381,   9.5306381,   0.0000000, ]
lattice_lengths: [  13.47836,   13.47836,   13.47836, ]
lattice_angles: [ 60.000,  60.000,  60.000, ] # degrees, (23, 13, 12)
lattice_volume:   1.7313941E+03
convergence: {deltae: -8.015E-12, res2:  6.612E-17, residm:  4.547E-05, diffor:  4.083E-10, }
etotal    :  -1.60907221E+02
entropy   :   0.00000000E+00
fermie    :  -7.11529353E-02
cartesian_stress_tensor: # hartree/bohr^3
- [ -1.18934285E-03,   0.00000000E+00,   0.00000000E+00, ]
- [  0.00000000E+00,  -1.18934285E-03,   0.00000000E+00, ]
- [  0.00000000E+00,   0.00000000E+00,  -1.18934285E-03, ]
pressure_GPa:   3.4992E+01
xred      :
- [  2.5000E-01,   2.5000E-01,   2.5000E-01, Cs]
- [  7.5000E-01,   7.5000E-01,   7.5000E-01, Cs]
- [  7.6150E-01,   2.3850E-01,   7.6150E-01,  I]
- [  2.3850E-01,   2.3850E-01,   7.6150E-01,  I]
- [  7.6150E-01,   7.6150E-01,   2.3850E-01,  I]
- [  2.3850E-01,   7.6150E-01,   2.3850E-01,  I]
- [  2.3850E-01,   7.6150E-01,   7.6150E-01,  I]
- [  7.6150E-01,   2.3850E-01,   2.3850E-01,  I]
- [  0.0000E+00,   0.0000E+00,   0.0000E+00, Hf]
cartesian_forces: # hartree/bohr
- [ -0.00000000E+00,  -0.00000000E+00,   6.74952697E-18, ]
- [ -0.00000000E+00,  -0.00000000E+00,   6.74952697E-18, ]
- [  2.25209841E-17,  -1.56045849E-01,  -1.57714572E-17, ]
- [ -1.01968207E-18,   5.34307504E-19,   1.56045849E-01, ]
- [  1.01968207E-18,  -5.34307504E-19,  -1.56045849E-01, ]
- [  5.23459148E-18,   1.56045849E-01,   1.51493549E-18, ]
- [ -1.56045849E-01,  -7.76994785E-19,   7.52652175E-18, ]
- [  1.56045849E-01,   2.85325704E-17,  -2.17830434E-17, ]
- [ -0.00000000E+00,  -0.00000000E+00,   6.74952697E-18, ]
force_length_stats: {min:   6.74952697E-18, max:   1.56045849E-01, mean:   1.04030566E-01, }
...

 Integrated electronic density in atomic spheres:
 ------------------------------------------------
 Atom  Sphere_radius  Integrated_density
    1        2.20660          5.38923052
    2        2.20660          5.38923052
    3        2.30022          4.20541573
    4        2.30022          4.20541573
    5        2.30022          4.20541573
    6        2.30022          4.20541573
    7        2.30022          4.20541573
    8        2.30022          4.20541573
    9        2.41000         10.35330204

 PAW TEST:
 ==== Compensation charge inside spheres ============
 The following values must be close to each other ...
 Compensation charge over spherical meshes =     -0.599171977412346
 Compensation charge over fine fft grid    =     -0.599177742141654

 ==== Results concerning PAW augmentation regions ====

 Total pseudopotential strength Dij (hartree):
 Atom #  1
   0.43939  -0.14549   0.00000   0.00000   0.00000   0.00000   0.00000   0.00000   0.00000   0.00000   0.00000   0.00000 ...
  -0.14549   0.04383   0.00000   0.00000   0.00000   0.00000   0.00000   0.00000   0.00000   0.00000   0.00000   0.00000 ...
   0.00000   0.00000  -0.09334   0.00000   0.00000  -0.16683   0.00000   0.00000   0.00000   0.00000   0.00000  -0.00000 ...
   0.00000   0.00000   0.00000  -0.09334   0.00000   0.00000  -0.16683   0.00000  -0.00000   0.00000   0.00000   0.00000 ...
   0.00000   0.00000   0.00000   0.00000  -0.09334   0.00000   0.00000  -0.16683   0.00000  -0.00000   0.00000   0.00000 ...
   0.00000   0.00000  -0.16683   0.00000   0.00000   0.40401   0.00000   0.00000   0.00000   0.00000   0.00000   0.00000 ...
   0.00000   0.00000   0.00000  -0.16683   0.00000   0.00000   0.40401   0.00000   0.00000   0.00000   0.00000   0.00000 ...
   0.00000   0.00000   0.00000   0.00000  -0.16683   0.00000   0.00000   0.40401   0.00000   0.00000   0.00000   0.00000 ...
   0.00000   0.00000   0.00000  -0.00000   0.00000   0.00000   0.00000   0.00000   0.00526   0.00000   0.00000   0.00000 ...
   0.00000   0.00000   0.00000   0.00000  -0.00000   0.00000   0.00000   0.00000   0.00000   0.00526   0.00000   0.00000 ...
   0.00000   0.00000   0.00000   0.00000   0.00000   0.00000   0.00000   0.00000   0.00000   0.00000   0.00526   0.00000 ...
   0.00000   0.00000  -0.00000   0.00000   0.00000   0.00000   0.00000   0.00000   0.00000   0.00000   0.00000   0.00526 ...
   ...  only 12  components have been written...
 Atom #  9
  -3.48832   0.41739   0.00000   0.00000   0.00000   0.00000   0.00000   0.00000   0.00000   0.00000   0.00000   0.00000 ...
   0.41739   0.00558   0.00000   0.00000   0.00000   0.00000   0.00000   0.00000   0.00000   0.00000   0.00000   0.00000 ...
   0.00000   0.00000  -1.41297   0.00000   0.00000   0.11429   0.00000   0.00000   0.00000   0.00000   0.00000   0.00000 ...
   0.00000   0.00000   0.00000  -1.41297   0.00000   0.00000   0.11429   0.00000   0.00000   0.00000   0.00000   0.00000 ...
   0.00000   0.00000   0.00000   0.00000  -1.41297   0.00000   0.00000   0.11429   0.00000   0.00000   0.00000   0.00000 ...
   0.00000   0.00000   0.11429   0.00000   0.00000   0.01513   0.00000   0.00000   0.00000   0.00000   0.00000   0.00000 ...
   0.00000   0.00000   0.00000   0.11429   0.00000   0.00000   0.01513   0.00000   0.00000   0.00000   0.00000   0.00000 ...
   0.00000   0.00000   0.00000   0.00000   0.11429   0.00000   0.00000   0.01513   0.00000   0.00000   0.00000   0.00000 ...
   0.00000   0.00000   0.00000   0.00000   0.00000   0.00000   0.00000   0.00000  -0.38516   0.00000   0.00000   0.00000 ...
   0.00000   0.00000   0.00000   0.00000   0.00000   0.00000   0.00000   0.00000   0.00000  -0.38516   0.00000   0.00000 ...
   0.00000   0.00000   0.00000   0.00000   0.00000   0.00000   0.00000   0.00000   0.00000   0.00000  -0.38502   0.00000 ...
   0.00000   0.00000   0.00000   0.00000   0.00000   0.00000   0.00000   0.00000   0.00000   0.00000   0.00000  -0.38516 ...
   ...  only 12  components have been written...


 Augmentation waves occupancies Rhoij:
 Atom #  1
   2.00102  -0.00398   0.00000   0.00000   0.00000   0.00000   0.00000   0.00000   0.00000   0.00000   0.00000   0.00000 ...
  -0.00398   0.36748   0.00000   0.00000   0.00000   0.00000   0.00000   0.00000   0.00000   0.00000   0.00000   0.00000 ...
   0.00000   0.00000   2.00317   0.00000   0.00000  -0.00468   0.00000   0.00000   0.00000   0.00000   0.00000  -0.00771 ...
   0.00000   0.00000   0.00000   2.00317   0.00000   0.00000  -0.00468   0.00000  -0.00771   0.00000   0.00000   0.00000 ...
   0.00000   0.00000   0.00000   0.00000   2.00317   0.00000   0.00000  -0.00468   0.00000  -0.00771   0.00000   0.00000 ...
   0.00000   0.00000  -0.00468   0.00000   0.00000   0.00031   0.00000   0.00000   0.00000   0.00000   0.00000   0.00021 ...
   0.00000   0.00000   0.00000  -0.00468   0.00000   0.00000   0.00031   0.00000   0.00021   0.00000   0.00000   0.00000 ...
   0.00000   0.00000   0.00000   0.00000  -0.00468   0.00000   0.00000   0.00031   0.00000   0.00021   0.00000   0.00000 ...
   0.00000   0.00000   0.00000  -0.00771   0.00000   0.00000   0.00021   0.00000   0.17190   0.00000   0.00000   0.00000 ...
   0.00000   0.00000   0.00000   0.00000  -0.00771   0.00000   0.00000   0.00021   0.00000   0.17190   0.00000   0.00000 ...
   0.00000   0.00000   0.00000   0.00000   0.00000   0.00000   0.00000   0.00000   0.00000   0.00000   0.13214   0.00000 ...
   0.00000   0.00000  -0.00771   0.00000   0.00000   0.00021   0.00000   0.00000   0.00000   0.00000   0.00000   0.17190 ...
   ...  only 12  components have been written...
 Atom #  9
   2.00132   0.01454   0.00000   0.00000   0.00000   0.00000   0.00000   0.00000   0.00000   0.00000   0.00000   0.00000 ...
   0.01454   1.43500   0.00000   0.00000   0.00000   0.00000   0.00000   0.00000   0.00000   0.00000   0.00000   0.00000 ...
   0.00000   0.00000   2.01467   0.00000   0.00000   0.11458   0.00000   0.00000   0.00000   0.00000   0.00000   0.00000 ...
   0.00000   0.00000   0.00000   2.01467   0.00000   0.00000   0.11458   0.00000   0.00000   0.00000   0.00000   0.00000 ...
   0.00000   0.00000   0.00000   0.00000   2.01467   0.00000   0.00000   0.11458   0.00000   0.00000   0.00000   0.00000 ...
   0.00000   0.00000   0.11458   0.00000   0.00000   2.63909   0.00000   0.00000   0.00000   0.00000   0.00000   0.00000 ...
   0.00000   0.00000   0.00000   0.11458   0.00000   0.00000   2.63909   0.00000   0.00000   0.00000   0.00000   0.00000 ...
   0.00000   0.00000   0.00000   0.00000   0.11458   0.00000   0.00000   2.63909   0.00000   0.00000   0.00000   0.00000 ...
   0.00000   0.00000   0.00000   0.00000   0.00000   0.00000   0.00000   0.00000   1.29609   0.00000   0.00000   0.00000 ...
   0.00000   0.00000   0.00000   0.00000   0.00000   0.00000   0.00000   0.00000   0.00000   1.29609   0.00000   0.00000 ...
   0.00000   0.00000   0.00000   0.00000   0.00000   0.00000   0.00000   0.00000   0.00000   0.00000   3.31842   0.00000 ...
   0.00000   0.00000   0.00000   0.00000   0.00000   0.00000   0.00000   0.00000   0.00000   0.00000   0.00000   1.29609 ...
   ...  only 12  components have been written...



---OUTPUT-----------------------------------------------------------------------

 Cartesian coordinates (xcart) [bohr]
  4.76531903699491E+00  4.76531903699491E+00  4.76531903699491E+00
  1.42959571109847E+01  1.42959571109847E+01  1.42959571109847E+01
  9.53063807398983E+00  1.45151918602337E+01  9.53063807398983E+00
  9.53063807398983E+00  9.53063807398983E+00  4.54608428774593E+00
  9.53063807398983E+00  9.53063807398983E+00  1.45151918602337E+01
  9.53063807398983E+00  4.54608428774593E+00  9.53063807398983E+00
  1.45151918602337E+01  9.53063807398983E+00  9.53063807398983E+00
  4.54608428774593E+00  9.53063807398983E+00  9.53063807398983E+00
  0.00000000000000E+00  0.00000000000000E+00  0.00000000000000E+00
 Reduced coordinates (xred)
  2.50000000000000E-01  2.50000000000000E-01  2.50000000000000E-01
  7.50000000000000E-01  7.50000000000000E-01  7.50000000000000E-01
  7.61501577730000E-01  2.38498422270000E-01  7.61501577730000E-01
  2.38498422270000E-01  2.38498422270000E-01  7.61501577730000E-01
  7.61501577730000E-01  7.61501577730000E-01  2.38498422270000E-01
  2.38498422270000E-01  7.61501577730000E-01  2.38498422270000E-01
  2.38498422270000E-01  7.61501577730000E-01  7.61501577730000E-01
  7.61501577730000E-01  2.38498422270000E-01  2.38498422270000E-01
  0.00000000000000E+00  0.00000000000000E+00  0.00000000000000E+00
 Cartesian forces (fcart) [Ha/bohr]; max,rms= 1.56046E-01 7.35607E-02 (free atoms)
 -0.00000000000000E+00 -0.00000000000000E+00  6.74952696816540E-18
 -0.00000000000000E+00 -0.00000000000000E+00  6.74952696816540E-18
  2.25209841333981E-17 -1.56045849370678E-01 -1.57714571652327E-17
 -1.01968206522335E-18  5.34307504427032E-19  1.56045849370678E-01
  1.01968206522335E-18 -5.34307504427032E-19 -1.56045849370678E-01
  5.23459148223081E-18  1.56045849370678E-01  1.51493548593459E-18
 -1.56045849370678E-01 -7.76994784825191E-19  7.52652175299060E-18
  1.56045849370678E-01  2.85325704004541E-17 -2.17830434322887E-17
 -0.00000000000000E+00 -0.00000000000000E+00  6.74952696816540E-18
 Reduced forces (fred)
 -6.43272987042183E-17 -6.43272987042183E-17 -0.00000000000000E+00
 -6.43272987042183E-17 -6.43272987042183E-17 -0.00000000000000E+00
  1.48721651330026E+00 -6.43272987042183E-17  1.48721651330026E+00
 -1.48721651330026E+00 -1.48721651330026E+00  4.62592926927148E-18
  1.48721651330026E+00  1.48721651330026E+00 -4.62592926927148E-18
 -1.48721651330026E+00 -6.43272987042183E-17 -1.48721651330026E+00
 -6.43272987042183E-17  1.48721651330026E+00  1.48721651330026E+00
 -6.43272987042183E-17 -1.48721651330026E+00 -1.48721651330026E+00
 -6.43272987042183E-17 -6.43272987042183E-17 -0.00000000000000E+00
 Total energy (etotal) [Ha]= -1.60907220642153E+02

--- Iteration: (   2/1000) Internal Cycle: (1/1)
--------------------------------------------------------------------------------

---SELF-CONSISTENT-FIELD CONVERGENCE--------------------------------------------

--- !BeginCycle
iteration_state: {dtset: 1, itime: 2, icycle: 1, }
solver: {iscf: 17, nstep: 2500, nline: 4, wfoptalg: 10, }
tolerances: {toldff: 1.00E-08, }
...

     iter   Etot(hartree)      deltaE(h)  residm     nres2    diffor    maxfor
 ETOT  1  -161.31723873634    -1.613E+02 1.634E-03 4.457E+01 5.757E-01 7.317E-01
 ETOT  2  -161.03602986188     2.812E-01 4.711E-04 2.790E+00 6.144E-01 1.174E-01
 ETOT  3  -161.02501223417     1.102E-02 7.215E-04 2.379E-01 2.576E-02 1.431E-01
 ETOT  4  -161.02471419279     2.980E-04 1.073E-04 2.989E-02 4.371E-02 9.942E-02
 ETOT  5  -161.02491773341    -2.035E-04 1.875E-05 7.888E-03 3.163E-04 9.910E-02
 ETOT  6  -161.02492924309    -1.151E-05 1.808E-05 1.277E-03 1.123E-03 9.798E-02
 ETOT  7  -161.02493329495    -4.052E-06 8.204E-06 9.621E-05 2.257E-04 9.775E-02
 ETOT  8  -161.02493453105    -1.236E-06 1.059E-05 9.288E-06 4.316E-04 9.732E-02
 ETOT  9  -161.02493466067    -1.296E-07 5.418E-06 9.834E-07 8.236E-05 9.740E-02
 ETOT 10  -161.02493474833    -8.766E-08 9.199E-06 4.396E-08 3.416E-05 9.737E-02
 ETOT 11  -161.02493477502    -2.670E-08 4.680E-06 1.420E-08 9.831E-06 9.738E-02
 ETOT 12  -161.02493480415    -2.912E-08 7.884E-06 1.079E-09 1.573E-06 9.738E-02
 ETOT 13  -161.02493481825    -1.410E-08 4.019E-06 4.112E-10 1.502E-06 9.737E-02
 ETOT 14  -161.02493483154    -1.329E-08 6.725E-06 1.491E-10 2.483E-07 9.737E-02
 ETOT 15  -161.02493484195    -1.041E-08 3.431E-06 4.475E-11 8.735E-08 9.737E-02
 ETOT 16  -161.02493484961    -7.664E-09 5.717E-06 7.724E-12 5.762E-08 9.737E-02
 ETOT 17  -161.02493485328    -3.672E-09 2.918E-06 6.212E-13 4.532E-09 9.737E-02
 ETOT 18  -161.02493485428    -9.975E-10 4.848E-06 4.933E-14 2.022E-08 9.737E-02
 ETOT 19  -161.02493485447    -1.929E-10 2.799E-06 3.072E-15 3.952E-09 9.737E-02
 ETOT 20  -161.02493485448    -1.029E-11 4.468E-06 5.340E-16 7.926E-10 9.737E-02

 At SCF step   20, forces are converged : 
  for the second time, max diff in force=  7.926E-10 < toldff=  1.000E-08

 Cartesian components of stress tensor (hartree/bohr^3)
  sigma(1 1)= -9.76457013E-04  sigma(3 2)=  0.00000000E+00
  sigma(2 2)= -9.76457013E-04  sigma(3 1)=  0.00000000E+00
  sigma(3 3)= -9.76457013E-04  sigma(2 1)=  0.00000000E+00


--- !ResultsGS
iteration_state: {dtset: 1, itime: 2, icycle: 1, }
comment   : Summary of ground state results
lattice_vectors:
- [  0.0000000,   9.5306381,   9.5306381, ]
- [  9.5306381,   0.0000000,   9.5306381, ]
- [  9.5306381,   9.5306381,   0.0000000, ]
lattice_lengths: [  13.47836,   13.47836,   13.47836, ]
lattice_angles: [ 60.000,  60.000,  60.000, ] # degrees, (23, 13, 12)
lattice_volume:   1.7313941E+03
convergence: {deltae: -1.029E-11, res2:  5.340E-16, residm:  4.468E-06, diffor:  7.926E-10, }
etotal    :  -1.61024935E+02
entropy   :   0.00000000E+00
fermie    :  -7.28184121E-02
cartesian_stress_tensor: # hartree/bohr^3
- [ -9.76457013E-04,   0.00000000E+00,   0.00000000E+00, ]
- [  0.00000000E+00,  -9.76457013E-04,   0.00000000E+00, ]
- [  0.00000000E+00,   0.00000000E+00,  -9.76457013E-04, ]
pressure_GPa:   2.8728E+01
xred      :
- [  2.5000E-01,   2.5000E-01,   2.5000E-01, Cs]
- [  7.5000E-01,   7.5000E-01,   7.5000E-01, Cs]
- [  7.5332E-01,   2.4668E-01,   7.5332E-01,  I]
- [  2.4668E-01,   2.4668E-01,   7.5332E-01,  I]
- [  7.5332E-01,   7.5332E-01,   2.4668E-01,  I]
- [  2.4668E-01,   7.5332E-01,   2.4668E-01,  I]
- [  2.4668E-01,   7.5332E-01,   7.5332E-01,  I]
- [  7.5332E-01,   2.4668E-01,   2.4668E-01,  I]
- [  4.6834E-19,   3.5410E-19,  -2.7541E-19, Hf]
cartesian_forces: # hartree/bohr
- [ -1.54197642E-18,  -7.70988206E-19,   2.39427528E-18, ]
- [ -1.54197643E-18,  -7.70988217E-19,   2.39427530E-18, ]
- [  3.55072244E-18,  -9.73749094E-02,  -2.69842358E-18, ]
- [  1.32192409E-18,  -3.63488873E-18,   9.73749094E-02, ]
- [  3.04218615E-19,  -2.61718325E-18,  -9.73749094E-02, ]
- [ -8.10180560E-19,   9.73749094E-02,   1.66247942E-18, ]
- [ -9.73749094E-02,   9.03180621E-18,  -7.40851914E-18, ]
- [  9.73749094E-02,  -3.63488873E-18,   5.25817580E-18, ]
- [ -1.54197642E-18,  -7.70988212E-19,   2.39427529E-18, ]
force_length_stats: {min:   2.95036747E-18, max:   9.73749094E-02, mean:   6.49166063E-02, }
...

 Integrated electronic density in atomic spheres:
 ------------------------------------------------
 Atom  Sphere_radius  Integrated_density
    1        2.20660          5.39092348
    2        2.20660          5.39092348
    3        2.30022          4.16791658
    4        2.30022          4.16791658
    5        2.30022          4.16791658
    6        2.30022          4.16791658
    7        2.30022          4.16791658
    8        2.30022          4.16791658
    9        2.41000         10.05557700

 PAW TEST:
 ==== Compensation charge inside spheres ============
 The following values must be close to each other ...
 Compensation charge over spherical meshes =     -0.606951477193842
 Compensation charge over fine fft grid    =     -0.606957654039451

 ==== Results concerning PAW augmentation regions ====

 Total pseudopotential strength Dij (hartree):
 Atom #  1
   0.43870  -0.14527   0.00000   0.00000   0.00000   0.00000   0.00000   0.00000   0.00000   0.00000   0.00000   0.00000 ...
  -0.14527   0.04376   0.00000   0.00000   0.00000   0.00000   0.00000   0.00000   0.00000   0.00000   0.00000   0.00000 ...
   0.00000   0.00000  -0.09325   0.00000   0.00000  -0.16688   0.00000   0.00000   0.00000   0.00000   0.00000  -0.00000 ...
   0.00000   0.00000   0.00000  -0.09325   0.00000   0.00000  -0.16688   0.00000  -0.00000   0.00000   0.00000   0.00000 ...
   0.00000   0.00000   0.00000   0.00000  -0.09325   0.00000   0.00000  -0.16688   0.00000  -0.00000   0.00000   0.00000 ...
   0.00000   0.00000  -0.16688   0.00000   0.00000   0.40381   0.00000   0.00000   0.00000   0.00000   0.00000   0.00000 ...
   0.00000   0.00000   0.00000  -0.16688   0.00000   0.00000   0.40381   0.00000   0.00000   0.00000   0.00000   0.00000 ...
   0.00000   0.00000   0.00000   0.00000  -0.16688   0.00000   0.00000   0.40381   0.00000   0.00000   0.00000   0.00000 ...
   0.00000   0.00000   0.00000  -0.00000   0.00000   0.00000   0.00000   0.00000   0.00527   0.00000   0.00000   0.00000 ...
   0.00000   0.00000   0.00000   0.00000  -0.00000   0.00000   0.00000   0.00000   0.00000   0.00527   0.00000   0.00000 ...
   0.00000   0.00000   0.00000   0.00000   0.00000   0.00000   0.00000   0.00000   0.00000   0.00000   0.00527   0.00000 ...
   0.00000   0.00000  -0.00000   0.00000   0.00000   0.00000   0.00000   0.00000   0.00000   0.00000   0.00000   0.00527 ...
   ...  only 12  components have been written...
 Atom #  9
  -3.49338   0.41919   0.00000   0.00000   0.00000   0.00000   0.00000   0.00000   0.00000   0.00000   0.00000   0.00000 ...
   0.41919   0.00511   0.00000   0.00000   0.00000   0.00000   0.00000   0.00000   0.00000   0.00000   0.00000   0.00000 ...
   0.00000   0.00000  -1.41924   0.00000   0.00000   0.11568   0.00000   0.00000   0.00000   0.00000   0.00000   0.00000 ...
   0.00000   0.00000   0.00000  -1.41924   0.00000   0.00000   0.11568   0.00000   0.00000   0.00000   0.00000   0.00000 ...
   0.00000   0.00000   0.00000   0.00000  -1.41924   0.00000   0.00000   0.11568   0.00000   0.00000   0.00000   0.00000 ...
   0.00000   0.00000   0.11568   0.00000   0.00000   0.01484   0.00000   0.00000   0.00000   0.00000   0.00000   0.00000 ...
   0.00000   0.00000   0.00000   0.11568   0.00000   0.00000   0.01484   0.00000   0.00000   0.00000   0.00000   0.00000 ...
   0.00000   0.00000   0.00000   0.00000   0.11568   0.00000   0.00000   0.01484   0.00000   0.00000   0.00000   0.00000 ...
   0.00000   0.00000   0.00000   0.00000   0.00000   0.00000   0.00000   0.00000  -0.38651   0.00000   0.00000   0.00000 ...
   0.00000   0.00000   0.00000   0.00000   0.00000   0.00000   0.00000   0.00000   0.00000  -0.38651   0.00000   0.00000 ...
   0.00000   0.00000   0.00000   0.00000   0.00000   0.00000   0.00000   0.00000   0.00000   0.00000  -0.38620   0.00000 ...
   0.00000   0.00000   0.00000   0.00000   0.00000   0.00000   0.00000   0.00000   0.00000   0.00000   0.00000  -0.38651 ...
   ...  only 12  components have been written...


 Augmentation waves occupancies Rhoij:
 Atom #  1
   2.00140  -0.00308   0.00000   0.00000   0.00000   0.00000   0.00000   0.00000   0.00000   0.00000   0.00000   0.00000 ...
  -0.00308   0.36710   0.00000   0.00000   0.00000   0.00000   0.00000   0.00000   0.00000   0.00000   0.00000   0.00000 ...
   0.00000   0.00000   2.00403   0.00000   0.00000  -0.00466   0.00000   0.00000   0.00000   0.00000   0.00000  -0.00496 ...
   0.00000   0.00000   0.00000   2.00403   0.00000   0.00000  -0.00466   0.00000  -0.00496   0.00000   0.00000   0.00000 ...
   0.00000   0.00000   0.00000   0.00000   2.00403   0.00000   0.00000  -0.00466   0.00000  -0.00496   0.00000   0.00000 ...
   0.00000   0.00000  -0.00466   0.00000   0.00000   0.00031   0.00000   0.00000   0.00000   0.00000   0.00000   0.00020 ...
   0.00000   0.00000   0.00000  -0.00466   0.00000   0.00000   0.00031   0.00000   0.00020   0.00000   0.00000   0.00000 ...
   0.00000   0.00000   0.00000   0.00000  -0.00466   0.00000   0.00000   0.00031   0.00000   0.00020   0.00000   0.00000 ...
   0.00000   0.00000   0.00000  -0.00496   0.00000   0.00000   0.00020   0.00000   0.17326   0.00000   0.00000   0.00000 ...
   0.00000   0.00000   0.00000   0.00000  -0.00496   0.00000   0.00000   0.00020   0.00000   0.17326   0.00000   0.00000 ...
   0.00000   0.00000   0.00000   0.00000   0.00000   0.00000   0.00000   0.00000   0.00000   0.00000   0.13230   0.00000 ...
   0.00000   0.00000  -0.00496   0.00000   0.00000   0.00020   0.00000   0.00000   0.00000   0.00000   0.00000   0.17326 ...
   ...  only 12  components have been written...
 Atom #  9
   2.00034   0.00457   0.00000   0.00000   0.00000   0.00000   0.00000   0.00000   0.00000   0.00000   0.00000   0.00000 ...
   0.00457   1.30625   0.00000   0.00000   0.00000   0.00000   0.00000   0.00000   0.00000   0.00000   0.00000   0.00000 ...
   0.00000   0.00000   2.00844   0.00000   0.00000   0.06642   0.00000   0.00000   0.00000   0.00000   0.00000   0.00000 ...
   0.00000   0.00000   0.00000   2.00844   0.00000   0.00000   0.06642   0.00000   0.00000   0.00000   0.00000   0.00000 ...
   0.00000   0.00000   0.00000   0.00000   2.00844   0.00000   0.00000   0.06642   0.00000   0.00000   0.00000   0.00000 ...
   0.00000   0.00000   0.06642   0.00000   0.00000   2.23082   0.00000   0.00000   0.00000   0.00000   0.00000   0.00000 ...
   0.00000   0.00000   0.00000   0.06642   0.00000   0.00000   2.23082   0.00000   0.00000   0.00000   0.00000   0.00000 ...
   0.00000   0.00000   0.00000   0.00000   0.06642   0.00000   0.00000   2.23082   0.00000   0.00000   0.00000   0.00000 ...
   0.00000   0.00000   0.00000   0.00000   0.00000   0.00000   0.00000   0.00000   1.06008   0.00000   0.00000   0.00000 ...
   0.00000   0.00000   0.00000   0.00000   0.00000   0.00000   0.00000   0.00000   0.00000   1.06008   0.00000   0.00000 ...
   0.00000   0.00000   0.00000   0.00000   0.00000   0.00000   0.00000   0.00000   0.00000   0.00000   2.77068   0.00000 ...
   0.00000   0.00000   0.00000   0.00000   0.00000   0.00000   0.00000   0.00000   0.00000   0.00000   0.00000   1.06008 ...
   ...  only 12  components have been written...



---OUTPUT-----------------------------------------------------------------------

 Cartesian coordinates (xcart) [bohr]
  4.76531903699491E+00  4.76531903699491E+00  4.76531903699491E+00
  1.42959571109847E+01  1.42959571109847E+01  1.42959571109847E+01
  9.53063807398983E+00  1.43591460108630E+01  9.53063807398983E+00
  9.53063807398983E+00  9.53063807398983E+00  4.70213013711661E+00
  9.53063807398983E+00  9.53063807398983E+00  1.43591460108630E+01
  9.53063807398983E+00  4.70213013711661E+00  9.53063807398983E+00
  1.43591460108630E+01  9.53063807398983E+00  9.53063807398983E+00
  4.70213013711661E+00  9.53063807398983E+00  9.53063807398983E+00
  7.49947440907269E-19  1.83871688333977E-18  7.83829641059790E-18
 Reduced coordinates (xred)
  2.50000000000000E-01  2.50000000000000E-01  2.50000000000000E-01
  7.50000000000000E-01  7.50000000000000E-01  7.50000000000000E-01
  7.53315040367064E-01  2.46684959632936E-01  7.53315040367064E-01
  2.46684959632936E-01  2.46684959632936E-01  7.53315040367064E-01
  7.53315040367064E-01  7.53315040367064E-01  2.46684959632936E-01
  2.46684959632936E-01  7.53315040367064E-01  2.46684959632936E-01
  2.46684959632936E-01  7.53315040367064E-01  7.53315040367064E-01
  7.53315040367064E-01  2.46684959632936E-01  2.46684959632936E-01
  4.68335162017817E-19  3.54096279586233E-19 -2.75408217455959E-19
 Cartesian forces (fcart) [Ha/bohr]; max,rms= 9.73749E-02 4.59030E-02 (free atoms)
 -1.54197641766601E-18 -7.70988206120764E-19  2.39427527709065E-18
 -1.54197642851498E-18 -7.70988216969731E-19  2.39427529517227E-18
  3.55072244300387E-18 -9.73749093924532E-02 -2.69842357996291E-18
  1.32192409430106E-18 -3.63488872893681E-18  9.73749093924531E-02
  3.04218614722365E-19 -2.61718324935811E-18 -9.73749093924531E-02
 -8.10180559629040E-19  9.73749093924532E-02  1.66247942267000E-18
 -9.73749093924531E-02  9.03180620975354E-18 -7.40851913516733E-18
  9.73749093924531E-02 -3.63488872893681E-18  5.25817580352302E-18
 -1.54197642309050E-18 -7.70988211545248E-19  2.39427528613146E-18
 Reduced forces (fred)
 -1.54709615636011E-17 -8.12295196005060E-18  2.20440287072538E-17
 -1.54709616325328E-17 -8.12295202898233E-18  2.20440289140490E-17
  9.28045018907024E-01 -8.12295199451646E-18  9.28045018907024E-01
 -9.28045018907024E-01 -9.28045018907024E-01  2.20440288106514E-17
  9.28045018907024E-01  9.28045018907024E-01  2.20440288106514E-17
 -9.28045018907024E-01 -8.12295199451646E-18 -9.28045018907024E-01
 -1.54709615980669E-17  9.28045018907024E-01  9.28045018907024E-01
 -1.54709615980669E-17 -9.28045018907024E-01 -9.28045018907024E-01
 -1.54709615980669E-17 -8.12295199451647E-18  2.20440288106514E-17
 Total energy (etotal) [Ha]= -1.61024934854485E+02

 Difference of energy with previous step (new-old):
           Absolute (Ha)=-1.17714E-01
           Relative     =-7.31298E-04

--- Iteration: (   3/1000) Internal Cycle: (1/1)
--------------------------------------------------------------------------------

---SELF-CONSISTENT-FIELD CONVERGENCE--------------------------------------------

--- !BeginCycle
iteration_state: {dtset: 1, itime: 3, icycle: 1, }
solver: {iscf: 17, nstep: 2500, nline: 4, wfoptalg: 10, }
tolerances: {toldff: 1.00E-08, }
...

     iter   Etot(hartree)      deltaE(h)  residm     nres2    diffor    maxfor
 ETOT  1  -161.91816514014    -1.619E+02 2.721E-03 1.141E+02 9.447E-01 1.042E+00
 ETOT  2  -161.13460271113     7.836E-01 2.644E-03 5.683E+00 9.854E-01 5.673E-02
 ETOT  3  -161.11481220445     1.979E-02 1.319E-03 6.248E-01 3.248E-02 8.921E-02
 ETOT  4  -161.11315758615     1.655E-03 3.831E-04 7.637E-02 7.282E-02 1.639E-02
 ETOT  5  -161.11349064770    -3.331E-04 9.601E-05 1.287E-02 7.222E-03 2.361E-02
 ETOT  6  -161.11351156190    -2.091E-05 1.087E-04 1.805E-03 3.284E-03 2.033E-02
 ETOT  7  -161.11351758034    -6.018E-06 5.821E-05 6.547E-05 1.128E-04 2.021E-02
 ETOT  8  -161.11351825437    -6.740E-07 1.842E-04 1.008E-05 5.068E-04 1.971E-02
 ETOT  9  -161.11351840407    -1.497E-07 1.838E-04 4.846E-07 8.647E-05 1.979E-02
 ETOT 10  -161.11351845690    -5.283E-08 6.177E-04 5.655E-08 6.384E-06 1.979E-02
 ETOT 11  -161.11351849175    -3.485E-08 4.444E-04 3.260E-09 4.772E-06 1.979E-02
 ETOT 12  -161.11351851041    -1.866E-08 1.289E-03 5.393E-10 2.210E-06 1.979E-02
 ETOT 13  -161.11351852654    -1.613E-08 5.440E-04 7.143E-11 5.981E-07 1.979E-02
 ETOT 14  -161.11351853366    -7.118E-09 1.270E-03 3.231E-11 7.306E-08 1.979E-02
 ETOT 15  -161.11351854154    -7.873E-09 3.346E-04 9.629E-12 2.006E-08 1.979E-02
 ETOT 16  -161.11351854736    -5.824E-09 6.822E-04 1.315E-12 2.947E-08 1.979E-02
 ETOT 17  -161.11351854989    -2.532E-09 1.414E-04 1.200E-13 1.647E-08 1.979E-02
 ETOT 18  -161.11351855039    -4.946E-10 2.770E-04 1.710E-14 9.171E-09 1.979E-02
 ETOT 19  -161.11351855060    -2.180E-10 5.249E-05 1.039E-15 3.898E-09 1.979E-02

 At SCF step   19, forces are converged : 
  for the second time, max diff in force=  3.898E-09 < toldff=  1.000E-08

 Cartesian components of stress tensor (hartree/bohr^3)
  sigma(1 1)= -7.49661521E-04  sigma(3 2)=  0.00000000E+00
  sigma(2 2)= -7.49661521E-04  sigma(3 1)=  0.00000000E+00
  sigma(3 3)= -7.49661521E-04  sigma(2 1)=  0.00000000E+00


--- !ResultsGS
iteration_state: {dtset: 1, itime: 3, icycle: 1, }
comment   : Summary of ground state results
lattice_vectors:
- [  0.0000000,   9.5306381,   9.5306381, ]
- [  9.5306381,   0.0000000,   9.5306381, ]
- [  9.5306381,   9.5306381,   0.0000000, ]
lattice_lengths: [  13.47836,   13.47836,   13.47836, ]
lattice_angles: [ 60.000,  60.000,  60.000, ] # degrees, (23, 13, 12)
lattice_volume:   1.7313941E+03
convergence: {deltae: -2.180E-10, res2:  1.039E-15, residm:  5.249E-05, diffor:  3.898E-09, }
etotal    :  -1.61113519E+02
entropy   :   0.00000000E+00
fermie    :  -7.14145997E-02
cartesian_stress_tensor: # hartree/bohr^3
- [ -7.49661521E-04,   0.00000000E+00,   0.00000000E+00, ]
- [  0.00000000E+00,  -7.49661521E-04,   0.00000000E+00, ]
- [  0.00000000E+00,   0.00000000E+00,  -7.49661521E-04, ]
pressure_GPa:   2.2056E+01
xred      :
- [  2.5000E-01,   2.5000E-01,   2.5000E-01, Cs]
- [  7.5000E-01,   7.5000E-01,   7.5000E-01, Cs]
- [  7.3973E-01,   2.6027E-01,   7.3973E-01,  I]
- [  2.6027E-01,   2.6027E-01,   7.3973E-01,  I]
- [  7.3973E-01,   7.3973E-01,   2.6027E-01,  I]
- [  2.6027E-01,   7.3973E-01,   2.6027E-01,  I]
- [  2.6027E-01,   7.3973E-01,   7.3973E-01,  I]
- [  7.3973E-01,   2.6027E-01,   2.6027E-01,  I]
- [  1.1466E-18,   9.4180E-19,  -1.1953E-18, Hf]
cartesian_forces: # hartree/bohr
- [ -3.85494127E-19,  -1.92747053E-19,   4.17769607E-19, ]
- [ -3.85494113E-19,  -1.92747067E-19,   4.17769636E-19, ]
- [  7.80150328E-19,  -1.97913260E-02,  -7.47874856E-19, ]
- [ -3.34248847E-19,  -2.43992312E-19,   1.97913260E-02, ]
- [ -4.36739365E-19,  -1.41501794E-19,  -1.97913260E-02, ]
- [  1.63970862E-18,   1.97913260E-02,  -1.60743315E-18, ]
- [ -1.97913260E-02,   1.59322168E-18,  -1.36819916E-18, ]
- [  1.97913260E-02,  -2.43992312E-19,   4.69014837E-19, ]
- [ -3.85494106E-19,  -1.92747053E-19,   4.17769578E-19, ]
force_length_stats: {min:   6.00240412E-19, max:   1.97913260E-02, mean:   1.31942173E-02, }
...

 Integrated electronic density in atomic spheres:
 ------------------------------------------------
 Atom  Sphere_radius  Integrated_density
    1        2.20660          5.39234446
    2        2.20660          5.39234446
    3        2.30022          4.12983633
    4        2.30022          4.12983633
    5        2.30022          4.12983633
    6        2.30022          4.12983633
    7        2.30022          4.12983633
    8        2.30022          4.12983633
    9        2.41000          9.68938157

 PAW TEST:
 ==== Compensation charge inside spheres ============
 The following values must be close to each other ...
 Compensation charge over spherical meshes =     -0.633222688647277
 Compensation charge over fine fft grid    =     -0.633228549158869

 ==== Results concerning PAW augmentation regions ====

 Total pseudopotential strength Dij (hartree):
 Atom #  1
   0.43771  -0.14494   0.00000   0.00000   0.00000   0.00000   0.00000   0.00000   0.00000   0.00000   0.00000   0.00000 ...
  -0.14494   0.04365   0.00000   0.00000   0.00000   0.00000   0.00000   0.00000   0.00000   0.00000   0.00000   0.00000 ...
   0.00000   0.00000  -0.09312   0.00000   0.00000  -0.16696   0.00000   0.00000   0.00000   0.00000   0.00000   0.00000 ...
   0.00000   0.00000   0.00000  -0.09312   0.00000   0.00000  -0.16696   0.00000   0.00000   0.00000   0.00000   0.00000 ...
   0.00000   0.00000   0.00000   0.00000  -0.09312   0.00000   0.00000  -0.16696   0.00000   0.00000   0.00000   0.00000 ...
   0.00000   0.00000  -0.16696   0.00000   0.00000   0.40352   0.00000   0.00000   0.00000   0.00000   0.00000  -0.00000 ...
   0.00000   0.00000   0.00000  -0.16696   0.00000   0.00000   0.40352   0.00000  -0.00000   0.00000   0.00000   0.00000 ...
   0.00000   0.00000   0.00000   0.00000  -0.16696   0.00000   0.00000   0.40352   0.00000  -0.00000   0.00000   0.00000 ...
   0.00000   0.00000   0.00000   0.00000   0.00000   0.00000  -0.00000   0.00000   0.00529   0.00000   0.00000   0.00000 ...
   0.00000   0.00000   0.00000   0.00000   0.00000   0.00000   0.00000  -0.00000   0.00000   0.00529   0.00000   0.00000 ...
   0.00000   0.00000   0.00000   0.00000   0.00000   0.00000   0.00000   0.00000   0.00000   0.00000   0.00529   0.00000 ...
   0.00000   0.00000   0.00000   0.00000   0.00000  -0.00000   0.00000   0.00000   0.00000   0.00000   0.00000   0.00529 ...
   ...  only 12  components have been written...
 Atom #  9
  -3.50201   0.42225   0.00000   0.00000   0.00000   0.00000   0.00000   0.00000   0.00000   0.00000   0.00000   0.00000 ...
   0.42225   0.00432   0.00000   0.00000   0.00000   0.00000   0.00000   0.00000   0.00000   0.00000   0.00000   0.00000 ...
   0.00000   0.00000  -1.43089   0.00000   0.00000   0.11817   0.00000   0.00000   0.00000   0.00000   0.00000   0.00000 ...
   0.00000   0.00000   0.00000  -1.43089   0.00000   0.00000   0.11817   0.00000   0.00000   0.00000   0.00000   0.00000 ...
   0.00000   0.00000   0.00000   0.00000  -1.43089   0.00000   0.00000   0.11817   0.00000   0.00000   0.00000   0.00000 ...
   0.00000   0.00000   0.11817   0.00000   0.00000   0.01436   0.00000   0.00000   0.00000   0.00000   0.00000   0.00000 ...
   0.00000   0.00000   0.00000   0.11817   0.00000   0.00000   0.01436   0.00000   0.00000   0.00000   0.00000   0.00000 ...
   0.00000   0.00000   0.00000   0.00000   0.11817   0.00000   0.00000   0.01436   0.00000   0.00000   0.00000   0.00000 ...
   0.00000   0.00000   0.00000   0.00000   0.00000   0.00000   0.00000   0.00000  -0.38894   0.00000   0.00000   0.00000 ...
   0.00000   0.00000   0.00000   0.00000   0.00000   0.00000   0.00000   0.00000   0.00000  -0.38894   0.00000   0.00000 ...
   0.00000   0.00000   0.00000   0.00000   0.00000   0.00000   0.00000   0.00000   0.00000   0.00000  -0.38847   0.00000 ...
   0.00000   0.00000   0.00000   0.00000   0.00000   0.00000   0.00000   0.00000   0.00000   0.00000   0.00000  -0.38894 ...
   ...  only 12  components have been written...


 Augmentation waves occupancies Rhoij:
 Atom #  1
   2.00173  -0.00226   0.00000   0.00000   0.00000   0.00000   0.00000   0.00000   0.00000   0.00000   0.00000   0.00000 ...
  -0.00226   0.36942   0.00000   0.00000   0.00000   0.00000   0.00000   0.00000   0.00000   0.00000   0.00000   0.00000 ...
   0.00000   0.00000   2.00472   0.00000   0.00000  -0.00464   0.00000   0.00000   0.00000   0.00000   0.00000  -0.00114 ...
   0.00000   0.00000   0.00000   2.00472   0.00000   0.00000  -0.00464   0.00000  -0.00114   0.00000   0.00000   0.00000 ...
   0.00000   0.00000   0.00000   0.00000   2.00472   0.00000   0.00000  -0.00464   0.00000  -0.00114   0.00000   0.00000 ...
   0.00000   0.00000  -0.00464   0.00000   0.00000   0.00031   0.00000   0.00000   0.00000   0.00000   0.00000   0.00020 ...
   0.00000   0.00000   0.00000  -0.00464   0.00000   0.00000   0.00031   0.00000   0.00020   0.00000   0.00000   0.00000 ...
   0.00000   0.00000   0.00000   0.00000  -0.00464   0.00000   0.00000   0.00031   0.00000   0.00020   0.00000   0.00000 ...
   0.00000   0.00000   0.00000  -0.00114   0.00000   0.00000   0.00020   0.00000   0.17450   0.00000   0.00000   0.00000 ...
   0.00000   0.00000   0.00000   0.00000  -0.00114   0.00000   0.00000   0.00020   0.00000   0.17450   0.00000   0.00000 ...
   0.00000   0.00000   0.00000   0.00000   0.00000   0.00000   0.00000   0.00000   0.00000   0.00000   0.13191   0.00000 ...
   0.00000   0.00000  -0.00114   0.00000   0.00000   0.00020   0.00000   0.00000   0.00000   0.00000   0.00000   0.17450 ...
   ...  only 12  components have been written...
 Atom #  9
   1.99920  -0.00706   0.00000   0.00000   0.00000   0.00000   0.00000   0.00000   0.00000   0.00000   0.00000   0.00000 ...
  -0.00706   1.14622   0.00000   0.00000   0.00000   0.00000   0.00000   0.00000   0.00000   0.00000   0.00000   0.00000 ...
   0.00000   0.00000   2.00101   0.00000   0.00000   0.00817   0.00000   0.00000   0.00000   0.00000   0.00000   0.00000 ...
   0.00000   0.00000   0.00000   2.00101   0.00000   0.00000   0.00817   0.00000   0.00000   0.00000   0.00000   0.00000 ...
   0.00000   0.00000   0.00000   0.00000   2.00101   0.00000   0.00000   0.00817   0.00000   0.00000   0.00000   0.00000 ...
   0.00000   0.00000   0.00817   0.00000   0.00000   1.70637   0.00000   0.00000   0.00000   0.00000   0.00000   0.00000 ...
   0.00000   0.00000   0.00000   0.00817   0.00000   0.00000   1.70637   0.00000   0.00000   0.00000   0.00000   0.00000 ...
   0.00000   0.00000   0.00000   0.00000   0.00817   0.00000   0.00000   1.70637   0.00000   0.00000   0.00000   0.00000 ...
   0.00000   0.00000   0.00000   0.00000   0.00000   0.00000   0.00000   0.00000   0.78620   0.00000   0.00000   0.00000 ...
   0.00000   0.00000   0.00000   0.00000   0.00000   0.00000   0.00000   0.00000   0.00000   0.78620   0.00000   0.00000 ...
   0.00000   0.00000   0.00000   0.00000   0.00000   0.00000   0.00000   0.00000   0.00000   0.00000   2.07240   0.00000 ...
   0.00000   0.00000   0.00000   0.00000   0.00000   0.00000   0.00000   0.00000   0.00000   0.00000   0.00000   0.78620 ...
   ...  only 12  components have been written...



---OUTPUT-----------------------------------------------------------------------

 Cartesian coordinates (xcart) [bohr]
  4.76531903699491E+00  4.76531903699491E+00  4.76531903699491E+00
  1.42959571109847E+01  1.42959571109847E+01  1.42959571109847E+01
  9.53063807398983E+00  1.41001600384348E+01  9.53063807398983E+00
  9.53063807398983E+00  9.53063807398983E+00  4.96111610954483E+00
  9.53063807398983E+00  9.53063807398983E+00  1.41001600384348E+01
  9.53063807398983E+00  4.96111610954483E+00  9.53063807398983E+00
  1.41001600384348E+01  9.53063807398983E+00  9.53063807398983E+00
  4.96111610954483E+00  9.53063807398983E+00  9.53063807398983E+00
 -2.41581619589279E-18 -4.63735277778086E-19  1.99040453073081E-17
 Reduced coordinates (xred)
  2.50000000000000E-01  2.50000000000000E-01  2.50000000000000E-01
  7.50000000000000E-01  7.50000000000000E-01  7.50000000000000E-01
  7.39728018678820E-01  2.60271981321180E-01  7.39728018678820E-01
  2.60271981321181E-01  2.60271981321181E-01  7.39728018678820E-01
  7.39728018678820E-01  7.39728018678820E-01  2.60271981321180E-01
  2.60271981321181E-01  7.39728018678819E-01  2.60271981321181E-01
  2.60271981321180E-01  7.39728018678820E-01  7.39728018678820E-01
  7.39728018678819E-01  2.60271981321181E-01  2.60271981321181E-01
  1.14662449962666E-18  9.41802859883341E-19 -1.19528181660564E-18
 Cartesian forces (fcart) [Ha/bohr]; max,rms= 1.97913E-02 9.32972E-03 (free atoms)
 -3.85494127470557E-19 -1.92747052886312E-19  4.17769606788813E-19
 -3.85494113005268E-19 -1.92747067351601E-19  4.17769635719391E-19
  7.80150327845833E-19 -1.97913259975512E-02 -7.47874855760222E-19
 -3.34248846505572E-19 -2.43992312153364E-19  1.97913259975512E-02
 -4.36739365039676E-19 -1.41501793619260E-19 -1.97913259975512E-02
  1.63970861897468E-18  1.97913259975512E-02 -1.60743314688907E-18
 -1.97913259975512E-02  1.59322168235755E-18 -1.36819915738562E-18
  1.97913259975512E-02 -2.43992312153364E-19  4.69014837125287E-19
 -3.85494105772624E-19 -1.92747052886312E-19  4.17769577858235E-19
 Reduced forces (fred)
 -2.14460851972961E-18 -3.07605912046839E-19  5.51100740945800E-18
 -2.14460865759304E-18 -3.07606325637144E-19  5.51100740945800E-18
  1.88623965087006E-01 -3.07605843115120E-19  1.88623965087006E-01
 -1.88623965087006E-01 -1.88623965087006E-01  5.51100720266285E-18
  1.88623965087006E-01  1.88623965087006E-01  5.51100720266285E-18
 -1.88623965087006E-01 -3.07605843115123E-19 -1.88623965087006E-01
 -2.14460824400273E-18  1.88623965087006E-01  1.88623965087006E-01
 -2.14460824400274E-18 -1.88623965087006E-01 -1.88623965087006E-01
 -2.14460824400274E-18 -3.07605843115121E-19  5.51100720266285E-18
 Total energy (etotal) [Ha]= -1.61113518550604E+02

 Difference of energy with previous step (new-old):
           Absolute (Ha)=-8.85837E-02
           Relative     =-5.49973E-04

--- Iteration: (   4/1000) Internal Cycle: (1/1)
--------------------------------------------------------------------------------

---SELF-CONSISTENT-FIELD CONVERGENCE--------------------------------------------

--- !BeginCycle
iteration_state: {dtset: 1, itime: 4, icycle: 1, }
solver: {iscf: 17, nstep: 2500, nline: 4, wfoptalg: 10, }
tolerances: {toldff: 1.00E-08, }
...

     iter   Etot(hartree)      deltaE(h)  residm     nres2    diffor    maxfor
 ETOT  1  -161.17086310841    -1.612E+02 9.718E-05 7.667E+00 2.515E-01 2.712E-01
 ETOT  2  -161.12133788587     4.953E-02 2.999E-04 8.428E-01 2.804E-01 9.170E-03
 ETOT  3  -161.11787420741     3.464E-03 3.060E-04 6.534E-02 3.872E-02 2.955E-02
 ETOT  4  -161.11785867770     1.553E-05 5.506E-05 6.542E-03 2.897E-02 5.846E-04
 ETOT  5  -161.11789519878    -3.652E-05 2.237E-05 2.329E-03 2.965E-03 3.550E-03
 ETOT  6  -161.11789671835    -1.520E-06 1.944E-05 1.048E-04 1.116E-03 2.434E-03
 ETOT  7  -161.11789689118    -1.728E-07 5.691E-06 3.113E-05 3.649E-05 2.471E-03
 ETOT  8  -161.11789713222    -2.410E-07 9.392E-06 6.326E-07 7.106E-05 2.400E-03
 ETOT  9  -161.11789716942    -3.720E-08 3.168E-06 1.681E-07 2.370E-05 2.423E-03
 ETOT 10  -161.11789719290    -2.347E-08 5.274E-06 9.786E-09 1.134E-05 2.412E-03
 ETOT 11  -161.11789720877    -1.588E-08 1.794E-06 9.955E-10 4.423E-07 2.413E-03
 ETOT 12  -161.11789721929    -1.051E-08 3.036E-06 2.379E-10 1.262E-06 2.411E-03
 ETOT 13  -161.11789722753    -8.241E-09 1.031E-06 2.735E-11 2.358E-08 2.411E-03
 ETOT 14  -161.11789723326    -5.730E-09 1.764E-06 6.981E-12 9.145E-08 2.411E-03
 ETOT 15  -161.11789723602    -2.760E-09 5.979E-07 3.204E-12 1.445E-08 2.411E-03
 ETOT 16  -161.11789723978    -3.760E-09 1.031E-06 4.505E-13 2.748E-09 2.411E-03
 ETOT 17  -161.11789724146    -1.683E-09 3.489E-07 2.838E-14 1.242E-09 2.411E-03

 At SCF step   17, forces are converged : 
  for the second time, max diff in force=  1.242E-09 < toldff=  1.000E-08

 Cartesian components of stress tensor (hartree/bohr^3)
  sigma(1 1)= -7.14686163E-04  sigma(3 2)=  0.00000000E+00
  sigma(2 2)= -7.14686163E-04  sigma(3 1)=  0.00000000E+00
  sigma(3 3)= -7.14686163E-04  sigma(2 1)=  0.00000000E+00


--- !ResultsGS
iteration_state: {dtset: 1, itime: 4, icycle: 1, }
comment   : Summary of ground state results
lattice_vectors:
- [  0.0000000,   9.5306381,   9.5306381, ]
- [  9.5306381,   0.0000000,   9.5306381, ]
- [  9.5306381,   9.5306381,   0.0000000, ]
lattice_lengths: [  13.47836,   13.47836,   13.47836, ]
lattice_angles: [ 60.000,  60.000,  60.000, ] # degrees, (23, 13, 12)
lattice_volume:   1.7313941E+03
convergence: {deltae: -1.683E-09, res2:  2.838E-14, residm:  3.489E-07, diffor:  1.242E-09, }
etotal    :  -1.61117897E+02
entropy   :   0.00000000E+00
fermie    :  -6.95737951E-02
cartesian_stress_tensor: # hartree/bohr^3
- [ -7.14686163E-04,   0.00000000E+00,   0.00000000E+00, ]
- [  0.00000000E+00,  -7.14686163E-04,   0.00000000E+00, ]
- [  0.00000000E+00,   0.00000000E+00,  -7.14686163E-04, ]
pressure_GPa:   2.1027E+01
xred      :
- [  2.5000E-01,   2.5000E-01,   2.5000E-01, Cs]
- [  7.5000E-01,   7.5000E-01,   7.5000E-01, Cs]
- [  7.3626E-01,   2.6374E-01,   7.3626E-01,  I]
- [  2.6374E-01,   2.6374E-01,   7.3626E-01,  I]
- [  7.3626E-01,   7.3626E-01,   2.6374E-01,  I]
- [  2.6374E-01,   7.3626E-01,   2.6374E-01,  I]
- [  2.6374E-01,   7.3626E-01,   7.3626E-01,  I]
- [  7.3626E-01,   2.6374E-01,   2.6374E-01,  I]
- [  1.3387E-18,   1.0608E-18,  -1.4729E-18, Hf]
cartesian_forces: # hartree/bohr
- [ -0.00000000E+00,  -2.40933816E-20,  -6.21470418E-20, ]
- [ -0.00000000E+00,  -2.40933816E-20,  -6.21470418E-20, ]
- [ -5.24878797E-19,  -2.41117111E-03,   4.62731755E-19, ]
- [ -5.63729535E-20,   3.22795719E-20,   2.41117111E-03, ]
- [  5.63729535E-20,  -8.04663352E-20,  -2.41117111E-03, ]
- [  9.11979277E-20,   2.41117111E-03,  -1.53344969E-19, ]
- [ -2.41117111E-03,  -8.04663352E-20,  -5.77408821E-21, ]
- [  2.41117111E-03,  -1.84560863E-19,   9.83204392E-20, ]
- [ -0.00000000E+00,  -2.40933816E-20,  -6.21470418E-20, ]
force_length_stats: {min:   6.66539259E-20, max:   2.41117111E-03, mean:   1.60744741E-03, }
...

 Integrated electronic density in atomic spheres:
 ------------------------------------------------
 Atom  Sphere_radius  Integrated_density
    1        2.20660          5.39244161
    2        2.20660          5.39244161
    3        2.30022          4.12023574
    4        2.30022          4.12023574
    5        2.30022          4.12023574
    6        2.30022          4.12023574
    7        2.30022          4.12023574
    8        2.30022          4.12023574
    9        2.41000          9.61725225

 PAW TEST:
 ==== Compensation charge inside spheres ============
 The following values must be close to each other ...
 Compensation charge over spherical meshes =     -0.642487544428775
 Compensation charge over fine fft grid    =     -0.642493916275913

 ==== Results concerning PAW augmentation regions ====

 Total pseudopotential strength Dij (hartree):
 Atom #  1
   0.43749  -0.14487   0.00000   0.00000   0.00000   0.00000   0.00000   0.00000   0.00000   0.00000   0.00000   0.00000 ...
  -0.14487   0.04363   0.00000   0.00000   0.00000   0.00000   0.00000   0.00000   0.00000   0.00000   0.00000   0.00000 ...
   0.00000   0.00000  -0.09310   0.00000   0.00000  -0.16698   0.00000   0.00000   0.00000   0.00000   0.00000   0.00000 ...
   0.00000   0.00000   0.00000  -0.09310   0.00000   0.00000  -0.16698   0.00000   0.00000   0.00000   0.00000   0.00000 ...
   0.00000   0.00000   0.00000   0.00000  -0.09310   0.00000   0.00000  -0.16698   0.00000   0.00000   0.00000   0.00000 ...
   0.00000   0.00000  -0.16698   0.00000   0.00000   0.40345   0.00000   0.00000   0.00000   0.00000   0.00000  -0.00000 ...
   0.00000   0.00000   0.00000  -0.16698   0.00000   0.00000   0.40345   0.00000  -0.00000   0.00000   0.00000   0.00000 ...
   0.00000   0.00000   0.00000   0.00000  -0.16698   0.00000   0.00000   0.40345   0.00000  -0.00000   0.00000   0.00000 ...
   0.00000   0.00000   0.00000   0.00000   0.00000   0.00000  -0.00000   0.00000   0.00529   0.00000   0.00000   0.00000 ...
   0.00000   0.00000   0.00000   0.00000   0.00000   0.00000   0.00000  -0.00000   0.00000   0.00529   0.00000   0.00000 ...
   0.00000   0.00000   0.00000   0.00000   0.00000   0.00000   0.00000   0.00000   0.00000   0.00000   0.00529   0.00000 ...
   0.00000   0.00000   0.00000   0.00000   0.00000  -0.00000   0.00000   0.00000   0.00000   0.00000   0.00000   0.00529 ...
   ...  only 12  components have been written...
 Atom #  9
  -3.50409   0.42298   0.00000   0.00000   0.00000   0.00000   0.00000   0.00000   0.00000   0.00000   0.00000   0.00000 ...
   0.42298   0.00413   0.00000   0.00000   0.00000   0.00000   0.00000   0.00000   0.00000   0.00000   0.00000   0.00000 ...
   0.00000   0.00000  -1.43379   0.00000   0.00000   0.11878   0.00000   0.00000   0.00000   0.00000   0.00000   0.00000 ...
   0.00000   0.00000   0.00000  -1.43379   0.00000   0.00000   0.11878   0.00000   0.00000   0.00000   0.00000   0.00000 ...
   0.00000   0.00000   0.00000   0.00000  -1.43379   0.00000   0.00000   0.11878   0.00000   0.00000   0.00000   0.00000 ...
   0.00000   0.00000   0.11878   0.00000   0.00000   0.01424   0.00000   0.00000   0.00000   0.00000   0.00000   0.00000 ...
   0.00000   0.00000   0.00000   0.11878   0.00000   0.00000   0.01424   0.00000   0.00000   0.00000   0.00000   0.00000 ...
   0.00000   0.00000   0.00000   0.00000   0.11878   0.00000   0.00000   0.01424   0.00000   0.00000   0.00000   0.00000 ...
   0.00000   0.00000   0.00000   0.00000   0.00000   0.00000   0.00000   0.00000  -0.38954   0.00000   0.00000   0.00000 ...
   0.00000   0.00000   0.00000   0.00000   0.00000   0.00000   0.00000   0.00000   0.00000  -0.38954   0.00000   0.00000 ...
   0.00000   0.00000   0.00000   0.00000   0.00000   0.00000   0.00000   0.00000   0.00000   0.00000  -0.38905   0.00000 ...
   0.00000   0.00000   0.00000   0.00000   0.00000   0.00000   0.00000   0.00000   0.00000   0.00000   0.00000  -0.38954 ...
   ...  only 12  components have been written...


 Augmentation waves occupancies Rhoij:
 Atom #  1
   2.00176  -0.00218   0.00000   0.00000   0.00000   0.00000   0.00000   0.00000   0.00000   0.00000   0.00000   0.00000 ...
  -0.00218   0.37042   0.00000   0.00000   0.00000   0.00000   0.00000   0.00000   0.00000   0.00000   0.00000   0.00000 ...
   0.00000   0.00000   2.00476   0.00000   0.00000  -0.00464   0.00000   0.00000   0.00000   0.00000   0.00000  -0.00025 ...
   0.00000   0.00000   0.00000   2.00476   0.00000   0.00000  -0.00464   0.00000  -0.00025   0.00000   0.00000   0.00000 ...
   0.00000   0.00000   0.00000   0.00000   2.00476   0.00000   0.00000  -0.00464   0.00000  -0.00025   0.00000   0.00000 ...
   0.00000   0.00000  -0.00464   0.00000   0.00000   0.00031   0.00000   0.00000   0.00000   0.00000   0.00000   0.00020 ...
   0.00000   0.00000   0.00000  -0.00464   0.00000   0.00000   0.00031   0.00000   0.00020   0.00000   0.00000   0.00000 ...
   0.00000   0.00000   0.00000   0.00000  -0.00464   0.00000   0.00000   0.00031   0.00000   0.00020   0.00000   0.00000 ...
   0.00000   0.00000   0.00000  -0.00025   0.00000   0.00000   0.00020   0.00000   0.17465   0.00000   0.00000   0.00000 ...
   0.00000   0.00000   0.00000   0.00000  -0.00025   0.00000   0.00000   0.00020   0.00000   0.17465   0.00000   0.00000 ...
   0.00000   0.00000   0.00000   0.00000   0.00000   0.00000   0.00000   0.00000   0.00000   0.00000   0.13165   0.00000 ...
   0.00000   0.00000  -0.00025   0.00000   0.00000   0.00020   0.00000   0.00000   0.00000   0.00000   0.00000   0.17465 ...
   ...  only 12  components have been written...
 Atom #  9
   1.99898  -0.00922   0.00000   0.00000   0.00000   0.00000   0.00000   0.00000   0.00000   0.00000   0.00000   0.00000 ...
  -0.00922   1.11439   0.00000   0.00000   0.00000   0.00000   0.00000   0.00000   0.00000   0.00000   0.00000   0.00000 ...
   0.00000   0.00000   1.99960   0.00000   0.00000  -0.00309   0.00000   0.00000   0.00000   0.00000   0.00000   0.00000 ...
   0.00000   0.00000   0.00000   1.99960   0.00000   0.00000  -0.00309   0.00000   0.00000   0.00000   0.00000   0.00000 ...
   0.00000   0.00000   0.00000   0.00000   1.99960   0.00000   0.00000  -0.00309   0.00000   0.00000   0.00000   0.00000 ...
   0.00000   0.00000  -0.00309   0.00000   0.00000   1.59679   0.00000   0.00000   0.00000   0.00000   0.00000   0.00000 ...
   0.00000   0.00000   0.00000  -0.00309   0.00000   0.00000   1.59679   0.00000   0.00000   0.00000   0.00000   0.00000 ...
   0.00000   0.00000   0.00000   0.00000  -0.00309   0.00000   0.00000   1.59679   0.00000   0.00000   0.00000   0.00000 ...
   0.00000   0.00000   0.00000   0.00000   0.00000   0.00000   0.00000   0.00000   0.73479   0.00000   0.00000   0.00000 ...
   0.00000   0.00000   0.00000   0.00000   0.00000   0.00000   0.00000   0.00000   0.00000   0.73479   0.00000   0.00000 ...
   0.00000   0.00000   0.00000   0.00000   0.00000   0.00000   0.00000   0.00000   0.00000   0.00000   1.92865   0.00000 ...
   0.00000   0.00000   0.00000   0.00000   0.00000   0.00000   0.00000   0.00000   0.00000   0.00000   0.00000   0.73479 ...
   ...  only 12  components have been written...



---OUTPUT-----------------------------------------------------------------------

 Cartesian coordinates (xcart) [bohr]
  4.76531903699491E+00  4.76531903699491E+00  4.76531903699491E+00
  1.42959571109847E+01  1.42959571109847E+01  1.42959571109847E+01
  9.53063807398983E+00  1.40340935384766E+01  9.53063807398983E+00
  9.53063807398983E+00  9.53063807398983E+00  5.02718260950307E+00
  9.53063807398983E+00  9.53063807398983E+00  1.40340935384766E+01
  9.53063807398983E+00  5.02718260950307E+00  9.53063807398983E+00
  1.40340935384766E+01  9.53063807398983E+00  9.53063807398983E+00
  5.02718260950307E+00  9.53063807398983E+00  9.53063807398983E+00
 -3.92764046238835E-18 -1.27973045648094E-18  2.28686142837621E-17
 Reduced coordinates (xred)
  2.50000000000000E-01  2.50000000000000E-01  2.50000000000000E-01
  7.50000000000000E-01  7.50000000000000E-01  7.50000000000000E-01
  7.36262012549673E-01  2.63737987450327E-01  7.36262012549673E-01
  2.63737987450327E-01  2.63737987450327E-01  7.36262012549673E-01
  7.36262012549673E-01  7.36262012549673E-01  2.63737987450327E-01
  2.63737987450327E-01  7.36262012549673E-01  2.63737987450327E-01
  2.63737987450327E-01  7.36262012549673E-01  7.36262012549673E-01
  7.36262012549673E-01  2.63737987450327E-01  2.63737987450327E-01
  1.33865771061577E-18  1.06082636445084E-18 -1.47293313336774E-18
 Cartesian forces (fcart) [Ha/bohr]; max,rms= 2.41117E-03 1.13664E-03 (free atoms)
 -0.00000000000000E+00 -2.40933816107890E-20 -6.21470417503599E-20
 -0.00000000000000E+00 -2.40933816107890E-20 -6.21470417503599E-20
 -5.24878796732265E-19 -2.41117111001396E-03  4.62731754981905E-19
 -5.63729535395820E-20  3.22795719287930E-20  2.41117111001396E-03
  5.63729535395820E-20 -8.04663351503710E-20 -2.41117111001396E-03
  9.11979277380634E-20  2.41117111001396E-03 -1.53344969488423E-19
 -2.41117111001396E-03 -8.04663351503710E-20 -5.77408821077790E-21
  2.41117111001396E-03 -1.84560862568308E-19  9.83204392071590E-20
 -0.00000000000000E+00 -2.40933816107890E-20 -6.21470417503599E-20
 Reduced forces (fred)
  8.21926262402768E-19  5.92300962291816E-19  2.29625300110952E-19
  8.21926262402768E-19  5.92300962291816E-19  2.29625300110952E-19
  2.29799991840034E-02  5.92300962291816E-19  2.29799991840034E-02
 -2.29799991840034E-02 -2.29799991840034E-02  2.29625300110952E-19
  2.29799991840034E-02  2.29799991840034E-02  2.29625300110952E-19
 -2.29799991840034E-02  5.92300962291816E-19 -2.29799991840034E-02
  8.21926262402768E-19  2.29799991840034E-02  2.29799991840034E-02
  8.21926262402768E-19 -2.29799991840034E-02 -2.29799991840034E-02
  8.21926262402768E-19  5.92300962291816E-19  2.29625300110952E-19
 Total energy (etotal) [Ha]= -1.61117897241460E+02

 Difference of energy with previous step (new-old):
           Absolute (Ha)=-4.37869E-03
           Relative     =-2.71773E-05

--- Iteration: (   5/1000) Internal Cycle: (1/1)
--------------------------------------------------------------------------------

---SELF-CONSISTENT-FIELD CONVERGENCE--------------------------------------------

--- !BeginCycle
iteration_state: {dtset: 1, itime: 5, icycle: 1, }
solver: {iscf: 17, nstep: 2500, nline: 4, wfoptalg: 10, }
tolerances: {toldff: 1.00E-08, }
...

     iter   Etot(hartree)      deltaE(h)  residm     nres2    diffor    maxfor
 ETOT  1  -161.11898906750    -1.611E+02 2.376E-06 1.496E-01 3.501E-02 3.742E-02
 ETOT  2  -161.11805236832     9.367E-04 4.925E-06 2.034E-02 3.977E-02 2.349E-03
 ETOT  3  -161.11796203823     9.033E-05 6.087E-06 1.239E-03 6.141E-03 3.792E-03
 ETOT  4  -161.11796365652    -1.618E-06 1.650E-06 1.424E-04 4.083E-03 2.906E-04
 ETOT  5  -161.11796432089    -6.644E-07 2.869E-07 5.158E-05 4.972E-04 2.066E-04
 ETOT  6  -161.11796442654    -1.057E-07 3.271E-07 1.620E-06 1.461E-04 6.056E-05
 ETOT  7  -161.11796443735    -1.082E-08 1.325E-07 6.302E-07 1.554E-05 4.502E-05
 ETOT  8  -161.11796445922    -2.187E-08 1.623E-07 1.397E-08 4.956E-06 4.006E-05
 ETOT  9  -161.11796446273    -3.514E-09 7.455E-08 3.237E-09 5.070E-06 4.513E-05
 ETOT 10  -161.11796446485    -2.120E-09 9.205E-08 2.451E-10 1.339E-06 4.379E-05
 ETOT 11  -161.11796446646    -1.613E-09 4.308E-08 1.889E-11 1.952E-07 4.360E-05
 ETOT 12  -161.11796446753    -1.062E-09 5.329E-08 3.507E-12 1.382E-07 4.346E-05
 ETOT 13  -161.11796446823    -7.070E-10 2.569E-08 3.803E-13 1.288E-08 4.345E-05
 ETOT 14  -161.11796446878    -5.426E-10 3.097E-08 8.653E-14 6.618E-09 4.344E-05
 ETOT 15  -161.11796446904    -2.661E-10 1.706E-08 4.044E-14 5.366E-09 4.344E-05

 At SCF step   15, forces are converged : 
  for the second time, max diff in force=  5.366E-09 < toldff=  1.000E-08

 Cartesian components of stress tensor (hartree/bohr^3)
  sigma(1 1)= -7.10543415E-04  sigma(3 2)=  0.00000000E+00
  sigma(2 2)= -7.10543415E-04  sigma(3 1)=  0.00000000E+00
  sigma(3 3)= -7.10543415E-04  sigma(2 1)=  0.00000000E+00


--- !ResultsGS
iteration_state: {dtset: 1, itime: 5, icycle: 1, }
comment   : Summary of ground state results
lattice_vectors:
- [  0.0000000,   9.5306381,   9.5306381, ]
- [  9.5306381,   0.0000000,   9.5306381, ]
- [  9.5306381,   9.5306381,   0.0000000, ]
lattice_lengths: [  13.47836,   13.47836,   13.47836, ]
lattice_angles: [ 60.000,  60.000,  60.000, ] # degrees, (23, 13, 12)
lattice_volume:   1.7313941E+03
convergence: {deltae: -2.661E-10, res2:  4.044E-14, residm:  1.706E-08, diffor:  5.366E-09, }
etotal    :  -1.61117964E+02
entropy   :   0.00000000E+00
fermie    :  -6.92920507E-02
cartesian_stress_tensor: # hartree/bohr^3
- [ -7.10543415E-04,   0.00000000E+00,   0.00000000E+00, ]
- [  0.00000000E+00,  -7.10543415E-04,   0.00000000E+00, ]
- [  0.00000000E+00,   0.00000000E+00,  -7.10543415E-04, ]
pressure_GPa:   2.0905E+01
xred      :
- [  2.5000E-01,   2.5000E-01,   2.5000E-01, Cs]
- [  7.5000E-01,   7.5000E-01,   7.5000E-01, Cs]
- [  7.3578E-01,   2.6422E-01,   7.3578E-01,  I]
- [  2.6422E-01,   2.6422E-01,   7.3578E-01,  I]
- [  7.3578E-01,   7.3578E-01,   2.6422E-01,  I]
- [  2.6422E-01,   7.3578E-01,   2.6422E-01,  I]
- [  2.6422E-01,   7.3578E-01,   7.3578E-01,  I]
- [  7.3578E-01,   2.6422E-01,   2.6422E-01,  I]
- [  1.3459E-18,   1.0743E-18,  -1.4931E-18, Hf]
cartesian_forces: # hartree/bohr
- [  4.62889252E-25,   7.52455286E-22,  -8.19204862E-22, ]
- [  3.47166939E-25,   7.53033898E-22,  -8.20246363E-22, ]
- [ -8.47432724E-21,  -4.34362638E-05,   7.65454376E-21, ]
- [ -1.60235881E-24,   6.36020886E-22,   4.34362638E-05, ]
- [  6.23372571E-21,  -5.36230789E-21,  -4.34362638E-05, ]
- [ -6.01787687E-22,   4.34362638E-05,  -2.17995787E-22, ]
- [ -4.34362638E-05,   2.66425419E-22,  -3.33290718E-22, ]
- [  4.34362638E-05,   1.23941093E-21,  -1.30627623E-21, ]
- [ -0.00000000E+00,   7.52918175E-22,  -8.19783474E-22, ]
force_length_stats: {min:   1.11233348E-21, max:   4.34362638E-05, mean:   2.89575092E-05, }
...

 Integrated electronic density in atomic spheres:
 ------------------------------------------------
 Atom  Sphere_radius  Integrated_density
    1        2.20660          5.39244704
    2        2.20660          5.39244704
    3        2.30022          4.11950542
    4        2.30022          4.11950542
    5        2.30022          4.11950542
    6        2.30022          4.11950542
    7        2.30022          4.11950542
    8        2.30022          4.11950542
    9        2.41000          9.60784623

 PAW TEST:
 ==== Compensation charge inside spheres ============
 The following values must be close to each other ...
 Compensation charge over spherical meshes =     -0.643853749088930
 Compensation charge over fine fft grid    =     -0.643860984397938

 ==== Results concerning PAW augmentation regions ====

 Total pseudopotential strength Dij (hartree):
 Atom #  1
   0.43746  -0.14486   0.00000   0.00000   0.00000   0.00000   0.00000   0.00000   0.00000   0.00000   0.00000   0.00000 ...
  -0.14486   0.04363   0.00000   0.00000   0.00000   0.00000   0.00000   0.00000   0.00000   0.00000   0.00000   0.00000 ...
   0.00000   0.00000  -0.09309   0.00000   0.00000  -0.16698   0.00000   0.00000   0.00000   0.00000   0.00000   0.00000 ...
   0.00000   0.00000   0.00000  -0.09309   0.00000   0.00000  -0.16698   0.00000   0.00000   0.00000   0.00000   0.00000 ...
   0.00000   0.00000   0.00000   0.00000  -0.09309   0.00000   0.00000  -0.16698   0.00000   0.00000   0.00000   0.00000 ...
   0.00000   0.00000  -0.16698   0.00000   0.00000   0.40345   0.00000   0.00000   0.00000   0.00000   0.00000  -0.00000 ...
   0.00000   0.00000   0.00000  -0.16698   0.00000   0.00000   0.40345   0.00000  -0.00000   0.00000   0.00000   0.00000 ...
   0.00000   0.00000   0.00000   0.00000  -0.16698   0.00000   0.00000   0.40345   0.00000  -0.00000   0.00000   0.00000 ...
   0.00000   0.00000   0.00000   0.00000   0.00000   0.00000  -0.00000   0.00000   0.00529   0.00000   0.00000   0.00000 ...
   0.00000   0.00000   0.00000   0.00000   0.00000   0.00000   0.00000  -0.00000   0.00000   0.00529   0.00000   0.00000 ...
   0.00000   0.00000   0.00000   0.00000   0.00000   0.00000   0.00000   0.00000   0.00000   0.00000   0.00529   0.00000 ...
   0.00000   0.00000   0.00000   0.00000   0.00000  -0.00000   0.00000   0.00000   0.00000   0.00000   0.00000   0.00529 ...
   ...  only 12  components have been written...
 Atom #  9
  -3.50437   0.42308   0.00000   0.00000   0.00000   0.00000   0.00000   0.00000   0.00000   0.00000   0.00000   0.00000 ...
   0.42308   0.00411   0.00000   0.00000   0.00000   0.00000   0.00000   0.00000   0.00000   0.00000   0.00000   0.00000 ...
   0.00000   0.00000  -1.43418   0.00000   0.00000   0.11886   0.00000   0.00000   0.00000   0.00000   0.00000   0.00000 ...
   0.00000   0.00000   0.00000  -1.43418   0.00000   0.00000   0.11886   0.00000   0.00000   0.00000   0.00000   0.00000 ...
   0.00000   0.00000   0.00000   0.00000  -1.43418   0.00000   0.00000   0.11886   0.00000   0.00000   0.00000   0.00000 ...
   0.00000   0.00000   0.11886   0.00000   0.00000   0.01422   0.00000   0.00000   0.00000   0.00000   0.00000   0.00000 ...
   0.00000   0.00000   0.00000   0.11886   0.00000   0.00000   0.01422   0.00000   0.00000   0.00000   0.00000   0.00000 ...
[...]
       0.250000000000      0.250000000000      0.250000000000
       0.750000000000      0.750000000000      0.750000000000
       0.735772347980      0.264227652020      0.735772347980
       0.264227652020      0.264227652020      0.735772347980
       0.735772347980      0.735772347980      0.264227652020
       0.264227652020      0.735772347980      0.264227652020
       0.264227652020      0.735772347980      0.735772347980
       0.735772347980      0.264227652020      0.264227652020
       0.000000000000      0.000000000000     -0.000000000000
 rms dE/dt=  1.0241E-06; max dE/dt=  1.5361E-06; dE/dt below (all hartree)
    1       0.000000000000     -0.000000000000      0.000000000000
    2      -0.000000000000     -0.000000000000      0.000000000000
    3       0.000001536141      0.000000000000      0.000001536141
    4      -0.000001536141     -0.000001536141      0.000000000000
    5       0.000001536141      0.000001536141      0.000000000000
    6      -0.000001536141      0.000000000000     -0.000001536141
    7      -0.000000000000      0.000001536141      0.000001536141
    8       0.000000000000     -0.000001536141     -0.000001536141
    9       0.000000000000      0.000000000000      0.000000000000

 cartesian coordinates (angstrom) at end:
    1      2.52169822603776     2.52169822603776     2.52169822603776
    2      7.56509467811327     7.56509467811327     7.56509467811327
    3      5.04339645207551     7.42158329867786     5.04339645207551
    4      5.04339645207551     5.04339645207551     2.66520960547316
    5      5.04339645207551     5.04339645207551     7.42158329867786
    6      5.04339645207551     2.66520960547316     5.04339645207551
    7      7.42158329867786     5.04339645207551     5.04339645207551
    8      2.66520960547316     5.04339645207551     5.04339645207551
    9     -0.00000000000000    -0.00000000000000     0.00000000000000

 cartesian forces (hartree/bohr) at end:
    1      0.00000000000000    -0.00000000000000     0.00000000000000
    2      0.00000000000000    -0.00000000000000     0.00000000000000
    3      0.00000000000000    -0.00000016117925     0.00000000000000
    4      0.00000000000000    -0.00000000000000     0.00000016117925
    5      0.00000000000000    -0.00000000000000    -0.00000016117925
    6     -0.00000000000000     0.00000016117925     0.00000000000000
    7     -0.00000016117925     0.00000000000000     0.00000000000000
    8      0.00000016117925     0.00000000000000    -0.00000000000000
    9      0.00000000000000    -0.00000000000000     0.00000000000000
 frms,max,avg= 7.5980629E-08 1.6117925E-07   0.000E+00  0.000E+00  0.000E+00 h/b

 cartesian forces (eV/Angstrom) at end:
    1      0.00000000000000    -0.00000000000000     0.00000000000000
    2      0.00000000000000    -0.00000000000000     0.00000000000000
    3      0.00000000000000    -0.00000828816977     0.00000000000000
    4      0.00000000000000    -0.00000000000000     0.00000828816977
    5      0.00000000000000    -0.00000000000000    -0.00000828816977
    6     -0.00000000000000     0.00000828816977     0.00000000000000
    7     -0.00000828816977     0.00000000000000     0.00000000000000
    8      0.00000828816977     0.00000000000000    -0.00000000000000
    9      0.00000000000000    -0.00000000000000     0.00000000000000
 frms,max,avg= 3.9070807E-06 8.2881698E-06   0.000E+00  0.000E+00  0.000E+00 e/A
 length scales= 16.045663836000 16.045663836000 16.045663836000 bohr
              =  8.490999598708  8.490999598708  8.490999598708 angstroms
 prteigrs : about to open file Cs2TiI6o_EIG
 Fermi (or HOMO) energy (hartree) =  -0.06929   Average Vxc (hartree)=  -0.37152
 Eigenvalues (hartree) for nkpt=  10  k points:
 kpt#   1, nband= 42, wtk=  0.09375, kpt= -0.1250 -0.2500  0.0000 (reduced coord)
  -2.35349   -1.20553   -1.20553   -1.20553   -0.83493   -0.83344   -0.57991   -0.54008
  -0.53223   -0.53165   -0.51569   -0.51334   -0.37472   -0.37237   -0.36861   -0.36418
  -0.36354   -0.35890   -0.29585   -0.23382   -0.21804   -0.21789   -0.21430   -0.19729
  -0.19683   -0.15672   -0.15559   -0.15446   -0.14924   -0.13508   -0.10900   -0.08954
  -0.08940   -0.08115   -0.07987   -0.07152   -0.01789    0.00049    0.00089    0.06326
   0.06389    0.07738
 prteigrs : prtvol=0 or 1, do not print more k-points.


--- !EnergyTerms
iteration_state     : {dtset: 1, itime: 6, icycle: 1, }
comment             : Components of total free energy in Hartree
kinetic             :  3.78178447614189E+01
hartree             :  2.11759258646353E+01
xc                  : -5.94832038543730E+01
Ewald energy        : -1.41651400746690E+02
psp_core            :  2.89346190466607E+01
local_psp           : -3.70794938261389E+01
spherical_terms     : -1.08322557318716E+01
total_energy        : -1.61117964486359E+02
total_energy_eV     : -4.38424277838016E+03
...


--- !EnergyTermsDC
iteration_state     : {dtset: 1, itime: 6, icycle: 1, }
comment             : '"Double-counting" decomposition of free energy'
band_energy         : -3.20378076860128E+01
Ewald energy        : -1.41651400746690E+02
psp_core            :  2.89346190466607E+01
xc_dc               : -4.29491627421134E+01
spherical_terms     :  2.65857876400352E+01
total_energy_dc     : -1.61117964488121E+02
total_energy_dc_eV  : -4.38424277842810E+03
...

 rms coord change=  2.1008E-02   atom, delta coord (reduced):
     1        0.000000000000      0.000000000000      0.000000000000
     2        0.000000000000      0.000000000000      0.000000000000
     3       -0.025729229750      0.025729229750     -0.025729229750
     4        0.025729229750      0.025729229750     -0.025729229750
     5       -0.025729229750     -0.025729229750      0.025729229750
     6        0.025729229750     -0.025729229750      0.025729229750
     7        0.025729229750     -0.025729229750     -0.025729229750
     8       -0.025729229750      0.025729229750      0.025729229750
     9        0.000000000000      0.000000000000     -0.000000000000

 Cartesian components of stress tensor (hartree/bohr^3)
  sigma(1 1)= -7.10469084E-04  sigma(3 2)=  0.00000000E+00
  sigma(2 2)= -7.10469084E-04  sigma(3 1)=  0.00000000E+00
  sigma(3 3)= -7.10469084E-04  sigma(2 1)=  0.00000000E+00

-Cartesian components of stress tensor (GPa)         [Pressure=  2.0903E+01 GPa]
- sigma(1 1)= -2.09027186E+01  sigma(3 2)=  0.00000000E+00
- sigma(2 2)= -2.09027186E+01  sigma(3 1)=  0.00000000E+00
- sigma(3 3)= -2.09027186E+01  sigma(2 1)=  0.00000000E+00

== END DATASET(S) ==============================================================
================================================================================
  
 -outvars: echo values of variables after computation  --------
            acell      1.6045663836E+01  1.6045663836E+01  1.6045663836E+01 Bohr
              amu      1.32905430E+02  1.26904470E+02  1.78490000E+02
           diemac      1.20000000E+01
          dilatmx      1.15000000E+00
             ecut      1.60000000E+01 Hartree
           ecutsm      5.00000000E-01 Hartree
           etotal     -1.6111796449E+02
            fcart      2.9519355893E-24 -2.9736335230E-24  5.4615966971E-24
                       2.9374703001E-24 -2.9447029447E-24  5.4760619862E-24
                       6.6937286513E-24 -1.6117925377E-07  1.7125709905E-24
                       3.1708542648E-25 -3.1708542648E-25  1.6117925377E-07
                       3.4395400767E-24 -3.4395400767E-24 -1.6117925377E-07
                      -8.1155540648E-25  1.6117925377E-07  9.2178550483E-24
                      -1.6117925377E-07  8.1155540648E-25  1.7125709905E-24
                       1.6117925377E-07  1.9776050950E-23 -1.7251924553E-23
                       2.9410866224E-24 -2.9410866224E-24  5.4652130194E-24
-          fftalg         112
           ionmov           2
              ixc     -101130
              kpt     -1.25000000E-01 -2.50000000E-01  0.00000000E+00
                      -1.25000000E-01  5.00000000E-01  0.00000000E+00
                      -2.50000000E-01 -3.75000000E-01  0.00000000E+00
                      -1.25000000E-01 -3.75000000E-01  1.25000000E-01
                      -1.25000000E-01  2.50000000E-01  0.00000000E+00
                      -2.50000000E-01  3.75000000E-01  0.00000000E+00
                      -3.75000000E-01  5.00000000E-01  0.00000000E+00
                      -2.50000000E-01  5.00000000E-01  1.25000000E-01
                      -1.25000000E-01  0.00000000E+00  0.00000000E+00
                      -3.75000000E-01  0.00000000E+00  0.00000000E+00
         kptrlatt        4   -4    4     -4    4    4     -4   -4    4
          kptrlen      7.62451046E+01
P           mkmem           3
            natom           9
            nband          42
            ngfft          60      60      60
          ngfftdg          90      90      90
             nkpt          10
            nstep        2500
             nsym          48
            ntime        1000
           ntypat           3
              occ      2.000000  2.000000  2.000000  2.000000  2.000000  2.000000
                       2.000000  2.000000  2.000000  2.000000  2.000000  2.000000
                       2.000000  2.000000  2.000000  2.000000  2.000000  2.000000
                       2.000000  2.000000  2.000000  2.000000  2.000000  2.000000
                       2.000000  2.000000  2.000000  2.000000  2.000000  2.000000
                       2.000000  2.000000  2.000000  2.000000  2.000000  2.000000
                       0.000000  0.000000  0.000000  0.000000  0.000000  0.000000
        optforces           1
        pawecutdg      4.00000000E+01 Hartree
            prtwf           0
            rprim      0.0000000000E+00  5.9396969620E-01  5.9396969620E-01
                       5.9396969620E-01  0.0000000000E+00  5.9396969620E-01
                       5.9396969620E-01  5.9396969620E-01  0.0000000000E+00
           shiftk      5.00000000E-01  5.00000000E-01  5.00000000E-01
          spgroup         225
           strten     -7.1046908365E-04 -7.1046908365E-04 -7.1046908365E-04
                       0.0000000000E+00  0.0000000000E+00  0.0000000000E+00
           symrel      1  0  0   0  1  0   0  0  1      -1  0  0   0 -1  0   0  0 -1
                       0 -1  1   0 -1  0   1 -1  0       0  1 -1   0  1  0  -1  1  0
                      -1  0  0  -1  0  1  -1  1  0       1  0  0   1  0 -1   1 -1  0
                       0  1 -1   1  0 -1   0  0 -1       0 -1  1  -1  0  1   0  0  1
                      -1  0  0  -1  1  0  -1  0  1       1  0  0   1 -1  0   1  0 -1
                       0 -1  1   1 -1  0   0 -1  0       0  1 -1  -1  1  0   0  1  0
                       1  0  0   0  0  1   0  1  0      -1  0  0   0  0 -1   0 -1  0
                       0  1 -1   0  0 -1   1  0 -1       0 -1  1   0  0  1  -1  0  1
                      -1  0  1  -1  1  0  -1  0  0       1  0 -1   1 -1  0   1  0  0
                       0 -1  0   1 -1  0   0 -1  1       0  1  0  -1  1  0   0  1 -1
                       1  0 -1   0  0 -1   0  1 -1      -1  0  1   0  0  1   0 -1  1
                       0  1  0   0  0  1   1  0  0       0 -1  0   0  0 -1  -1  0  0
                       1  0 -1   0  1 -1   0  0 -1      -1  0  1   0 -1  1   0  0  1
                       0 -1  0   0 -1  1   1 -1  0       0  1  0   0  1 -1  -1  1  0
                      -1  0  1  -1  0  0  -1  1  0       1  0 -1   1  0  0   1 -1  0
                       0  1  0   1  0  0   0  0  1       0 -1  0  -1  0  0   0  0 -1
                       0  0 -1   0  1 -1   1  0 -1       0  0  1   0 -1  1  -1  0  1
                       1 -1  0   0 -1  1   0 -1  0      -1  1  0   0  1 -1   0  1  0
                       0  0  1   1  0  0   0  1  0       0  0 -1  -1  0  0   0 -1  0
                      -1  1  0  -1  0  0  -1  0  1       1 -1  0   1  0  0   1  0 -1
                       0  0  1   0  1  0   1  0  0       0  0 -1   0 -1  0  -1  0  0
                       1 -1  0   0 -1  0   0 -1  1      -1  1  0   0  1  0   0  1 -1
                       0  0 -1   1  0 -1   0  1 -1       0  0  1  -1  0  1   0 -1  1
                      -1  1  0  -1  0  1  -1  0  0       1 -1  0   1  0 -1   1  0  0
           toldff      1.00000000E-08
           tolmxf      1.00000000E-05
            typat      1  1  2  2  2  2  2  2  3
           useylm           1
              wtk        0.09375    0.09375    0.09375    0.18750    0.09375    0.09375
                         0.09375    0.18750    0.03125    0.03125
           xangst      2.5216982260E+00  2.5216982260E+00  2.5216982260E+00
                       7.5650946781E+00  7.5650946781E+00  7.5650946781E+00
                       5.0433964521E+00  7.4215832987E+00  5.0433964521E+00
                       5.0433964521E+00  5.0433964521E+00  2.6652096055E+00
                       5.0433964521E+00  5.0433964521E+00  7.4215832987E+00
                       5.0433964521E+00  2.6652096055E+00  5.0433964521E+00
                       7.4215832987E+00  5.0433964521E+00  5.0433964521E+00
                       2.6652096055E+00  5.0433964521E+00  5.0433964521E+00
                      -2.1127702670E-18 -7.4230447222E-19  1.2208268739E-17
            xcart      4.7653190370E+00  4.7653190370E+00  4.7653190370E+00
                       1.4295957111E+01  1.4295957111E+01  1.4295957111E+01
                       9.5306380740E+00  1.4024759907E+01  9.5306380740E+00
                       9.5306380740E+00  9.5306380740E+00  5.0365162411E+00
                       9.5306380740E+00  9.5306380740E+00  1.4024759907E+01
                       9.5306380740E+00  5.0365162411E+00  9.5306380740E+00
                       1.4024759907E+01  9.5306380740E+00  9.5306380740E+00
                       5.0365162411E+00  9.5306380740E+00  9.5306380740E+00
                      -3.9925571864E-18 -1.4027521597E-18  2.3070284474E-17
             xred      2.5000000000E-01  2.5000000000E-01  2.5000000000E-01
                       7.5000000000E-01  7.5000000000E-01  7.5000000000E-01
                       7.3577234798E-01  2.6422765202E-01  7.3577234798E-01
                       2.6422765202E-01  2.6422765202E-01  7.3577234798E-01
                       7.3577234798E-01  7.3577234798E-01  2.6422765202E-01
                       2.6422765202E-01  7.3577234798E-01  2.6422765202E-01
                       2.6422765202E-01  7.3577234798E-01  7.3577234798E-01
                       7.3577234798E-01  2.6422765202E-01  2.6422765202E-01
                       1.3461894839E-18  1.0744547893E-18 -1.4933729305E-18
            znucl       55.00000   53.00000   72.00000

================================================================================


- Timing analysis has been suppressed with timopt=0



================================================================================

 Suggested references for the acknowledgment of ABINIT usage.

 The users of ABINIT have little formal obligations with respect to the ABINIT group
 (those specified in the GNU General Public License, http://www.gnu.org/copyleft/gpl.txt).
 However, it is common practice in the scientific literature,
 to acknowledge the efforts of people that have made the research possible.
 In this spirit, please find below suggested citations of work written by ABINIT developers,
 corresponding to implementations inside of ABINIT that you have used in the present run.
 Note also that it will be of great value to readers of publications presenting these results,
 to read papers enabling them to understand the theoretical formalism and details
 of the ABINIT implementation.
 For information on why they are suggested, see also https://docs.abinit.org/theory/acknowledgments.
-
- [1] Implementation of the Projector Augmented-Wave Method in the ABINIT code.
- M. Torrent, F. Jollet, F. Bottin, G. Zerah, and X. Gonze Comput. Mat. Science 42, 337, (2008).
- Comment: PAW calculations. Strong suggestion to cite this paper.
- DOI and bibtex: see https://docs.abinit.org/theory/bibliography/#torrent2008
-
- [2] Libxc: A library of exchange and correlation functionals for density functional theory.
- M.A.L. Marques, M.J.T. Oliveira, T. Burnus, Computer Physics Communications 183, 2227 (2012).
- Comment: to be cited when LibXC is used (negative value of ixc)
- Strong suggestion to cite this paper.
- DOI and bibtex: see https://docs.abinit.org/theory/bibliography/#marques2012
-
- [3] The Abinit project: Impact, environment and recent developments.
- Computer Phys. Comm. 248, 107042 (2020).
- X.Gonze, B. Amadon, G. Antonius, F.Arnardi, L.Baguet, J.-M.Beuken,
- J.Bieder, F.Bottin, J.Bouchet, E.Bousquet, N.Brouwer, F.Bruneval,
- G.Brunin, T.Cavignac, J.-B. Charraud, Wei Chen, M.Cote, S.Cottenier,
- J.Denier, G.Geneste, Ph.Ghosez, M.Giantomassi, Y.Gillet, O.Gingras,
- D.R.Hamann, G.Hautier, Xu He, N.Helbig, N.Holzwarth, Y.Jia, F.Jollet,
- W.Lafargue-Dit-Hauret, K.Lejaeghere, M.A.L.Marques, A.Martin, C.Martins,
- H.P.C. Miranda, F.Naccarato, K. Persson, G.Petretto, V.Planes, Y.Pouillon,
- S.Prokhorenko, F.Ricci, G.-M.Rignanese, A.H.Romero, M.M.Schmitt, M.Torrent,
- M.J.van Setten, B.Van Troeye, M.J.Verstraete, G.Zerah and J.W.Zwanzig
- Comment: the fifth generic paper describing the ABINIT project.
- Note that a version of this paper, that is not formatted for Computer Phys. Comm. 
- is available at https://www.abinit.org/sites/default/files/ABINIT20.pdf .
- The licence allows the authors to put it on the Web.
- DOI and bibtex: see https://docs.abinit.org/theory/bibliography/#gonze2020
-
- [4] ABINIT: Overview, and focus on selected capabilities
- J. Chem. Phys. 152, 124102 (2020).
- A. Romero, D.C. Allan, B. Amadon, G. Antonius, T. Applencourt, L.Baguet,
- J.Bieder, F.Bottin, J.Bouchet, E.Bousquet, F.Bruneval,
- G.Brunin, D.Caliste, M.Cote,
- J.Denier, C. Dreyer, Ph.Ghosez, M.Giantomassi, Y.Gillet, O.Gingras,
- D.R.Hamann, G.Hautier, F.Jollet, G. Jomard,
- A.Martin, 
- H.P.C. Miranda, F.Naccarato, G.Petretto, N.A. Pike, V.Planes,
- S.Prokhorenko, T. Rangel, F.Ricci, G.-M.Rignanese, M.Royo, M.Stengel, M.Torrent,
- M.J.van Setten, B.Van Troeye, M.J.Verstraete, J.Wiktor, J.W.Zwanziger, and X.Gonze.
- Comment: a global overview of ABINIT, with focus on selected capabilities .
- Note that a version of this paper, that is not formatted for J. Chem. Phys 
- is available at https://www.abinit.org/sites/default/files/ABINIT20_JPC.pdf .
- The licence allows the authors to put it on the Web.
- DOI and bibtex: see https://docs.abinit.org/theory/bibliography/#romero2020
-
- [5] Recent developments in the ABINIT software package.
- Computer Phys. Comm. 205, 106 (2016).
- X.Gonze, F.Jollet, F.Abreu Araujo, D.Adams, B.Amadon, T.Applencourt,
- C.Audouze, J.-M.Beuken, J.Bieder, A.Bokhanchuk, E.Bousquet, F.Bruneval
- D.Caliste, M.Cote, F.Dahm, F.Da Pieve, M.Delaveau, M.Di Gennaro,
- B.Dorado, C.Espejo, G.Geneste, L.Genovese, A.Gerossier, M.Giantomassi,
- Y.Gillet, D.R.Hamann, L.He, G.Jomard, J.Laflamme Janssen, S.Le Roux,
- A.Levitt, A.Lherbier, F.Liu, I.Lukacevic, A.Martin, C.Martins,
- M.J.T.Oliveira, S.Ponce, Y.Pouillon, T.Rangel, G.-M.Rignanese,
- A.H.Romero, B.Rousseau, O.Rubel, A.A.Shukri, M.Stankovski, M.Torrent,
- M.J.Van Setten, B.Van Troeye, M.J.Verstraete, D.Waroquier, J.Wiktor,
- B.Xu, A.Zhou, J.W.Zwanziger.
- Comment: the fourth generic paper describing the ABINIT project.
- Note that a version of this paper, that is not formatted for Computer Phys. Comm. 
- is available at https://www.abinit.org/sites/default/files/ABINIT16.pdf .
- The licence allows the authors to put it on the Web.
- DOI and bibtex: see https://docs.abinit.org/theory/bibliography/#gonze2016
-
- Proc.   0 individual time (sec): cpu=        669.0  wall=        669.0

================================================================================

 Calculation completed.
.Delivered   0 WARNINGs and   6 COMMENTs to log file.
+Overall time at end (sec) : cpu=       2673.0  wall=       2676.0
