
.Version 9.2.2 of ABINIT 
.(MPI version, prepared for a x86_64_linux_gnu9.3 computer) 

.Copyright (C) 1998-2020 ABINIT group . 
 ABINIT comes with ABSOLUTELY NO WARRANTY.
 It is free software, and you are welcome to redistribute it
 under certain conditions (GNU General Public License,
 see ~abinit/COPYING or http://www.gnu.org/copyleft/gpl.txt).

 ABINIT is a project of the Universite Catholique de Louvain,
 Corning Inc. and other collaborators, see ~abinit/doc/developers/contributors.txt .
 Please read https://docs.abinit.org/theory/acknowledgments for suggested
 acknowledgments of the ABINIT effort.
 For more information, see https://www.abinit.org .

.Starting date : Fri 25 Nov 2022.
- ( at 15h07 )
  
- input  file    -> Cs2TiI6.in
- output file    -> Cs2TiI6.out
- root for input  files -> Cs2TiI6i
- root for output files -> Cs2TiI6o

- inpspheads : Reading pseudopotential header in XML form from 
-   ../../../Psps_for_tests/ATOMICDATA/Cs.GGA_PBE-JTH.xml
- inpspheads : Reading pseudopotential header in XML form from 
-   ../../../Psps_for_tests/ATOMICDATA/I.GGA_PBE-JTH.xml
- inpspheads : Reading pseudopotential header in XML form from 
-   ../../../Psps_for_tests/ATOMICDATA/Hf.GGA_PBE-JTH.xml
- inpspheads : Reading pseudopotential header in XML form from 
-   ../../../Psps_for_tests/ATOMICDATA/Br.GGA_PBE-JTH.xml

 DATASET    1 : space group I4 m m (#107); Bravais tI (body-center tetrag.)
================================================================================
 Values of the parameters that define the memory need for DATASET  1.
     intxc =       0    ionmov =       2      iscf =      17    lmnmax =      18
     lnmax =       6     mgfft =      60  mpssoang =       3    mqgrid =    3824
     natom =       9  nloc_mem =       2    nspden =       1   nspinor =       1
    nsppol =       1      nsym =       8    n1xccc =       1    ntypat =       4
    occopt =       1   xclevel =       2
-    mband =          42        mffmem =           1         mkmem =           4
       mpw =        9656          nfft =      216000          nkpt =          20
Pmy_natom=         2
 PAW method is used; the additional fine FFT grid is defined by:
   mgfftf=        96    nfftf =    884736
================================================================================
P This job should need less than                     293.810 Mbytes of memory.
  Rough estimation (10% accuracy) of disk space for files :
_ WF disk file :    123.767 Mbytes ; DEN or POT disk file :      6.752 Mbytes.
================================================================================


 DATASET    2 : space group I4 m m (#107); Bravais tI (body-center tetrag.)
================================================================================
 Values of the parameters that define the memory need for DATASET  2.
     intxc =       0    ionmov =       2      iscf =      17    lmnmax =      18
     lnmax =       6     mgfft =      60  mpssoang =       3    mqgrid =    3821
     natom =       9  nloc_mem =       2    nspden =       1   nspinor =       1
    nsppol =       1      nsym =       8    n1xccc =       1    ntypat =       4
    occopt =       1   xclevel =       2
-    mband =          42        mffmem =           1         mkmem =           4
       mpw =        9620          nfft =      216000          nkpt =          20
Pmy_natom=         2
 PAW method is used; the additional fine FFT grid is defined by:
   mgfftf=        96    nfftf =    884736
================================================================================
P This job should need less than                     293.775 Mbytes of memory.
  Rough estimation (10% accuracy) of disk space for files :
_ WF disk file :    123.305 Mbytes ; DEN or POT disk file :      6.752 Mbytes.
================================================================================


 DATASET    3 : space group I4 m m (#107); Bravais tI (body-center tetrag.)
================================================================================
 Values of the parameters that define the memory need for DATASET  3.
     intxc =       0    ionmov =       2      iscf =      17    lmnmax =      18
     lnmax =       6     mgfft =      60  mpssoang =       3    mqgrid =    3817
     natom =       9  nloc_mem =       2    nspden =       1   nspinor =       1
    nsppol =       1      nsym =       8    n1xccc =       1    ntypat =       4
    occopt =       1   xclevel =       2
-    mband =          42        mffmem =           1         mkmem =           4
       mpw =        9586          nfft =      216000          nkpt =          20
Pmy_natom=         2
 PAW method is used; the additional fine FFT grid is defined by:
   mgfftf=        96    nfftf =    884736
================================================================================
P This job should need less than                     293.744 Mbytes of memory.
  Rough estimation (10% accuracy) of disk space for files :
_ WF disk file :    122.869 Mbytes ; DEN or POT disk file :      6.752 Mbytes.
================================================================================


 DATASET    4 : space group I4 m m (#107); Bravais tI (body-center tetrag.)
================================================================================
 Values of the parameters that define the memory need for DATASET  4.
     intxc =       0    ionmov =       2      iscf =      17    lmnmax =      18
     lnmax =       6     mgfft =      60  mpssoang =       3    mqgrid =    3813
     natom =       9  nloc_mem =       2    nspden =       1   nspinor =       1
    nsppol =       1      nsym =       8    n1xccc =       1    ntypat =       4
    occopt =       1   xclevel =       2
-    mband =          42        mffmem =           1         mkmem =           4
       mpw =        9549          nfft =      216000          nkpt =          20
Pmy_natom=         2
 PAW method is used; the additional fine FFT grid is defined by:
   mgfftf=        96    nfftf =    884736
================================================================================
P This job should need less than                     293.706 Mbytes of memory.
  Rough estimation (10% accuracy) of disk space for files :
_ WF disk file :    122.395 Mbytes ; DEN or POT disk file :      6.752 Mbytes.
================================================================================


 DATASET    5 : space group I4 m m (#107); Bravais tI (body-center tetrag.)
================================================================================
 Values of the parameters that define the memory need for DATASET  5.
     intxc =       0    ionmov =       2      iscf =      17    lmnmax =      18
     lnmax =       6     mgfft =      60  mpssoang =       3    mqgrid =    3809
     natom =       9  nloc_mem =       2    nspden =       1   nspinor =       1
    nsppol =       1      nsym =       8    n1xccc =       1    ntypat =       4
    occopt =       1   xclevel =       2
-    mband =          42        mffmem =           1         mkmem =           4
       mpw =        9518          nfft =      216000          nkpt =          20
Pmy_natom=         2
 PAW method is used; the additional fine FFT grid is defined by:
   mgfftf=        96    nfftf =    884736
================================================================================
P This job should need less than                     293.685 Mbytes of memory.
  Rough estimation (10% accuracy) of disk space for files :
_ WF disk file :    121.998 Mbytes ; DEN or POT disk file :      6.752 Mbytes.
================================================================================

--------------------------------------------------------------------------------
------------- Echo of variables that govern the present computation ------------
--------------------------------------------------------------------------------
-
- outvars: echo of selected default values                                      
-   iomode0 =  0 , fftalg0 =112 , wfoptalg0 = 10
-
- outvars: echo of global parameters not present in the input file              
-  max_nthreads =    0
-
 -outvars: echo values of preprocessed input variables --------
            acell1     1.4299578203E+01  1.4313245892E+01  1.4299578203E+01 Bohr
            acell2     1.4285264311E+01  1.4298918318E+01  1.4285264311E+01 Bohr
            acell3     1.4270950419E+01  1.4284590745E+01  1.4270950419E+01 Bohr
            acell4     1.4256636527E+01  1.4270263171E+01  1.4256636527E+01 Bohr
            acell5     1.4242322635E+01  1.4255935598E+01  1.4242322635E+01 Bohr
              amu      1.32905430E+02  1.26904470E+02  1.78490000E+02
                       7.99040000E+01
           diemac      1.20000000E+01
          dilatmx      1.15000000E+00
             ecut      1.60000000E+01 Hartree
           ecutsm      5.00000000E-01 Hartree
-          fftalg         112
          getxred1          0
          getxred2         -1
          getxred3         -1
          getxred4         -1
          getxred5         -1
           ionmov           2
              ixc     -101130
           jdtset        1    2    3    4    5
              kpt      0.00000000E+00 -1.25000000E-01  0.00000000E+00
                       0.00000000E+00 -3.75000000E-01  0.00000000E+00
                       1.25000000E-01 -2.50000000E-01  0.00000000E+00
                       1.25000000E-01 -1.25000000E-01  1.25000000E-01
                       1.25000000E-01  5.00000000E-01  0.00000000E+00
                       2.50000000E-01 -3.75000000E-01  0.00000000E+00
                       1.25000000E-01 -3.75000000E-01  1.25000000E-01
                       2.50000000E-01 -2.50000000E-01  1.25000000E-01
                       2.50000000E-01 -1.25000000E-01  2.50000000E-01
                       1.25000000E-01  2.50000000E-01  0.00000000E+00
                       2.50000000E-01  3.75000000E-01  0.00000000E+00
                       3.75000000E-01  5.00000000E-01  0.00000000E+00
                       1.25000000E-01  3.75000000E-01  1.25000000E-01
                       2.50000000E-01  5.00000000E-01  1.25000000E-01
                       3.75000000E-01 -3.75000000E-01  1.25000000E-01
                       2.50000000E-01 -3.75000000E-01  2.50000000E-01
                       3.75000000E-01 -2.50000000E-01  2.50000000E-01
                       3.75000000E-01 -1.25000000E-01  3.75000000E-01
                       5.00000000E-01  2.50000000E-01  1.25000000E-01
                      -3.75000000E-01  3.75000000E-01  1.25000000E-01
         kptrlatt        4    4   -4     -4    4    4      4   -4    4
          kptrlen1     8.08132396E+01
          kptrlen2     8.07323455E+01
          kptrlen3     8.06514514E+01
          kptrlen4     8.05705572E+01
          kptrlen5     8.04896631E+01
P           mkmem           4
            natom           9
            nband          42
           ndtset           5
            ngfft          60      60      60
          ngfftdg          96      96      96
             nkpt          20
            nstep          50
             nsym           8
            ntime        1000
           ntypat           4
              occ      2.000000  2.000000  2.000000  2.000000  2.000000  2.000000
                       2.000000  2.000000  2.000000  2.000000  2.000000  2.000000
                       2.000000  2.000000  2.000000  2.000000  2.000000  2.000000
                       2.000000  2.000000  2.000000  2.000000  2.000000  2.000000
                       2.000000  2.000000  2.000000  2.000000  2.000000  2.000000
                       2.000000  2.000000  2.000000  2.000000  2.000000  2.000000
                       0.000000  0.000000  0.000000  0.000000  0.000000  0.000000
          optcell           3
        optforces           1
        pawecutdg      4.00000000E+01 Hartree
            prtwf           0
            rprim      0.0000000000E+00  7.0643027442E-01  7.0778264135E-01
                       7.0710678119E-01  0.0000000000E+00  7.0710678119E-01
                       7.0778264135E-01  7.0643027442E-01  0.0000000000E+00
           shiftk     -5.00000000E-01  5.00000000E-01  5.00000000E-01
          spgroup         107
           symrel      1  0  0   0  1  0   0  0  1       0  0  1   0  1  0   1  0  0
                       0 -1  1   0 -1  0   1 -1  0       1 -1  0   0 -1  0   0 -1  1
                       0 -1  1  -1  0  1   0  0  1       0  0  1  -1  0  1   0 -1  1
                       1  0  0   1  0 -1   1 -1  0       1 -1  0   1  0 -1   1  0  0
           toldff      1.00000000E-08
           tolmxf      1.00000000E-05
            typat      1  1  2  4  4  4  4  4  3
           useylm           1
              wtk        0.03125    0.03125    0.06250    0.03125    0.06250    0.06250
                         0.03125    0.06250    0.03125    0.06250    0.06250    0.06250
                         0.03125    0.06250    0.06250    0.03125    0.06250    0.03125
                         0.06250    0.06250
           xangst1     2.6778994730E+00  2.6955027462E+00  2.6778994730E+00
                       8.0336984190E+00  8.0410683169E+00  8.0336984190E+00
                       5.3557989460E+00  7.9090413863E+00  5.3557989460E+00
                       5.3557989460E+00  5.3504204957E+00  2.6010258535E+00
                       5.3557989460E+00  5.3504204957E+00  8.1105720384E+00
                       5.3557989460E+00  2.6578797973E+00  5.3557989460E+00
                       8.1105720384E+00  5.3504204957E+00  5.3557989460E+00
                       2.6010258535E+00  5.3504204957E+00  5.3557989460E+00
                      -2.9764147276E-13  5.9350336027E-02 -2.9764147276E-13
           xangst2     2.6752188929E+00  2.6928045453E+00  2.6752188929E+00
                       8.0256566788E+00  8.0330191995E+00  8.0256566788E+00
                       5.3504377859E+00  7.9011244280E+00  5.3504377859E+00
                       5.3504377859E+00  5.3450647194E+00  2.5984222240E+00
                       5.3504377859E+00  5.3450647194E+00  8.1024533477E+00
                       5.3504377859E+00  2.6552192570E+00  5.3504377859E+00
                       8.1024533477E+00  5.3450647194E+00  5.3504377859E+00
                       2.5984222240E+00  5.3450647194E+00  5.3504377859E+00
                      -2.9734022057E-13  5.9290926281E-02 -2.9734022057E-13
           xangst3     2.6725383129E+00  2.6901063443E+00  2.6725383129E+00
                       8.0176149386E+00  8.0249700820E+00  8.0176149386E+00
                       5.3450766258E+00  7.8932074696E+00  5.3450766258E+00
                       5.3450766258E+00  5.3397089432E+00  2.5958185946E+00
                       5.3450766258E+00  5.3397089432E+00  8.0943346570E+00
                       5.3450766258E+00  2.6525587167E+00  5.3450766258E+00
                       8.0943346570E+00  5.3397089432E+00  5.3450766258E+00
                       2.5958185946E+00  5.3397089432E+00  5.3450766258E+00
                      -2.9704728569E-13  5.9231516535E-02 -2.9704728569E-13
           xangst4     2.6698577328E+00  2.6874081434E+00  2.6698577328E+00
                       8.0095731985E+00  8.0169209646E+00  8.0095731985E+00
                       5.3397154656E+00  7.8852905113E+00  5.3397154656E+00
                       5.3397154656E+00  5.3343531669E+00  2.5932149651E+00
                       5.3397154657E+00  5.3343531669E+00  8.0862159662E+00
                       5.3397154657E+00  2.6498981763E+00  5.3397154657E+00
                       8.0862159662E+00  5.3343531669E+00  5.3397154657E+00
                       2.5932149651E+00  5.3343531669E+00  5.3397154656E+00
                      -2.9674546058E-13  5.9172106790E-02 -2.9674546058E-13
           xangst5     2.6671771528E+00  2.6847099424E+00  2.6671771528E+00
                       8.0015314583E+00  8.0088718472E+00  8.0015314583E+00
                       5.3343543055E+00  7.8773735529E+00  5.3343543055E+00
                       5.3343543055E+00  5.3289973906E+00  2.5906113356E+00
                       5.3343543056E+00  5.3289973906E+00  8.0780972755E+00
                       5.3343543056E+00  2.6472376360E+00  5.3343543056E+00
                       8.0780972755E+00  5.3289973906E+00  5.3343543056E+00
                       2.5906113356E+00  5.3289973906E+00  5.3343543055E+00
                      -2.9644885380E-13  5.9112697044E-02 -2.9644885380E-13
            xcart1     5.0604966153E+00  5.0937619808E+00  5.0604966153E+00
                       1.5181489846E+01  1.5195416935E+01  1.5181489846E+01
                       1.0120993231E+01  1.4945922194E+01  1.0120993231E+01
                       1.0120993231E+01  1.0110829433E+01  4.9152265277E+00
                       1.0120993231E+01  1.0110829433E+01  1.5326759934E+01
                       1.0120993231E+01  5.0226649111E+00  1.0120993231E+01
                       1.5326759934E+01  1.0110829433E+01  1.0120993231E+01
                       4.9152265277E+00  1.0110829433E+01  1.0120993231E+01
                      -5.6246086931E-13  1.1215588099E-01 -5.6246086931E-13
            xcart2     5.0554310532E+00  5.0886631200E+00  5.0554310532E+00
                       1.5166293160E+01  1.5180206307E+01  1.5166293160E+01
                       1.0110862106E+01  1.4930961311E+01  1.0110862106E+01
                       1.0110862106E+01  1.0100708482E+01  4.9103063810E+00
                       1.0110862106E+01  1.0100708482E+01  1.5311417832E+01
                       1.0110862106E+01  5.0176372185E+00  1.0110862106E+01
                       1.5311417832E+01  1.0100708482E+01  1.0110862106E+01
                       4.9103063810E+00  1.0100708482E+01  1.0110862106E+01
                      -5.6189158516E-13  1.1204361284E-01 -5.6189158516E-13
            xcart3     5.0503654910E+00  5.0835642591E+00  5.0503654910E+00
                       1.5151096473E+01  1.5164995680E+01  1.5151096473E+01
                       1.0100730982E+01  1.4916000428E+01  1.0100730982E+01
                       1.0100730982E+01  1.0090587532E+01  4.9053862344E+00
                       1.0100730982E+01  1.0090587532E+01  1.5296075730E+01
                       1.0100730982E+01  5.0126095259E+00  1.0100730982E+01
                       1.5296075730E+01  1.0090587532E+01  1.0100730982E+01
                       4.9053862344E+00  1.0090587532E+01  1.0100730982E+01
                      -5.6133801847E-13  1.1193134469E-01 -5.6133801847E-13
            xcart4     5.0452999288E+00  5.0784653983E+00  5.0452999288E+00
                       1.5135899786E+01  1.5149785052E+01  1.5135899786E+01
                       1.0090599858E+01  1.4901039545E+01  1.0090599858E+01
                       1.0090599858E+01  1.0080466582E+01  4.9004660877E+00
                       1.0090599858E+01  1.0080466582E+01  1.5280733628E+01
                       1.0090599858E+01  5.0075818333E+00  1.0090599858E+01
                       1.5280733628E+01  1.0080466582E+01  1.0090599858E+01
                       4.9004660877E+00  1.0080466582E+01  1.0090599858E+01
                      -5.6076765168E-13  1.1181907654E-01 -5.6076765168E-13
            xcart5     5.0402343666E+00  5.0733665374E+00  5.0402343666E+00
                       1.5120703100E+01  1.5134574425E+01  1.5120703100E+01
                       1.0080468733E+01  1.4886078661E+01  1.0080468733E+01
                       1.0080468733E+01  1.0070345631E+01  4.8955459410E+00
                       1.0080468733E+01  1.0070345631E+01  1.5265391526E+01
                       1.0080468733E+01  5.0025541407E+00  1.0080468733E+01
                       1.5265391526E+01  1.0070345631E+01  1.0080468733E+01
                       4.8955459410E+00  1.0070345631E+01  1.0080468733E+01
                      -5.6020714609E-13  1.1170680839E-01 -5.6020714609E-13
             xred      2.5212512227E-01  2.4787487773E-01  2.5212512227E-01
                       7.5212512227E-01  7.4787487773E-01  7.5212512227E-01
                       7.3977592097E-01  2.6022407903E-01  7.3977592097E-01
                       2.4327743619E-01  2.4236922078E-01  7.5763077922E-01
                       7.5763077922E-01  7.5672256381E-01  2.4327743619E-01
                       2.4860604198E-01  7.5139395802E-01  2.4860604198E-01
                       2.4327743619E-01  7.5672256381E-01  7.5763077922E-01
                       7.5763077922E-01  2.4236922078E-01  2.4327743619E-01
                       5.5513617074E-03 -5.5513617074E-03  5.5513617074E-03
            znucl       55.00000   53.00000   72.00000   35.00000

================================================================================

 chkinp: Checking input parameters for consistency, jdtset=   1.

 chkinp: Checking input parameters for consistency, jdtset=   2.

 chkinp: Checking input parameters for consistency, jdtset=   3.

 chkinp: Checking input parameters for consistency, jdtset=   4.

 chkinp: Checking input parameters for consistency, jdtset=   5.

================================================================================
== DATASET  1 ==================================================================
-   mpi_nproc: 6, omp_nthreads: -1 (-1 if OMP is not activated)


--- !DatasetInfo
iteration_state: {dtset: 1, }
dimensions: {natom: 9, nkpt: 20, mband: 42, nsppol: 1, nspinor: 1, nspden: 1, mpw: 9656, }
cutoff_energies: {ecut:  16.0, pawecutdg:  40.0, }
electrons: {nelect:   7.20000000E+01, charge:   0.00000000E+00, occopt:   1.00000000E+00, tsmear:   1.00000000E-02, }
meta: {optdriver: 0, ionmov: 2, optcell: 3, iscf: 17, paral_kgb: 0, }
...

 Real(R)+Recip(G) space primitive vectors, cartesian coordinates (Bohr,Bohr^-1):
 R(1)=  0.0000000 10.1016550 10.1209932  G(1)= -0.0494023  0.0494968  0.0494023
 R(2)= 10.1209932  0.0000000 10.1209932  G(2)=  0.0494023 -0.0494968  0.0494023
 R(3)= 10.1209932 10.1016550  0.0000000  G(3)=  0.0494023  0.0494968 -0.0494023
 Unit cell volume ucvol=  2.0695160E+03 bohr^3
 Angles (23,13,12)=  5.99683770E+01  6.00632460E+01  5.99683770E+01 degrees

 Coarse grid specifications (used for wave-functions):

 getcut: wavevector=  0.0000  0.0000  0.0000  ngfft=  60  60  60
         ecut(hartree)=     21.160   => boxcut(ratio)=   2.02437

 Fine grid specifications (used for densities):

 getcut: wavevector=  0.0000  0.0000  0.0000  ngfft=  96  96  96
         ecut(hartree)=     52.900   => boxcut(ratio)=   2.04852

--- Pseudopotential description ------------------------------------------------
- pspini: atom type   1  psp file is ../../../Psps_for_tests/ATOMICDATA/Cs.GGA_PBE-JTH.xml
- pspatm: opening atomic psp file    ../../../Psps_for_tests/ATOMICDATA/Cs.GGA_PBE-JTH.xml
- pspatm : Reading pseudopotential header in XML form from ../../../Psps_for_tests/ATOMICDATA/Cs.GGA_PBE-JTH.xml
 Pseudopotential format is: paw10
 basis_size (lnmax)=  6 (lmn_size= 18), orbitals=   0   0   1   1   2   2
 Spheres core radius: rc_sph= 2.20660278
 1 radial meshes are used:
  - mesh 1: r(i)=AA*[exp(BB*(i-1))-1], size=1500 , AA= 0.15922E-03 BB= 0.87573E-02
 Shapefunction is SIN type: shapef(r)=[sin(pi*r/rshp)/(pi*r/rshp)]**2
 Radius for shape functions =  2.00394208
 mmax= 1500
 Radial grid used for partial waves is grid 1
 Radial grid used for projectors is grid 1
 Radial grid used for (t)core density is grid 1
 Radial grid used for Vloc is grid 1
 Radial grid used for pseudo valence density is grid 1
 Mesh size for Vloc has been set to 1341 to avoid numerical noise.
 Compensation charge density is not taken into account in XC energy/potential
 pspatm: atomic psp has been read  and splines computed

- pspini: atom type   2  psp file is ../../../Psps_for_tests/ATOMICDATA/I.GGA_PBE-JTH.xml
- pspatm: opening atomic psp file    ../../../Psps_for_tests/ATOMICDATA/I.GGA_PBE-JTH.xml
- pspatm : Reading pseudopotential header in XML form from ../../../Psps_for_tests/ATOMICDATA/I.GGA_PBE-JTH.xml
 Pseudopotential format is: paw10
 basis_size (lnmax)=  4 (lmn_size=  8), orbitals=   0   0   1   1
 Spheres core radius: rc_sph= 2.30022271
 1 radial meshes are used:
  - mesh 1: r(i)=AA*[exp(BB*(i-1))-1], size=2000 , AA= 0.12610E-03 BB= 0.66836E-02
 Shapefunction is SIN type: shapef(r)=[sin(pi*r/rshp)/(pi*r/rshp)]**2
 Radius for shape functions =  2.10879093
 mmax= 2000
 Radial grid used for partial waves is grid 1
 Radial grid used for projectors is grid 1
 Radial grid used for (t)core density is grid 1
 Radial grid used for Vloc is grid 1
 Radial grid used for pseudo valence density is grid 1
 Mesh size for Vloc has been set to 1792 to avoid numerical noise.
 Compensation charge density is not taken into account in XC energy/potential
 pspatm: atomic psp has been read  and splines computed

- pspini: atom type   3  psp file is ../../../Psps_for_tests/ATOMICDATA/Hf.GGA_PBE-JTH.xml
- pspatm: opening atomic psp file    ../../../Psps_for_tests/ATOMICDATA/Hf.GGA_PBE-JTH.xml
- pspatm : Reading pseudopotential header in XML form from ../../../Psps_for_tests/ATOMICDATA/Hf.GGA_PBE-JTH.xml
 Pseudopotential format is: paw10
 basis_size (lnmax)=  6 (lmn_size= 18), orbitals=   0   0   1   1   2   2
 Spheres core radius: rc_sph= 2.41000000
 1 radial meshes are used:
  - mesh 1: r(i)=AA*[exp(BB*(i-1))-1], size= 972 , AA= 0.19796E-03 BB= 0.14253E-01
 Shapefunction is SIN type: shapef(r)=[sin(pi*r/rshp)/(pi*r/rshp)]**2
 Radius for shape functions =  2.41000000
 mmax=  972
 Radial grid used for partial waves is grid 1
 Radial grid used for projectors is grid 1
 Radial grid used for (t)core density is grid 1
 Radial grid used for Vloc is grid 1
 Radial grid used for pseudo valence density is grid 1
 Mesh size for Vloc has been set to  809 to avoid numerical noise.
 Compensation charge density is not taken into account in XC energy/potential
 pspatm: atomic psp has been read  and splines computed

- pspini: atom type   4  psp file is ../../../Psps_for_tests/ATOMICDATA/Br.GGA_PBE-JTH.xml
- pspatm: opening atomic psp file    ../../../Psps_for_tests/ATOMICDATA/Br.GGA_PBE-JTH.xml
- pspatm : Reading pseudopotential header in XML form from ../../../Psps_for_tests/ATOMICDATA/Br.GGA_PBE-JTH.xml
 Pseudopotential format is: paw10
 basis_size (lnmax)=  4 (lmn_size=  8), orbitals=   0   0   1   1
 Spheres core radius: rc_sph= 2.20000000
 1 radial meshes are used:
  - mesh 1: r(i)=AA*[exp(BB*(i-1))-1], size= 927 , AA= 0.40483E-03 BB= 0.14169E-01
 Shapefunction is BESSEL type: shapef(r,l)=aa(1,l)*jl(q(1,l)*r)+aa(2,l)*jl(q(2,l)*r)
 Radius for shape functions =  2.02066386
 mmax=  927
 Radial grid used for partial waves is grid 1
 Radial grid used for projectors is grid 1
 Radial grid used for (t)core density is grid 1
 Radial grid used for Vloc is grid 1
 Radial grid used for pseudo valence density is grid 1
 Mesh size for Vloc has been set to  763 to avoid numerical noise.
 Compensation charge density is not taken into account in XC energy/potential
 pspatm: atomic psp has been read  and splines computed

   3.08921017E+04                                ecore*ucvol(ha*bohr**3)
--------------------------------------------------------------------------------

_setup2: Arith. and geom. avg. npw (full set) are    9621.844    9621.840

================================================================================

=== [ionmov= 2] Broyden-Fletcher-Goldfard-Shanno method (forces)            
================================================================================

--- Iteration: (   1/1000) Internal Cycle: (1/1)
--------------------------------------------------------------------------------

---SELF-CONSISTENT-FIELD CONVERGENCE--------------------------------------------

--- !BeginCycle
iteration_state: {dtset: 1, itime: 1, icycle: 1, }
solver: {iscf: 17, nstep: 50, nline: 4, wfoptalg: 10, }
tolerances: {toldff: 1.00E-08, }
...

     iter   Etot(hartree)      deltaE(h)  residm     nres2    diffor    maxfor
 ETOT  1  -169.66638493800    -1.697E+02 2.484E+00 8.209E+00 3.255E-02 3.255E-02
 ETOT  2  -171.14106339445    -1.475E+00 2.459E-02 3.089E+00 3.738E-02 9.363E-03
 ETOT  3  -171.13155369135     9.510E-03 1.453E-02 4.971E-01 4.082E-02 3.221E-02
 ETOT  4  -171.13263454301    -1.081E-03 4.312E-03 1.081E-01 3.929E-02 7.832E-03
 ETOT  5  -171.13267938681    -4.484E-05 4.977E-03 7.231E-03 1.089E-02 3.054E-03
 ETOT  6  -171.13273912149    -5.973E-05 2.014E-03 9.040E-04 2.967E-03 1.251E-04
 ETOT  7  -171.13274777244    -8.651E-06 1.436E-03 1.798E-04 6.956E-04 6.450E-04
 ETOT  8  -171.13274982836    -2.056E-06 6.655E-04 1.099E-05 1.870E-04 4.580E-04
 ETOT  9  -171.13275002830    -1.999E-07 5.138E-04 2.133E-06 7.346E-05 5.247E-04
 ETOT 10  -171.13275004334    -1.504E-08 1.886E-04 5.682E-07 3.942E-05 4.917E-04
 ETOT 11  -171.13275004665    -3.315E-09 2.167E-04 1.059E-07 1.621E-05 5.076E-04
 ETOT 12  -171.13275004711    -4.611E-10 1.981E-04 4.021E-08 2.576E-06 5.053E-04
 ETOT 13  -171.13275004705     6.327E-11 2.459E-04 8.409E-09 3.873E-06 5.061E-04
 ETOT 14  -171.13275004701     4.260E-11 2.151E-04 1.055E-09 1.662E-06 5.077E-04
 ETOT 15  -171.13275004701     2.444E-12 2.424E-04 1.842E-10 3.987E-07 5.078E-04
 ETOT 16  -171.13275004700     2.188E-12 1.971E-04 2.618E-11 1.961E-07 5.079E-04
 ETOT 17  -171.13275004701    -9.720E-12 1.969E-04 4.890E-12 4.917E-08 5.079E-04
 ETOT 18  -171.13275004701     2.842E-12 1.426E-04 6.570E-13 3.111E-08 5.079E-04
 ETOT 19  -171.13275004702    -6.736E-12 1.207E-04 9.861E-14 4.187E-09 5.079E-04
 ETOT 20  -171.13275004702    -4.832E-13 7.217E-05 6.267E-15 4.420E-09 5.079E-04

 At SCF step   20, forces are converged : 
  for the second time, max diff in force=  4.420E-09 < toldff=  1.000E-08

 Cartesian components of stress tensor (hartree/bohr^3)
  sigma(1 1)= -9.03287996E-05  sigma(3 2)=  3.57198828E-14
  sigma(2 2)= -9.01691933E-05  sigma(3 1)= -7.13019311E-14
  sigma(3 3)= -9.03287996E-05  sigma(2 1)=  3.57205162E-14


--- !ResultsGS
iteration_state: {dtset: 1, itime: 1, icycle: 1, }
comment   : Summary of ground state results
lattice_vectors:
- [  0.0000000,  10.1016550,  10.1209932, ]
- [ 10.1209932,   0.0000000,  10.1209932, ]
- [ 10.1209932,  10.1016550,   0.0000000, ]
lattice_lengths: [  14.29958,   14.31325,   14.29958, ]
lattice_angles: [ 59.968,  60.063,  59.968, ] # degrees, (23, 13, 12)
lattice_volume:   2.0695160E+03
convergence: {deltae: -4.832E-13, res2:  6.267E-15, residm:  7.217E-05, diffor:  4.420E-09, }
etotal    :  -1.71132750E+02
entropy   :   0.00000000E+00
fermie    :  -5.35985575E-02
cartesian_stress_tensor: # hartree/bohr^3
- [ -9.03287996E-05,   3.57205162E-14,  -7.13019311E-14, ]
- [  3.57205162E-14,  -9.01691933E-05,   3.57198828E-14, ]
- [ -7.13019311E-14,   3.57198828E-14,  -9.03287996E-05, ]
pressure_GPa:   2.6560E+00
xred      :
- [  2.5213E-01,   2.4787E-01,   2.5213E-01, Cs]
- [  7.5213E-01,   7.4787E-01,   7.5213E-01, Cs]
- [  7.3978E-01,   2.6022E-01,   7.3978E-01,  I]
- [  2.4328E-01,   2.4237E-01,   7.5763E-01, Br]
- [  7.5763E-01,   7.5672E-01,   2.4328E-01, Br]
- [  2.4861E-01,   7.5139E-01,   2.4861E-01, Br]
- [  2.4328E-01,   7.5672E-01,   7.5763E-01, Br]
- [  7.5763E-01,   2.4237E-01,   2.4328E-01, Br]
- [  5.5514E-03,  -5.5514E-03,   5.5514E-03, Hf]
cartesian_forces: # hartree/bohr
- [ -2.42035344E-20,  -5.60782881E-07,  -6.75012878E-21, ]
- [ -2.41976104E-20,  -5.60782881E-07,  -6.75605284E-21, ]
- [  5.92876052E-20,  -4.00431814E-04,  -9.02412684E-20, ]
- [ -2.54213064E-15,  -1.40659238E-05,   5.07879702E-04, ]
- [  2.54217955E-15,  -1.40659238E-05,  -5.07879702E-04, ]
- [  2.56213104E-20,   5.01255437E-04,  -5.65749735E-20, ]
- [ -5.07879702E-04,  -1.40659238E-05,   2.54220428E-15, ]
- [  5.07879702E-04,  -1.40659238E-05,  -2.54210623E-15, ]
- [ -2.32501017E-20,  -4.34383616E-05,  -7.70356154E-21, ]
force_length_stats: {min:   5.60782881E-07, max:   5.08074446E-04, mean:   3.30949440E-04, }
...

 Integrated electronic density in atomic spheres:
 ------------------------------------------------
 Atom  Sphere_radius  Integrated_density
    1        2.20660          5.36496415
    2        2.20660          5.36496415
    3        2.30022          4.04176731
    4        2.20000          4.94911269
    5        2.20000          4.94911269
    6        2.20000          4.94483074
    7        2.20000          4.94911269
    8        2.20000          4.94911269
    9        2.41000          9.32779222

 PAW TEST:
 ==== Compensation charge inside spheres ============
 The following values must be close to each other ...
 Compensation charge over spherical meshes =     -0.328563236546228
 Compensation charge over fine fft grid    =     -0.328565446751339

 ==== Results concerning PAW augmentation regions ====

 Total pseudopotential strength Dij (hartree):
 Atom #  1
   0.42695  -0.14145  -0.00000   0.00000   0.00000   0.00000   0.00000   0.00000   0.00000   0.00000  -0.00000   0.00000 ...
  -0.14145   0.04253   0.00000   0.00000   0.00000  -0.00000   0.00000   0.00000   0.00000   0.00000   0.00000  -0.00000 ...
  -0.00000   0.00000  -0.09193   0.00000   0.00000  -0.16756   0.00000   0.00000   0.00000   0.00000   0.00000  -0.00000 ...
   0.00000   0.00000   0.00000  -0.09193   0.00000   0.00000  -0.16756  -0.00000  -0.00000  -0.00000   0.00000   0.00000 ...
   0.00000   0.00000   0.00000   0.00000  -0.09193   0.00000  -0.00000  -0.16756  -0.00000  -0.00000   0.00000   0.00000 ...
   0.00000  -0.00000  -0.16756   0.00000   0.00000   0.40001   0.00000   0.00000   0.00000   0.00000  -0.00000   0.00000 ...
   0.00000   0.00000   0.00000  -0.16756  -0.00000   0.00000   0.40001   0.00001   0.00000   0.00000   0.00000   0.00000 ...
   0.00000   0.00000   0.00000  -0.00000  -0.16756   0.00000   0.00001   0.40001   0.00000   0.00000   0.00000   0.00000 ...
   0.00000   0.00000   0.00000  -0.00000  -0.00000   0.00000   0.00000   0.00000   0.00546   0.00000   0.00000   0.00000 ...
   0.00000   0.00000   0.00000  -0.00000  -0.00000   0.00000   0.00000   0.00000   0.00000   0.00546   0.00000   0.00000 ...
  -0.00000   0.00000   0.00000   0.00000   0.00000  -0.00000   0.00000   0.00000   0.00000   0.00000   0.00546   0.00000 ...
   0.00000  -0.00000  -0.00000   0.00000   0.00000   0.00000   0.00000   0.00000   0.00000   0.00000   0.00000   0.00546 ...
   ...  only 12  components have been written...
 Atom #  9
  -3.50098   0.42198   0.00010   0.00000   0.00000  -0.00002   0.00000   0.00000   0.00000   0.00000   0.00001   0.00000 ...
   0.42198   0.00408  -0.00003   0.00000   0.00000   0.00001   0.00000   0.00000   0.00000   0.00000  -0.00000   0.00000 ...
   0.00010  -0.00003  -1.42743   0.00000   0.00000   0.11763   0.00000   0.00000   0.00000   0.00000  -0.00001   0.00000 ...
   0.00000   0.00000   0.00000  -1.42736   0.00000   0.00000   0.11762   0.00000   0.00000   0.00002   0.00000   0.00000 ...
   0.00000   0.00000   0.00000   0.00000  -1.42736   0.00000   0.00000   0.11762   0.00002   0.00000   0.00000   0.00000 ...
  -0.00002   0.00001   0.11763   0.00000   0.00000   0.01434   0.00000   0.00000   0.00000   0.00000   0.00000   0.00000 ...
   0.00000   0.00000   0.00000   0.11762   0.00000   0.00000   0.01434   0.00000   0.00000  -0.00000   0.00000   0.00000 ...
   0.00000   0.00000   0.00000   0.00000   0.11762   0.00000   0.00000   0.01434  -0.00000   0.00000   0.00000   0.00000 ...
   0.00000   0.00000   0.00000   0.00000   0.00002   0.00000   0.00000  -0.00000  -0.38852   0.00000   0.00000   0.00000 ...
   0.00000   0.00000   0.00000   0.00002   0.00000   0.00000  -0.00000   0.00000   0.00000  -0.38852   0.00000   0.00000 ...
   0.00001  -0.00000  -0.00001   0.00000   0.00000   0.00000   0.00000   0.00000   0.00000   0.00000  -0.38786   0.00000 ...
   0.00000   0.00000   0.00000   0.00000   0.00000   0.00000   0.00000   0.00000   0.00000   0.00000   0.00000  -0.38850 ...
   ...  only 12  components have been written...


 Augmentation waves occupancies Rhoij:
 Atom #  1
   1.99853  -0.01290   0.00000   0.00000   0.00000  -0.00001   0.00000   0.00000   0.00000   0.00000  -0.00062   0.00261 ...
  -0.01290   0.18224  -0.00093   0.00000   0.00000   0.00001   0.00000   0.00000   0.00000   0.00000   0.00720  -0.02301 ...
   0.00000  -0.00093   2.00790   0.00000   0.00000  -0.00478   0.00000   0.00000   0.00000   0.00000   0.00065  -0.00110 ...
   0.00000   0.00000   0.00000   2.00947  -0.00191   0.00000  -0.00504   0.00031  -0.00123  -0.00020   0.00000   0.00000 ...
   0.00000   0.00000   0.00000  -0.00191   2.00947   0.00000   0.00031  -0.00504  -0.00020  -0.00123   0.00000   0.00000 ...
  -0.00001   0.00001  -0.00478   0.00000   0.00000   0.00012   0.00000   0.00000   0.00000   0.00000  -0.00003  -0.00001 ...
   0.00000   0.00000   0.00000  -0.00504   0.00031   0.00000   0.00015  -0.00002   0.00000  -0.00003   0.00000   0.00000 ...
   0.00000   0.00000   0.00000   0.00031  -0.00504   0.00000  -0.00002   0.00015  -0.00003   0.00000   0.00000   0.00000 ...
   0.00000   0.00000   0.00000  -0.00123  -0.00020   0.00000   0.00000  -0.00003   0.05728  -0.00067   0.00000   0.00000 ...
   0.00000   0.00000   0.00000  -0.00020  -0.00123   0.00000  -0.00003   0.00000  -0.00067   0.05728   0.00000   0.00000 ...
  -0.00062   0.00720   0.00065   0.00000   0.00000  -0.00003   0.00000   0.00000   0.00000   0.00000   0.04020  -0.00799 ...
   0.00261  -0.02301  -0.00110   0.00000   0.00000  -0.00001   0.00000   0.00000   0.00000   0.00000  -0.00799   0.08009 ...
   ...  only 12  components have been written...
 Atom #  9
   1.99793  -0.02118   0.00009   0.00000   0.00000   0.00034   0.00000   0.00000   0.00000   0.00000  -0.00013   0.00000 ...
  -0.02118   1.01499  -0.00042   0.00000   0.00000   0.01292   0.00000   0.00000   0.00000   0.00000   0.00793   0.00000 ...
   0.00009  -0.00042   1.99280   0.00000   0.00000  -0.06127   0.00000   0.00000   0.00000   0.00000  -0.00041   0.00000 ...
   0.00000   0.00000   0.00000   1.99267   0.00000   0.00000  -0.06385   0.00000   0.00000   0.00152   0.00000   0.00000 ...
   0.00000   0.00000   0.00000   0.00000   1.99267   0.00000   0.00000  -0.06385   0.00152   0.00000   0.00000   0.00000 ...
   0.00034   0.01292  -0.06127   0.00000   0.00000   1.28753   0.00000   0.00000   0.00000   0.00000  -0.04027   0.00000 ...
   0.00000   0.00000   0.00000  -0.06385   0.00000   0.00000   1.36140   0.00000   0.00000  -0.03404   0.00000   0.00000 ...
   0.00000   0.00000   0.00000   0.00000  -0.06385   0.00000   0.00000   1.36140  -0.03404   0.00000   0.00000   0.00000 ...
   0.00000   0.00000   0.00000   0.00000   0.00152   0.00000   0.00000  -0.03404   0.50752   0.00000   0.00000   0.00000 ...
   0.00000   0.00000   0.00000   0.00152   0.00000   0.00000  -0.03404   0.00000   0.00000   0.50752   0.00000   0.00000 ...
  -0.00013   0.00793  -0.00041   0.00000   0.00000  -0.04027   0.00000   0.00000   0.00000   0.00000   1.54438   0.00000 ...
   0.00000   0.00000   0.00000   0.00000   0.00000   0.00000   0.00000   0.00000   0.00000   0.00000   0.00000   0.51340 ...
   ...  only 12  components have been written...



---OUTPUT-----------------------------------------------------------------------

 Cartesian coordinates (xcart) [bohr]
  5.06049661534661E+00  5.09376198079728E+00  5.06049661534661E+00
  1.51814898460403E+01  1.51954169347657E+01  1.51814898460403E+01
  1.01209932306694E+01  1.49459221937863E+01  1.01209932306694E+01
  1.01209932306675E+01  1.01108294326641E+01  4.91522652770232E+00
  1.01209932307197E+01  1.01108294326641E+01  1.53267599336849E+01
  1.01209932307191E+01  5.02266491110750E+00  1.01209932307191E+01
  1.53267599336849E+01  1.01108294326641E+01  1.01209932307197E+01
  4.91522652770232E+00  1.01108294326641E+01  1.01209932306675E+01
 -5.62460869310911E-13  1.12155880985656E-01 -5.62460869310911E-13
 Reduced coordinates (xred)
  2.52125122270000E-01  2.47874877730000E-01  2.52125122270000E-01
  7.52125122270000E-01  7.47874877730000E-01  7.52125122270000E-01
  7.39775920970000E-01  2.60224079030000E-01  7.39775920970000E-01
  2.43277436190000E-01  2.42369220780000E-01  7.57630779220000E-01
  7.57630779220000E-01  7.56722563810000E-01  2.43277436190000E-01
  2.48606041980000E-01  7.51393958020000E-01  2.48606041980000E-01
  2.43277436190000E-01  7.56722563810000E-01  7.57630779220000E-01
  7.57630779220000E-01  2.42369220780000E-01  2.43277436190000E-01
  5.55136170740000E-03 -5.55136170740000E-03  5.55136170740000E-03
 Cartesian forces (fcart) [Ha/bohr]; max,rms= 5.07880E-04 2.31425E-04 (free atoms)
 -2.42035344147550E-20 -5.60782880867844E-07 -6.75012877891817E-21
 -2.41976103581178E-20 -5.60782880867844E-07 -6.75605283555531E-21
  5.92876052479595E-20 -4.00431814329548E-04 -9.02412684416327E-20
 -2.54213063791135E-15 -1.40659237703130E-05  5.07879702321637E-04
  2.54217954578491E-15 -1.40659237754070E-05 -5.07879702321637E-04
  2.56213103548111E-20  5.01255436814253E-04 -5.65749735484842E-20
 -5.07879702321637E-04 -1.40659237754071E-05  2.54220428142612E-15
  5.07879702321637E-04 -1.40659237703130E-05 -2.54210622853309E-15
 -2.32501016521467E-20 -4.34383616315293E-05 -7.70356154152646E-21
 Reduced forces (fred)
  5.66483516661941E-06  3.13281815649905E-19  5.66483516661959E-06
  5.66483516661941E-06  3.13281815649905E-19  5.66483516661959E-06
  4.04502402094865E-03  3.13281815649905E-19  4.04502402094865E-03
 -4.99815792064174E-03 -5.14024702920399E-03  1.42089108562253E-04
  5.28233613776625E-03  5.14024702920399E-03  1.42089108562254E-04
 -5.06350946649831E-03  3.13281815649905E-19 -5.06350946649831E-03
  1.42089108562253E-04  5.14024702920399E-03  5.28233613776625E-03
  1.42089108562253E-04 -5.14024702920400E-03 -4.99815792064174E-03
  4.38799340967410E-04  3.13281815649905E-19  4.38799340967410E-04
 Scale of Primitive Cell (acell) [bohr]
  1.42995782029050E+01  1.43132458915350E+01  1.42995782029050E+01
 Real space primitive translations (rprimd) [bohr]
  0.00000000000000E+00  1.01016549539684E+01  1.01209932306430E+01
  1.01209932307443E+01  0.00000000000000E+00  1.01209932307443E+01
  1.01209932306430E+01  1.01016549539684E+01  0.00000000000000E+00
 Unitary Cell Volume (ucvol) [Bohr^3]=  2.06951602908780E+03
 Angles (23,13,12)= [degrees]
  5.99683769997638E+01  6.00632460004725E+01  5.99683769997638E+01
 Lengths [Bohr]
  1.42995782030015E+01  1.43132458916049E+01  1.42995782030015E+01
 Stress tensor in cartesian coordinates (strten) [Ha/bohr^3]
 -9.03287996176791E-05  3.57205161632111E-14 -7.13019310919584E-14
  3.57205161632111E-14 -9.01691932791568E-05  3.57198828471616E-14
 -7.13019310919584E-14  3.57198828471616E-14 -9.03287996176809E-05
 Total energy (etotal) [Ha]= -1.71132750047018E+02

--- Iteration: (   2/1000) Internal Cycle: (1/1)
--------------------------------------------------------------------------------

---SELF-CONSISTENT-FIELD CONVERGENCE--------------------------------------------

--- !BeginCycle
iteration_state: {dtset: 1, itime: 2, icycle: 1, }
solver: {iscf: 17, nstep: 50, nline: 4, wfoptalg: 10, }
tolerances: {toldff: 1.00E-08, }
...

     iter   Etot(hartree)      deltaE(h)  residm     nres2    diffor    maxfor
 ETOT  1  -171.13275463742    -1.711E+02 6.045E-05 5.172E-04 2.279E-03 2.781E-03
 ETOT  2  -171.13275158383     3.054E-06 4.668E-05 5.119E-05 2.365E-03 4.161E-04
 ETOT  3  -171.13275138334     2.005E-07 4.810E-05 3.830E-06 2.367E-04 6.527E-04
 ETOT  4  -171.13275137778     5.562E-09 3.010E-05 8.882E-07 1.831E-04 4.696E-04
 ETOT  5  -171.13275138368    -5.907E-09 3.126E-05 3.423E-07 7.260E-06 4.696E-04
 ETOT  6  -171.13275138972    -6.033E-09 1.963E-05 2.429E-08 2.261E-05 4.476E-04
 ETOT  7  -171.13275139008    -3.605E-10 2.038E-05 1.197E-08 2.121E-06 4.463E-04
 ETOT  8  -171.13275139122    -1.146E-09 1.734E-05 7.304E-10 2.633E-06 4.442E-04
 ETOT  9  -171.13275139130    -7.668E-11 1.331E-05 1.616E-10 8.769E-07 4.435E-04
 ETOT 10  -171.13275139129     1.404E-11 1.591E-05 2.903E-11 2.012E-07 4.437E-04
 ETOT 11  -171.13275139133    -3.905E-11 1.005E-05 3.338E-12 1.034E-07 4.436E-04
 ETOT 12  -171.13275139134    -1.765E-11 1.446E-05 5.234E-13 3.892E-08 4.436E-04
 ETOT 13  -171.13275139136    -1.413E-11 9.084E-06 5.635E-14 9.660E-09 4.436E-04
 ETOT 14  -171.13275139138    -1.904E-11 1.302E-05 1.182E-14 3.600E-09 4.436E-04

 At SCF step   14, forces are converged : 
  for the second time, max diff in force=  3.600E-09 < toldff=  1.000E-08

 Cartesian components of stress tensor (hartree/bohr^3)
  sigma(1 1)= -9.00864273E-05  sigma(3 2)=  3.57217616E-14
  sigma(2 2)= -8.99601210E-05  sigma(3 1)= -7.13058291E-14
  sigma(3 3)= -9.00864273E-05  sigma(2 1)=  3.57214587E-14


--- !ResultsGS
iteration_state: {dtset: 1, itime: 2, icycle: 1, }
comment   : Summary of ground state results
lattice_vectors:
- [  0.0000000,  10.1016227,  10.1210094, ]
- [ 10.1210094,   0.0000000,  10.1210094, ]
- [ 10.1210094,  10.1016227,   0.0000000, ]
lattice_lengths: [  14.29957,   14.31327,   14.29957, ]
lattice_angles: [ 59.968,  60.063,  59.968, ] # degrees, (23, 13, 12)
lattice_volume:   2.0695160E+03
convergence: {deltae: -1.904E-11, res2:  1.182E-14, residm:  1.302E-05, diffor:  3.600E-09, }
etotal    :  -1.71132751E+02
entropy   :   0.00000000E+00
fermie    :  -5.35970197E-02
cartesian_stress_tensor: # hartree/bohr^3
- [ -9.00864273E-05,   3.57214587E-14,  -7.13058291E-14, ]
- [  3.57214587E-14,  -8.99601210E-05,   3.57217616E-14, ]
- [ -7.13058291E-14,   3.57217616E-14,  -9.00864273E-05, ]
pressure_GPa:   2.6492E+00
xred      :
- [  2.5213E-01,   2.4787E-01,   2.5213E-01, Cs]
- [  7.5213E-01,   7.4787E-01,   7.5213E-01, Cs]
- [  7.3976E-01,   2.6024E-01,   7.3976E-01,  I]
- [  2.4330E-01,   2.4240E-01,   7.5760E-01, Br]
- [  7.5760E-01,   7.5670E-01,   2.4330E-01, Br]
- [  2.4863E-01,   7.5137E-01,   2.4863E-01, Br]
- [  2.4330E-01,   7.5670E-01,   7.5760E-01, Br]
- [  7.5760E-01,   2.4240E-01,   2.4330E-01, Br]
- [  5.5492E-03,  -5.5492E-03,   5.5492E-03, Hf]
cartesian_forces: # hartree/bohr
- [ -6.45739257E-21,  -4.47290457E-07,   5.10555914E-21, ]
- [ -6.48108878E-21,  -4.47290457E-07,   5.12925535E-21, ]
- [  6.51304099E-21,  -3.49669783E-04,  -7.86487442E-21, ]
- [ -2.22044152E-15,  -1.35594292E-05,   4.43597175E-04, ]
- [  2.22040342E-15,  -1.35594292E-05,  -4.43597175E-04, ]
- [  5.48018999E-20,   4.38113260E-04,  -5.61537333E-20, ]
- [ -4.43597175E-04,  -1.35594292E-05,   2.22043861E-15, ]
- [  4.43597175E-04,  -1.35594292E-05,  -2.22035497E-15, ]
- [ -2.53310380E-21,  -3.33111799E-05,   1.18127037E-21, ]
force_length_stats: {min:   4.47290457E-07, max:   4.43804362E-04, mean:   2.88578472E-04, }
...

 Integrated electronic density in atomic spheres:
 ------------------------------------------------
 Atom  Sphere_radius  Integrated_density
    1        2.20660          5.36496520
    2        2.20660          5.36496520
    3        2.30022          4.04177582
    4        2.20000          4.94899653
    5        2.20000          4.94899653
    6        2.20000          4.94484573
    7        2.20000          4.94899653
    8        2.20000          4.94899653
    9        2.41000          9.32738482

 PAW TEST:
 ==== Compensation charge inside spheres ============
 The following values must be close to each other ...
 Compensation charge over spherical meshes =     -0.328595071881171
 Compensation charge over fine fft grid    =     -0.328597289690923

 ==== Results concerning PAW augmentation regions ====

 Total pseudopotential strength Dij (hartree):
 Atom #  1
   0.42695  -0.14145  -0.00000   0.00000   0.00000   0.00000   0.00000   0.00000   0.00000   0.00000  -0.00000   0.00000 ...
  -0.14145   0.04253   0.00000   0.00000   0.00000  -0.00000   0.00000   0.00000   0.00000   0.00000   0.00000  -0.00000 ...
  -0.00000   0.00000  -0.09193   0.00000   0.00000  -0.16756   0.00000   0.00000   0.00000   0.00000   0.00000  -0.00000 ...
   0.00000   0.00000   0.00000  -0.09193   0.00000   0.00000  -0.16756  -0.00000  -0.00000  -0.00000   0.00000   0.00000 ...
   0.00000   0.00000   0.00000   0.00000  -0.09193   0.00000  -0.00000  -0.16756  -0.00000  -0.00000   0.00000   0.00000 ...
   0.00000  -0.00000  -0.16756   0.00000   0.00000   0.40001   0.00000   0.00000   0.00000   0.00000  -0.00000   0.00000 ...
   0.00000   0.00000   0.00000  -0.16756  -0.00000   0.00000   0.40001   0.00001   0.00000   0.00000   0.00000   0.00000 ...
   0.00000   0.00000   0.00000  -0.00000  -0.16756   0.00000   0.00001   0.40001   0.00000   0.00000   0.00000   0.00000 ...
   0.00000   0.00000   0.00000  -0.00000  -0.00000   0.00000   0.00000   0.00000   0.00546   0.00000   0.00000   0.00000 ...
   0.00000   0.00000   0.00000  -0.00000  -0.00000   0.00000   0.00000   0.00000   0.00000   0.00546   0.00000   0.00000 ...
  -0.00000   0.00000   0.00000   0.00000   0.00000  -0.00000   0.00000   0.00000   0.00000   0.00000   0.00546   0.00000 ...
   0.00000  -0.00000  -0.00000   0.00000   0.00000   0.00000   0.00000   0.00000   0.00000   0.00000   0.00000   0.00546 ...
   ...  only 12  components have been written...
 Atom #  9
  -3.50100   0.42199   0.00010   0.00000   0.00000  -0.00002   0.00000   0.00000   0.00000   0.00000   0.00001   0.00000 ...
   0.42199   0.00408  -0.00003   0.00000   0.00000   0.00001   0.00000   0.00000   0.00000   0.00000  -0.00000   0.00000 ...
   0.00010  -0.00003  -1.42747   0.00000   0.00000   0.11764   0.00000   0.00000   0.00000   0.00000  -0.00001   0.00000 ...
   0.00000   0.00000   0.00000  -1.42739   0.00000   0.00000   0.11763   0.00000   0.00000   0.00002   0.00000   0.00000 ...
   0.00000   0.00000   0.00000   0.00000  -1.42739   0.00000   0.00000   0.11763   0.00002   0.00000   0.00000   0.00000 ...
  -0.00002   0.00001   0.11764   0.00000   0.00000   0.01434   0.00000   0.00000   0.00000   0.00000   0.00000   0.00000 ...
   0.00000   0.00000   0.00000   0.11763   0.00000   0.00000   0.01434   0.00000   0.00000  -0.00000   0.00000   0.00000 ...
   0.00000   0.00000   0.00000   0.00000   0.11763   0.00000   0.00000   0.01434  -0.00000   0.00000   0.00000   0.00000 ...
   0.00000   0.00000   0.00000   0.00000   0.00002   0.00000   0.00000  -0.00000  -0.38853   0.00000   0.00000   0.00000 ...
   0.00000   0.00000   0.00000   0.00002   0.00000   0.00000  -0.00000   0.00000   0.00000  -0.38853   0.00000   0.00000 ...
   0.00001  -0.00000  -0.00001   0.00000   0.00000   0.00000   0.00000   0.00000   0.00000   0.00000  -0.38787   0.00000 ...
   0.00000   0.00000   0.00000   0.00000   0.00000   0.00000   0.00000   0.00000   0.00000   0.00000   0.00000  -0.38851 ...
   ...  only 12  components have been written...


 Augmentation waves occupancies Rhoij:
 Atom #  1
   1.99853  -0.01290   0.00000   0.00000   0.00000  -0.00001   0.00000   0.00000   0.00000   0.00000  -0.00062   0.00261 ...
  -0.01290   0.18225  -0.00094   0.00000   0.00000   0.00001   0.00000   0.00000   0.00000   0.00000   0.00720  -0.02301 ...
   0.00000  -0.00094   2.00790   0.00000   0.00000  -0.00478   0.00000   0.00000   0.00000   0.00000   0.00065  -0.00111 ...
   0.00000   0.00000   0.00000   2.00947  -0.00191   0.00000  -0.00504   0.00030  -0.00124  -0.00020   0.00000   0.00000 ...
   0.00000   0.00000   0.00000  -0.00191   2.00947   0.00000   0.00030  -0.00504  -0.00020  -0.00124   0.00000   0.00000 ...
  -0.00001   0.00001  -0.00478   0.00000   0.00000   0.00012   0.00000   0.00000   0.00000   0.00000  -0.00003  -0.00001 ...
   0.00000   0.00000   0.00000  -0.00504   0.00030   0.00000   0.00015  -0.00002   0.00000  -0.00003   0.00000   0.00000 ...
   0.00000   0.00000   0.00000   0.00030  -0.00504   0.00000  -0.00002   0.00015  -0.00003   0.00000   0.00000   0.00000 ...
   0.00000   0.00000   0.00000  -0.00124  -0.00020   0.00000   0.00000  -0.00003   0.05729  -0.00067   0.00000   0.00000 ...
   0.00000   0.00000   0.00000  -0.00020  -0.00124   0.00000  -0.00003   0.00000  -0.00067   0.05729   0.00000   0.00000 ...
  -0.00062   0.00720   0.00065   0.00000   0.00000  -0.00003   0.00000   0.00000   0.00000   0.00000   0.04020  -0.00799 ...
   0.00261  -0.02301  -0.00111   0.00000   0.00000  -0.00001   0.00000   0.00000   0.00000   0.00000  -0.00799   0.08009 ...
   ...  only 12  components have been written...
 Atom #  9
   1.99792  -0.02119   0.00009   0.00000   0.00000   0.00034   0.00000   0.00000   0.00000   0.00000  -0.00013   0.00000 ...
  -0.02119   1.01482  -0.00042   0.00000   0.00000   0.01285   0.00000   0.00000   0.00000   0.00000   0.00790   0.00000 ...
   0.00009  -0.00042   1.99279   0.00000   0.00000  -0.06132   0.00000   0.00000   0.00000   0.00000  -0.00041   0.00000 ...
   0.00000   0.00000   0.00000   1.99266   0.00000   0.00000  -0.06391   0.00000   0.00000   0.00152   0.00000   0.00000 ...
   0.00000   0.00000   0.00000   0.00000   1.99266   0.00000   0.00000  -0.06391   0.00152   0.00000   0.00000   0.00000 ...
   0.00034   0.01285  -0.06132   0.00000   0.00000   1.28701   0.00000   0.00000   0.00000   0.00000  -0.04019   0.00000 ...
   0.00000   0.00000   0.00000  -0.06391   0.00000   0.00000   1.36071   0.00000   0.00000  -0.03402   0.00000   0.00000 ...
   0.00000   0.00000   0.00000   0.00000  -0.06391   0.00000   0.00000   1.36071  -0.03402   0.00000   0.00000   0.00000 ...
   0.00000   0.00000   0.00000   0.00000   0.00152   0.00000   0.00000  -0.03402   0.50725   0.00000   0.00000   0.00000 ...
   0.00000   0.00000   0.00000   0.00152   0.00000   0.00000  -0.03402   0.00000   0.00000   0.50725   0.00000   0.00000 ...
  -0.00013   0.00790  -0.00041   0.00000   0.00000  -0.04019   0.00000   0.00000   0.00000   0.00000   1.54353   0.00000 ...
   0.00000   0.00000   0.00000   0.00000   0.00000   0.00000   0.00000   0.00000   0.00000   0.00000   0.00000   0.51309 ...
   ...  only 12  components have been written...



---OUTPUT-----------------------------------------------------------------------

 Cartesian coordinates (xcart) [bohr]
  5.06050469223286E+00  5.09374516009519E+00  5.06050469223286E+00
  1.51815140766990E+01  1.51953678683261E+01  1.51815140766990E+01
  1.01210093844419E+01  1.49454740540099E+01  1.01210093844419E+01
  1.01210093844400E+01  1.01107830917617E+01  4.91574225324087E+00
  1.01210093844922E+01  1.01107830917617E+01  1.53262765156913E+01
  1.01210093844916E+01  5.02315013197392E+00  1.01210093844916E+01
  1.53262765156913E+01  1.01107830917617E+01  1.01210093844922E+01
  4.91574225324087E+00  1.01107830917617E+01  1.01210093844400E+01
 -5.62449289274431E-13  1.12112084747180E-01 -5.62459146654491E-13
 Reduced coordinates (xred)
  2.52125094513019E-01  2.47874905486981E-01  2.52125094513019E-01
  7.52125094513019E-01  7.47874905486981E-01  7.52125094513019E-01
  7.39756100860515E-01  2.60243899139485E-01  7.39756100860515E-01
  2.43301830379382E-01  2.42395007406941E-01  7.57604992593058E-01
  7.57604992593058E-01  7.56698169620618E-01  2.43301830379382E-01
  2.48630852540205E-01  7.51369147459795E-01  2.48630852540205E-01
  2.43301830379382E-01  7.56698169620618E-01  7.57604992593058E-01
  7.57604992593058E-01  2.42395007406941E-01  2.43301830379382E-01
  5.54921164576013E-03 -5.54921164576015E-03  5.54921164576013E-03
 Cartesian forces (fcart) [Ha/bohr]; max,rms= 4.43597E-04 2.02134E-04 (free atoms)
 -6.45739256521839E-21 -4.47290456841142E-07  5.10555913925322E-21
 -6.48108877506997E-21 -4.47290456841142E-07  5.12925534910480E-21
  6.51304099137668E-21 -3.49669782715283E-04 -7.86487441734185E-21
 -2.22044151504585E-15 -1.35594292195020E-05  4.43597175027138E-04
  2.22040342360792E-15 -1.35594292239513E-05 -4.43597175027138E-04
  5.48018998785403E-20  4.38113260401473E-04 -5.61537333045054E-20
 -4.43597175027138E-04 -1.35594292239513E-05  2.22043861423999E-15
  4.43597175027138E-04 -1.35594292195021E-05 -2.22035497062932E-15
 -2.53310379603252E-21 -3.33111798856007E-05  1.18127037006735E-21
 Reduced forces (fred)
  4.51835943600143E-06  1.36819187904970E-20  4.51835943600155E-06
  4.51835943600143E-06  1.36819187904970E-20  4.51835943600155E-06
  3.53223221745889E-03  1.36819187904970E-20  3.53223221745889E-03
 -4.35267893323549E-03 -4.48965117137234E-03  1.36972238136845E-04
  4.62662340950918E-03  4.48965117137234E-03  1.36972238136844E-04
 -4.42565486004862E-03  1.36819187904970E-20 -4.42565486004862E-03
  1.36972238136844E-04  4.48965117137234E-03  4.62662340950918E-03
  1.36972238136845E-04 -4.48965117137234E-03 -4.35267893323549E-03
  3.36496971170351E-04  1.36819187904970E-20  3.36496971170351E-04
 Scale of Primitive Cell (acell) [bohr]
  1.42995668570371E+01  1.43132687364890E+01  1.42995668570371E+01
 Real space primitive translations (rprimd) [bohr]
  0.00000000000000E+00  1.01016227082310E+01  1.01210093844155E+01
  1.01210093845168E+01  0.00000000000000E+00  1.01210093845168E+01
  1.01210093844155E+01  1.01016227082310E+01  0.00000000000000E+00
 Unitary Cell Volume (ucvol) [Bohr^3]=  2.06951602908780E+03
 Angles (23,13,12)= [degrees]
  5.99682978544181E+01  6.00634042911639E+01  5.99682978544181E+01
 Lengths [Bohr]
  1.42995668570371E+01  1.43132687364890E+01  1.42995668570371E+01
 Stress tensor in cartesian coordinates (strten) [Ha/bohr^3]
 -9.00864272989146E-05  3.57214587245409E-14 -7.13058290814120E-14
  3.57214587245409E-14 -8.99601210373642E-05  3.57217615787274E-14
 -7.13058290814120E-14  3.57217615787274E-14 -9.00864272989146E-05
 Total energy (etotal) [Ha]= -1.71132751391377E+02

 Difference of energy with previous step (new-old):
           Absolute (Ha)=-1.34436E-06
           Relative     =-7.85565E-09

--- Iteration: (   3/1000) Internal Cycle: (1/1)
--------------------------------------------------------------------------------

---SELF-CONSISTENT-FIELD CONVERGENCE--------------------------------------------

--- !BeginCycle
iteration_state: {dtset: 1, itime: 3, icycle: 1, }
solver: {iscf: 17, nstep: 50, nline: 4, wfoptalg: 10, }
tolerances: {toldff: 1.00E-08, }
...

     iter   Etot(hartree)      deltaE(h)  residm     nres2    diffor    maxfor
 ETOT  1  -171.13290794077    -1.711E+02 1.055E-04 2.457E-02 1.572E-02 1.616E-02
 ETOT  2  -171.13276578902     1.422E-04 9.959E-06 2.397E-03 1.629E-02 1.860E-04
 ETOT  3  -171.13275582452     9.964E-06 6.432E-06 1.802E-04 1.619E-03 1.484E-03
 ETOT  4  -171.13275549173     3.328E-07 8.728E-06 4.212E-05 1.262E-03 2.214E-04
 ETOT  5  -171.13275559447    -1.027E-07 6.179E-06 1.615E-05 4.959E-05 1.957E-04
 ETOT  6  -171.13275566411    -6.963E-08 7.601E-06 1.133E-06 1.558E-04 3.994E-05
 ETOT  7  -171.13275567190    -7.797E-09 6.390E-06 5.578E-07 1.458E-05 3.339E-05
 ETOT  8  -171.13275568409    -1.219E-08 6.629E-06 3.428E-08 1.802E-05 3.209E-05
 ETOT  9  -171.13275568492    -8.340E-10 6.578E-06 7.603E-09 5.907E-06 3.210E-05
 ETOT 10  -171.13275568486     6.423E-11 6.109E-06 1.365E-09 1.415E-06 3.240E-05
 ETOT 11  -171.13275568511    -2.539E-10 6.735E-06 1.586E-10 7.563E-07 3.224E-05
 ETOT 12  -171.13275568520    -9.078E-11 6.234E-06 2.414E-11 2.700E-07 3.214E-05
 ETOT 13  -171.13275568530    -1.027E-10 6.858E-06 2.603E-12 6.744E-08 3.218E-05
 ETOT 14  -171.13275568540    -9.524E-11 6.327E-06 5.299E-13 2.741E-08 3.218E-05
 ETOT 15  -171.13275568545    -5.267E-11 6.944E-06 2.592E-13 8.485E-09 3.217E-05
 ETOT 16  -171.13275568551    -5.315E-11 6.386E-06 9.169E-14 8.930E-10 3.217E-05

 At SCF step   16, forces are converged : 
  for the second time, max diff in force=  8.930E-10 < toldff=  1.000E-08

 Cartesian components of stress tensor (hartree/bohr^3)
  sigma(1 1)= -8.84226175E-05  sigma(3 2)=  3.57293193E-14
  sigma(2 2)= -8.85209030E-05  sigma(3 1)= -7.13217186E-14
  sigma(3 3)= -8.84226175E-05  sigma(2 1)=  3.57302119E-14


--- !ResultsGS
iteration_state: {dtset: 1, itime: 3, icycle: 1, }
comment   : Summary of ground state results
lattice_vectors:
- [  0.0000000,  10.1014212,  10.1211104, ]
- [ 10.1211104,   0.0000000,  10.1211104, ]
- [ 10.1211104,  10.1014212,   0.0000000, ]
lattice_lengths: [  14.29950,   14.31341,   14.29950, ]
lattice_angles: [ 59.968,  60.064,  59.968, ] # degrees, (23, 13, 12)
lattice_volume:   2.0695160E+03
convergence: {deltae: -5.315E-11, res2:  9.169E-14, residm:  6.386E-06, diffor:  8.930E-10, }
etotal    :  -1.71132756E+02
entropy   :   0.00000000E+00
fermie    :  -5.35848514E-02
cartesian_stress_tensor: # hartree/bohr^3
- [ -8.84226175E-05,   3.57302119E-14,  -7.13217186E-14, ]
- [  3.57302119E-14,  -8.85209030E-05,   3.57293193E-14, ]
- [ -7.13217186E-14,   3.57293193E-14,  -8.84226175E-05, ]
pressure_GPa:   2.6024E+00
xred      :
- [  2.5212E-01,   2.4788E-01,   2.5212E-01, Cs]
- [  7.5212E-01,   7.4788E-01,   7.5212E-01, Cs]
- [  7.3962E-01,   2.6038E-01,   7.3962E-01,  I]
- [  2.4347E-01,   2.4257E-01,   7.5743E-01, Br]
- [  7.5743E-01,   7.5653E-01,   2.4347E-01, Br]
- [  2.4880E-01,   7.5120E-01,   2.4880E-01, Br]
- [  2.4347E-01,   7.5653E-01,   7.5743E-01, Br]
- [  7.5743E-01,   2.4257E-01,   2.4347E-01, Br]
- [  5.5362E-03,  -5.5362E-03,   5.5362E-03, Hf]
cartesian_forces: # hartree/bohr
- [  2.27847010E-22,   3.36327253E-07,  -2.82125267E-22, ]
- [  3.33726129E-22,   3.36327253E-07,  -3.88004385E-22, ]
- [  3.58561341E-22,   1.18532912E-06,  -4.12839598E-22, ]
- [ -9.10514610E-18,  -9.76308368E-06,   1.81922911E-06, ]
- [  9.10557026E-18,  -9.76308368E-06,  -1.81922911E-06, ]
- [  3.09778029E-22,   5.02058985E-06,  -3.64056286E-22, ]
- [ -1.81922911E-06,  -9.76308368E-06,   9.10632530E-18, ]
- [  1.81922911E-06,  -9.76308368E-06,  -9.10576498E-18, ]
- [ -1.12153583E-21,   3.21737613E-05,   1.06725758E-21, ]
force_length_stats: {min:   3.36327253E-07, max:   3.21737613E-05, mean:   8.75298508E-06, }
...

 Integrated electronic density in atomic spheres:
 ------------------------------------------------
 Atom  Sphere_radius  Integrated_density
    1        2.20660          5.36497244
    2        2.20660          5.36497244
    3        2.30022          4.04064994
    4        2.20000          4.94840656
    5        2.20000          4.94840656
    6        2.20000          4.94483025
    7        2.20000          4.94840656
    8        2.20000          4.94840656
    9        2.41000          9.32458379

 PAW TEST:
 ==== Compensation charge inside spheres ============
 The following values must be close to each other ...
 Compensation charge over spherical meshes =     -0.328814870860816
 Compensation charge over fine fft grid    =     -0.328817173932863

 ==== Results concerning PAW augmentation regions ====

 Total pseudopotential strength Dij (hartree):
 Atom #  1
   0.42693  -0.14145  -0.00000   0.00000   0.00000   0.00000   0.00000   0.00000   0.00000   0.00000  -0.00000   0.00000 ...
  -0.14145   0.04253   0.00000   0.00000   0.00000  -0.00000   0.00000   0.00000   0.00000   0.00000   0.00000  -0.00000 ...
  -0.00000   0.00000  -0.09193   0.00000   0.00000  -0.16756   0.00000   0.00000   0.00000   0.00000   0.00000  -0.00000 ...
   0.00000   0.00000   0.00000  -0.09193   0.00000   0.00000  -0.16756  -0.00000  -0.00000  -0.00000   0.00000   0.00000 ...
   0.00000   0.00000   0.00000   0.00000  -0.09193   0.00000  -0.00000  -0.16756  -0.00000  -0.00000   0.00000   0.00000 ...
   0.00000  -0.00000  -0.16756   0.00000   0.00000   0.40001   0.00000   0.00000   0.00000   0.00000  -0.00000   0.00000 ...
   0.00000   0.00000   0.00000  -0.16756  -0.00000   0.00000   0.40001   0.00001   0.00000   0.00000   0.00000   0.00000 ...
   0.00000   0.00000   0.00000  -0.00000  -0.16756   0.00000   0.00001   0.40001   0.00000   0.00000   0.00000   0.00000 ...
   0.00000   0.00000   0.00000  -0.00000  -0.00000   0.00000   0.00000   0.00000   0.00546   0.00000   0.00000   0.00000 ...
   0.00000   0.00000   0.00000  -0.00000  -0.00000   0.00000   0.00000   0.00000   0.00000   0.00546   0.00000   0.00000 ...
  -0.00000   0.00000   0.00000   0.00000   0.00000  -0.00000   0.00000   0.00000   0.00000   0.00000   0.00546   0.00000 ...
   0.00000  -0.00000  -0.00000   0.00000   0.00000   0.00000   0.00000   0.00000   0.00000   0.00000   0.00000   0.00546 ...
   ...  only 12  components have been written...
 Atom #  9
  -3.50116   0.42204   0.00010   0.00000   0.00000  -0.00002   0.00000   0.00000   0.00000   0.00000   0.00001   0.00000 ...
   0.42204   0.00407  -0.00003   0.00000   0.00000   0.00001   0.00000   0.00000   0.00000   0.00000  -0.00000   0.00000 ...
   0.00010  -0.00003  -1.42770   0.00000   0.00000   0.11768   0.00000   0.00000   0.00000   0.00000  -0.00001   0.00000 ...
   0.00000   0.00000   0.00000  -1.42763   0.00000   0.00000   0.11767   0.00000   0.00000   0.00002   0.00000   0.00000 ...
   0.00000   0.00000   0.00000   0.00000  -1.42763   0.00000   0.00000   0.11767   0.00002   0.00000   0.00000   0.00000 ...
  -0.00002   0.00001   0.11768   0.00000   0.00000   0.01433   0.00000   0.00000   0.00000   0.00000   0.00000   0.00000 ...
   0.00000   0.00000   0.00000   0.11767   0.00000   0.00000   0.01433   0.00000   0.00000  -0.00000   0.00000   0.00000 ...
   0.00000   0.00000   0.00000   0.00000   0.11767   0.00000   0.00000   0.01433  -0.00000   0.00000   0.00000   0.00000 ...
   0.00000   0.00000   0.00000   0.00000   0.00002   0.00000   0.00000  -0.00000  -0.38857   0.00000   0.00000   0.00000 ...
   0.00000   0.00000   0.00000   0.00002   0.00000   0.00000  -0.00000   0.00000   0.00000  -0.38857   0.00000   0.00000 ...
   0.00001  -0.00000  -0.00001   0.00000   0.00000   0.00000   0.00000   0.00000   0.00000   0.00000  -0.38791   0.00000 ...
   0.00000   0.00000   0.00000   0.00000   0.00000   0.00000   0.00000   0.00000   0.00000   0.00000   0.00000  -0.38856 ...
   ...  only 12  components have been written...


 Augmentation waves occupancies Rhoij:
 Atom #  1
   1.99853  -0.01290   0.00000   0.00000   0.00000  -0.00001   0.00000   0.00000   0.00000   0.00000  -0.00062   0.00259 ...
  -0.01290   0.18229  -0.00096   0.00000   0.00000   0.00001   0.00000   0.00000   0.00000   0.00000   0.00718  -0.02296 ...
   0.00000  -0.00096   2.00791   0.00000   0.00000  -0.00478   0.00000   0.00000   0.00000   0.00000   0.00066  -0.00113 ...
   0.00000   0.00000   0.00000   2.00947  -0.00190   0.00000  -0.00504   0.00030  -0.00126  -0.00022   0.00000   0.00000 ...
   0.00000   0.00000   0.00000  -0.00190   2.00947   0.00000   0.00030  -0.00504  -0.00022  -0.00126   0.00000   0.00000 ...
  -0.00001   0.00001  -0.00478   0.00000   0.00000   0.00012   0.00000   0.00000   0.00000   0.00000  -0.00003  -0.00000 ...
   0.00000   0.00000   0.00000  -0.00504   0.00030   0.00000   0.00015  -0.00002   0.00000  -0.00003   0.00000   0.00000 ...
   0.00000   0.00000   0.00000   0.00030  -0.00504   0.00000  -0.00002   0.00015  -0.00003   0.00000   0.00000   0.00000 ...
   0.00000   0.00000   0.00000  -0.00126  -0.00022   0.00000   0.00000  -0.00003   0.05732  -0.00067   0.00000   0.00000 ...
   0.00000   0.00000   0.00000  -0.00022  -0.00126   0.00000  -0.00003   0.00000  -0.00067   0.05732   0.00000   0.00000 ...
  -0.00062   0.00718   0.00066   0.00000   0.00000  -0.00003   0.00000   0.00000   0.00000   0.00000   0.04021  -0.00798 ...
   0.00259  -0.02296  -0.00113   0.00000   0.00000  -0.00000   0.00000   0.00000   0.00000   0.00000  -0.00798   0.08008 ...
   ...  only 12  components have been written...
 Atom #  9
   1.99792  -0.02126   0.00009   0.00000   0.00000   0.00034   0.00000   0.00000   0.00000   0.00000  -0.00014   0.00000 ...
  -0.02126   1.01363  -0.00041   0.00000   0.00000   0.01238   0.00000   0.00000   0.00000   0.00000   0.00771   0.00000 ...
   0.00009  -0.00041   1.99274   0.00000   0.00000  -0.06172   0.00000   0.00000   0.00000   0.00000  -0.00039   0.00000 ...
   0.00000   0.00000   0.00000   1.99261   0.00000   0.00000  -0.06432   0.00000   0.00000   0.00151   0.00000   0.00000 ...
   0.00000   0.00000   0.00000   0.00000   1.99261   0.00000   0.00000  -0.06432   0.00151   0.00000   0.00000   0.00000 ...
   0.00034   0.01238  -0.06172   0.00000   0.00000   1.28343   0.00000   0.00000   0.00000   0.00000  -0.03960   0.00000 ...
   0.00000   0.00000   0.00000  -0.06432   0.00000   0.00000   1.35596   0.00000   0.00000  -0.03389   0.00000   0.00000 ...
   0.00000   0.00000   0.00000   0.00000  -0.06432   0.00000   0.00000   1.35596  -0.03389   0.00000   0.00000   0.00000 ...
   0.00000   0.00000   0.00000   0.00000   0.00151   0.00000   0.00000  -0.03389   0.50541   0.00000   0.00000   0.00000 ...
   0.00000   0.00000   0.00000   0.00151   0.00000   0.00000  -0.03389   0.00000   0.00000   0.50541   0.00000   0.00000 ...
  -0.00014   0.00771  -0.00039   0.00000   0.00000  -0.03960   0.00000   0.00000   0.00000   0.00000   1.53769   0.00000 ...
   0.00000   0.00000   0.00000   0.00000   0.00000   0.00000   0.00000   0.00000   0.00000   0.00000   0.00000   0.51099 ...
   ...  only 12  components have been written...



---OUTPUT-----------------------------------------------------------------------

 Cartesian coordinates (xcart) [bohr]
  5.06055517800517E+00  5.09363999399990E+00  5.06055517800516E+00
  1.51816655340159E+01  1.51950611489775E+01  1.51816655340159E+01
  1.01211103559865E+01  1.49424141180641E+01  1.01211103559865E+01
  1.01211103559847E+01  1.01104742638883E+01  4.91929501871532E+00
  1.01211103560368E+01  1.01104742638883E+01  1.53229256933061E+01
  1.01211103560362E+01  5.02651017960306E+00  1.01211103560362E+01
  1.53229256933061E+01  1.01104742638883E+01  1.01211103560367E+01
  4.91929501871532E+00  1.01104742638883E+01  1.01211103559847E+01
 -5.59522709137327E-13  1.11846743974230E-01 -5.60646378112523E-13
 Reduced coordinates (xred)
  2.52124919645092E-01  2.47875080354908E-01  2.52124919645092E-01
  7.52124919645092E-01  7.47875080354908E-01  7.52124919645092E-01
  7.39619400518764E-01  2.60380599481236E-01  7.39619400518764E-01
  2.43469619446486E-01  2.42573398135461E-01  7.57426601864539E-01
  7.57426601864539E-01  7.56530380553514E-01  2.43469619446487E-01
  2.48802129051228E-01  7.51197870948772E-01  2.48802129051228E-01
  2.43469619446486E-01  7.56530380553514E-01  7.57426601864539E-01
  7.57426601864539E-01  2.42573398135461E-01  2.43469619446487E-01
  5.53618853517038E-03 -5.53618853517036E-03  5.53618853517050E-03
 Cartesian forces (fcart) [Ha/bohr]; max,rms= 3.21738E-05 7.34468E-06 (free atoms)
  2.27847010278993E-22  3.36327252532148E-07 -2.82125267015983E-22
  3.33726128685780E-22  3.36327252532148E-07 -3.88004385422771E-22
  3.58561341101112E-22  1.18532912149097E-06 -4.12839597838103E-22
 -9.10514610150338E-18 -9.76308368437980E-06  1.81922910746211E-06
  9.10557026180364E-18 -9.76308368439804E-06 -1.81922910746211E-06
  3.09778029082986E-22  5.02058984510651E-06 -3.64056285819976E-22
 -1.81922910746211E-06 -9.76308368439804E-06  9.10632530194901E-18
  1.81922910746211E-06 -9.76308368437980E-06 -9.10576498448527E-18
 -1.12153583498257E-21  3.21737612658939E-05  1.06725757824558E-21
 Reduced forces (fred)
 -3.39738322372372E-06  5.49356226369714E-22 -3.39738322372372E-06
 -3.39738322372371E-06  5.49356226369714E-22 -3.39738322372372E-06
 -1.19735086634399E-05  5.49356226369715E-22 -1.19735086634399E-05
  8.02084015078115E-05 -1.84126185594910E-05  9.86210200673025E-05
  1.17033638626793E-04  1.84126185594910E-05  9.86210200673025E-05
 -5.07150924718244E-05  5.49356226369714E-22 -5.07150924718244E-05
  9.86210200673025E-05  1.84126185594910E-05  1.17033638626793E-04
  9.86210200673025E-05 -1.84126185594910E-05  8.02084015078115E-05
 -3.25000712686498E-04  5.49356226369715E-22 -3.25000712686498E-04
 Scale of Primitive Cell (acell) [bohr]
  1.42994959417369E+01  1.43134115318168E+01  1.42994959417369E+01
 Real space primitive translations (rprimd) [bohr]
  0.00000000000000E+00  1.01014211549776E+01  1.01211103559601E+01
  1.01211103560614E+01  0.00000000000000E+00  1.01211103560614E+01
  1.01211103559601E+01  1.01014211549776E+01  0.00000000000000E+00
 Unitary Cell Volume (ucvol) [Bohr^3]=  2.06951602908780E+03
 Angles (23,13,12)= [degrees]
  5.99678031504758E+01  6.00643936990484E+01  5.99678031504758E+01
 Lengths [Bohr]
  1.42994959417369E+01  1.43134115318168E+01  1.42994959417369E+01
 Stress tensor in cartesian coordinates (strten) [Ha/bohr^3]
 -8.84226174919017E-05  3.57302118934975E-14 -7.13217186268505E-14
  3.57302118934975E-14 -8.85209030028391E-05  3.57293193015484E-14
 -7.13217186268505E-14  3.57293193015484E-14 -8.84226174919008E-05
 Total energy (etotal) [Ha]= -1.71132755685506E+02

 Difference of energy with previous step (new-old):
           Absolute (Ha)=-4.29413E-06
           Relative     =-2.50924E-08

--- Iteration: (   4/1000) Internal Cycle: (1/1)
--------------------------------------------------------------------------------

---SELF-CONSISTENT-FIELD CONVERGENCE--------------------------------------------

--- !BeginCycle
iteration_state: {dtset: 1, itime: 4, icycle: 1, }
solver: {iscf: 17, nstep: 50, nline: 4, wfoptalg: 10, }
tolerances: {toldff: 1.00E-08, }
...

     iter   Etot(hartree)      deltaE(h)  residm     nres2    diffor    maxfor
 ETOT  1  -171.13275567694    -1.711E+02 6.394E-06 4.603E-07 3.813E-05 6.501E-05
 ETOT  2  -171.13275568040    -3.462E-09 6.384E-06 6.405E-08 3.080E-05 3.959E-05
 ETOT  3  -171.13275568400    -3.601E-09 6.981E-06 3.990E-09 8.777E-06 3.274E-05
 ETOT  4  -171.13275568529    -1.292E-09 6.334E-06 1.499E-09 3.216E-06 3.009E-05
 ETOT  5  -171.13275568596    -6.730E-10 6.910E-06 4.723E-10 6.832E-07 2.969E-05
 ETOT  6  -171.13275568673    -7.669E-10 6.250E-06 6.006E-11 1.502E-06 2.930E-05
 ETOT  7  -171.13275568690    -1.650E-10 6.802E-06 2.068E-11 1.354E-07 2.926E-05
 ETOT  8  -171.13275568707    -1.736E-10 6.134E-06 1.915E-12 1.741E-07 2.925E-05
 ETOT  9  -171.13275568711    -4.292E-11 6.658E-06 1.681E-12 2.313E-08 2.923E-05
 ETOT 10  -171.13275568712    -1.108E-11 5.988E-06 2.738E-13 7.849E-09 2.922E-05
 ETOT 11  -171.13275568714    -1.893E-11 6.483E-06 1.047E-13 1.154E-08 2.921E-05
 ETOT 12  -171.13275568715    -1.009E-11 5.814E-06 2.869E-14 5.112E-09 2.921E-05
 ETOT 13  -171.13275568717    -1.299E-11 6.280E-06 1.325E-14 2.823E-09 2.921E-05

 At SCF step   13, forces are converged : 
  for the second time, max diff in force=  2.823E-09 < toldff=  1.000E-08

 Cartesian components of stress tensor (hartree/bohr^3)
  sigma(1 1)= -8.84175514E-05  sigma(3 2)=  3.57302356E-14
  sigma(2 2)= -8.85129118E-05  sigma(3 1)= -7.13235030E-14
  sigma(3 3)= -8.84175514E-05  sigma(2 1)=  3.57306811E-14


--- !ResultsGS
iteration_state: {dtset: 1, itime: 4, icycle: 1, }
comment   : Summary of ground state results
lattice_vectors:
- [  0.0000000,  10.1014404,  10.1211007, ]
- [ 10.1211007,   0.0000000,  10.1211007, ]
- [ 10.1211007,  10.1014404,   0.0000000, ]
lattice_lengths: [  14.29950,   14.31340,   14.29950, ]
lattice_angles: [ 59.968,  60.064,  59.968, ] # degrees, (23, 13, 12)
lattice_volume:   2.0695160E+03
convergence: {deltae: -1.299E-11, res2:  1.325E-14, residm:  6.280E-06, diffor:  2.823E-09, }
etotal    :  -1.71132756E+02
entropy   :   0.00000000E+00
fermie    :  -5.35837137E-02
cartesian_stress_tensor: # hartree/bohr^3
- [ -8.84175514E-05,   3.57306811E-14,  -7.13235030E-14, ]
- [  3.57306811E-14,  -8.85129118E-05,   3.57302356E-14, ]
- [ -7.13235030E-14,   3.57302356E-14,  -8.84175514E-05, ]
pressure_GPa:   2.6023E+00
xred      :
- [  2.5212E-01,   2.4788E-01,   2.5212E-01, Cs]
- [  7.5212E-01,   7.4788E-01,   7.5212E-01, Cs]
- [  7.3962E-01,   2.6038E-01,   7.3962E-01,  I]
- [  2.4347E-01,   2.4257E-01,   7.5743E-01, Br]
- [  7.5743E-01,   7.5653E-01,   2.4347E-01, Br]
- [  2.4880E-01,   7.5120E-01,   2.4880E-01, Br]
- [  2.4347E-01,   7.5653E-01,   7.5743E-01, Br]
- [  7.5743E-01,   2.4257E-01,   2.4347E-01, Br]
- [  5.5377E-03,  -5.5377E-03,   5.5377E-03, Hf]
cartesian_forces: # hartree/bohr
- [ -2.79691171E-22,   2.63283573E-07,   1.85693453E-22, ]
- [ -2.68596514E-22,   2.63283573E-07,   1.74598796E-22, ]
- [ -3.23858449E-22,   3.95948259E-06,   2.29860731E-22, ]
- [ -1.66733182E-18,  -9.43442286E-06,   3.33014393E-07, ]
- [  1.66658986E-18,  -9.43442286E-06,  -3.33014393E-07, ]
- [ -5.41531508E-22,   4.03829197E-06,   4.47533790E-22, ]
- [ -3.33014393E-07,  -9.43442286E-06,   1.66665635E-18, ]
- [  3.33014393E-07,  -9.43442286E-06,  -1.66592488E-18, ]
- [  3.03414018E-21,   2.92133497E-05,  -3.12813790E-21, ]
force_length_stats: {min:   2.63283573E-07, max:   2.92133497E-05, mean:   8.38876499E-06, }
...

 Integrated electronic density in atomic spheres:
 ------------------------------------------------
 Atom  Sphere_radius  Integrated_density
    1        2.20660          5.36497251
    2        2.20660          5.36497251
    3        2.30022          4.04064814
    4        2.20000          4.94840714
    5        2.20000          4.94840714
    6        2.20000          4.94483291
    7        2.20000          4.94840714
    8        2.20000          4.94840714
    9        2.41000          9.32457308

 PAW TEST:
 ==== Compensation charge inside spheres ============
 The following values must be close to each other ...
 Compensation charge over spherical meshes =     -0.328815715050600
 Compensation charge over fine fft grid    =     -0.328818013033348

 ==== Results concerning PAW augmentation regions ====

 Total pseudopotential strength Dij (hartree):
 Atom #  1
   0.42693  -0.14145  -0.00000   0.00000   0.00000   0.00000   0.00000   0.00000   0.00000   0.00000  -0.00000   0.00000 ...
  -0.14145   0.04253   0.00000   0.00000   0.00000  -0.00000   0.00000   0.00000   0.00000   0.00000   0.00000  -0.00000 ...
  -0.00000   0.00000  -0.09193   0.00000   0.00000  -0.16756   0.00000   0.00000   0.00000   0.00000   0.00000  -0.00000 ...
   0.00000   0.00000   0.00000  -0.09193   0.00000   0.00000  -0.16756  -0.00000  -0.00000  -0.00000   0.00000   0.00000 ...
   0.00000   0.00000   0.00000   0.00000  -0.09193   0.00000  -0.00000  -0.16756  -0.00000  -0.00000   0.00000   0.00000 ...
   0.00000  -0.00000  -0.16756   0.00000   0.00000   0.40001   0.00000   0.00000   0.00000   0.00000  -0.00000   0.00000 ...
   0.00000   0.00000   0.00000  -0.16756  -0.00000   0.00000   0.40001   0.00001   0.00000   0.00000   0.00000   0.00000 ...
   0.00000   0.00000   0.00000  -0.00000  -0.16756   0.00000   0.00001   0.40001   0.00000   0.00000   0.00000   0.00000 ...
   0.00000   0.00000   0.00000  -0.00000  -0.00000   0.00000   0.00000   0.00000   0.00546   0.00000   0.00000   0.00000 ...
   0.00000   0.00000   0.00000  -0.00000  -0.00000   0.00000   0.00000   0.00000   0.00000   0.00546   0.00000   0.00000 ...
  -0.00000   0.00000   0.00000   0.00000   0.00000  -0.00000   0.00000   0.00000   0.00000   0.00000   0.00546   0.00000 ...
   0.00000  -0.00000  -0.00000   0.00000   0.00000   0.00000   0.00000   0.00000   0.00000   0.00000   0.00000   0.00546 ...
   ...  only 12  components have been written...
 Atom #  9
  -3.50116   0.42204   0.00010   0.00000   0.00000  -0.00002   0.00000   0.00000   0.00000   0.00000   0.00001   0.00000 ...
   0.42204   0.00407  -0.00003   0.00000   0.00000   0.00001   0.00000   0.00000   0.00000   0.00000  -0.00000   0.00000 ...
   0.00010  -0.00003  -1.42770   0.00000   0.00000   0.11768   0.00000   0.00000   0.00000   0.00000  -0.00001   0.00000 ...
   0.00000   0.00000   0.00000  -1.42763   0.00000   0.00000   0.11767   0.00000   0.00000   0.00002   0.00000   0.00000 ...
   0.00000   0.00000   0.00000   0.00000  -1.42763   0.00000   0.00000   0.11767   0.00002   0.00000   0.00000   0.00000 ...
  -0.00002   0.00001   0.11768   0.00000   0.00000   0.01433   0.00000   0.00000   0.00000   0.00000   0.00000   0.00000 ...
   0.00000   0.00000   0.00000   0.11767   0.00000   0.00000   0.01433   0.00000   0.00000  -0.00000   0.00000   0.00000 ...
   0.00000   0.00000   0.00000   0.00000   0.11767   0.00000   0.00000   0.01433  -0.00000   0.00000   0.00000   0.00000 ...
   0.00000   0.00000   0.00000   0.00000   0.00002   0.00000   0.00000  -0.00000  -0.38857   0.00000   0.00000   0.00000 ...
   0.00000   0.00000   0.00000   0.00002   0.00000   0.00000  -0.00000   0.00000   0.00000  -0.38857   0.00000   0.00000 ...
   0.00001  -0.00000  -0.00001   0.00000   0.00000   0.00000   0.00000   0.00000   0.00000   0.00000  -0.38791   0.00000 ...
[...]
                       5.00000000E-01  2.50000000E-01  1.25000000E-01
                      -3.75000000E-01  3.75000000E-01  1.25000000E-01
         kptrlatt        4    4   -4     -4    4    4      4   -4    4
          kptrlen1     8.08132396E+01
          kptrlen2     8.07323455E+01
          kptrlen3     8.06514514E+01
          kptrlen4     8.05705572E+01
          kptrlen5     8.04896631E+01
P           mkmem           4
            natom           9
            nband          42
           ndtset           5
            ngfft          60      60      60
          ngfftdg          96      96      96
             nkpt          20
            nstep          50
             nsym           8
            ntime        1000
           ntypat           4
              occ      2.000000  2.000000  2.000000  2.000000  2.000000  2.000000
                       2.000000  2.000000  2.000000  2.000000  2.000000  2.000000
                       2.000000  2.000000  2.000000  2.000000  2.000000  2.000000
                       2.000000  2.000000  2.000000  2.000000  2.000000  2.000000
                       2.000000  2.000000  2.000000  2.000000  2.000000  2.000000
                       2.000000  2.000000  2.000000  2.000000  2.000000  2.000000
                       0.000000  0.000000  0.000000  0.000000  0.000000  0.000000
          optcell           3
        optforces           1
        pawecutdg      4.00000000E+01 Hartree
            prtwf           0
            rprim1     0.0000000000E+00  7.0645046651E-01  7.0776248726E-01
                       7.0710678119E-01  0.0000000000E+00  7.0710678119E-01
                       7.0776248726E-01  7.0645046651E-01  0.0000000000E+00
            rprim2     0.0000000000E+00  7.0660220030E-01  7.0761100227E-01
                       7.0710678119E-01  0.0000000000E+00  7.0710678119E-01
                       7.0761100227E-01  7.0660220030E-01  0.0000000000E+00
            rprim3     0.0000000000E+00  7.0655349666E-01  7.0765963312E-01
                       7.0710678119E-01  0.0000000000E+00  7.0710678119E-01
                       7.0765963312E-01  7.0655349666E-01  0.0000000000E+00
            rprim4     0.0000000000E+00  7.0667183063E-01  7.0754146436E-01
                       7.0710678119E-01  0.0000000000E+00  7.0710678119E-01
                       7.0754146436E-01  7.0667183063E-01  0.0000000000E+00
            rprim5     0.0000000000E+00  7.0661787742E-01  7.0759534715E-01
                       7.0710678119E-01  0.0000000000E+00  7.0710678119E-01
                       7.0759534715E-01  7.0661787742E-01  0.0000000000E+00
           shiftk     -5.00000000E-01  5.00000000E-01  5.00000000E-01
          spgroup         107
           strten1    -8.8456206742E-05 -8.8460154120E-05 -8.8456206742E-05
                       3.5728854450E-14 -7.1326733300E-14  3.5729743944E-14
           strten2    -9.0760361987E-05 -9.0759537716E-05 -9.0760361987E-05
                       3.5926653406E-14 -7.1748886199E-14  3.5927028333E-14
           strten3    -9.3123153195E-05 -9.3200283989E-05 -9.3123153195E-05
                       3.6139087832E-14 -7.2161346648E-14  3.6136632356E-14
           strten4    -9.5561872914E-05 -9.5567701003E-05 -9.5561872914E-05
                       3.6337780949E-14 -7.2589443674E-14  3.6339573917E-14
           strten5    -9.8099273582E-05 -9.8206970133E-05 -9.8099273582E-05
                       3.6551750827E-14 -7.3002533886E-14  3.6552164489E-14
           symrel      1  0  0   0  1  0   0  0  1       0  0  1   0  1  0   1  0  0
                       0 -1  1   0 -1  0   1 -1  0       1 -1  0   0 -1  0   0 -1  1
                       0 -1  1  -1  0  1   0  0  1       0  0  1  -1  0  1   0 -1  1
                       1  0  0   1  0 -1   1 -1  0       1 -1  0   1  0 -1   1  0  0
           toldff      1.00000000E-08
           tolmxf      1.00000000E-05
            typat      1  1  2  4  4  4  4  4  3
           useylm           1
              wtk        0.03125    0.03125    0.06250    0.03125    0.06250    0.06250
                         0.03125    0.06250    0.03125    0.06250    0.06250    0.06250
                         0.03125    0.06250    0.06250    0.03125    0.06250    0.03125
                         0.06250    0.06250
           xangst1     2.6778485414E+00  2.6955989446E+00  2.6778485414E+00
                       8.0335456242E+00  8.0413678582E+00  8.0335456242E+00
                       5.3556970828E+00  7.9078806022E+00  5.3556970828E+00
                       5.3556970828E+00  5.3503986158E+00  2.6031170913E+00
                       5.3556970828E+00  5.3503986158E+00  8.1082770743E+00
                       5.3556970828E+00  2.6601857103E+00  5.3556970828E+00
                       8.1082770743E+00  5.3503986158E+00  5.3556970828E+00
                       2.6031170913E+00  5.3503986158E+00  5.3556970828E+00
                      -2.9775380625E-13  5.9523730308E-02 -2.9835305340E-13
           xangst2     2.6747856539E+00  2.6938174743E+00  2.6747856539E+00
                       8.0243569618E+00  8.0357621935E+00  8.0243569618E+00
                       5.3495713079E+00  7.9013717548E+00  5.3495713079E+00
                       5.3495713079E+00  5.3463478192E+00  2.6026539763E+00
                       5.3495713079E+00  5.3463478192E+00  8.0964886395E+00
                       5.3495713079E+00  2.6597403020E+00  5.3495713079E+00
                       8.0964886395E+00  5.3463478192E+00  5.3495713079E+00
                       2.6026539763E+00  5.3463478192E+00  5.3495713079E+00
                      -2.9923962997E-13  5.9474752582E-02 -2.9923034995E-13
           xangst3     2.6722281177E+00  2.6911149467E+00  2.6722281177E+00
                       8.0166843530E+00  8.0272173101E+00  8.0166843530E+00
                       5.3444562353E+00  7.8909469073E+00  5.3444562353E+00
                       5.3444562353E+00  5.3401756391E+00  2.6021441199E+00
                       5.3444562354E+00  5.3401756391E+00  8.0867683508E+00
                       5.3444562354E+00  2.6593620311E+00  5.3444562354E+00
                       8.0867683508E+00  5.3401756391E+00  5.3444562354E+00
                       2.6021441199E+00  5.3401756391E+00  5.3444562353E+00
                      -2.9939917227E-13  5.9475155954E-02 -2.9940964941E-13
           xangst4     2.6692502412E+00  2.6891021577E+00  2.6692502412E+00
                       8.0077507236E+00  8.0210411305E+00  8.0077507236E+00
                       5.3385004824E+00  7.8837650756E+00  5.3385004824E+00
                       5.3385004824E+00  5.3357422097E+00  2.6016046652E+00
                       5.3385004824E+00  5.3357422097E+00  8.0753962996E+00
                       5.3385004824E+00  2.6590632876E+00  5.3385004824E+00
                       8.0753962996E+00  5.3357422097E+00  5.3385004824E+00
                       2.6016046652E+00  5.3357422097E+00  5.3385004824E+00
                      -2.9878124816E-13  5.9571292612E-02 -2.9835061993E-13
           xangst5     2.6667058281E+00  2.6858711544E+00  2.6667058281E+00
                       8.0001174843E+00  8.0119152544E+00  8.0001174843E+00
                       5.3334116562E+00  7.8734824404E+00  5.3334116562E+00
                       5.3334116562E+00  5.3296269882E+00  2.6010030000E+00
                       5.3334116562E+00  5.3296269882E+00  8.0658203124E+00
                       5.3334116562E+00  2.6587159186E+00  5.3334116562E+00
                       8.0658203124E+00  5.3296269882E+00  5.3334116562E+00
                       2.6010030000E+00  5.3296269882E+00  5.3334116562E+00
                      -3.0011507823E-13  5.9860079882E-02 -3.0011507823E-13
            xcart1     5.0604003686E+00  5.0939437694E+00  5.0604003686E+00
                       1.5181201106E+01  1.5195982986E+01  1.5181201106E+01
                       1.0120800737E+01  1.4943728630E+01  1.0120800737E+01
                       1.0120800737E+01  1.0110788086E+01  4.9191783943E+00
                       1.0120800737E+01  1.0110788086E+01  1.5322423080E+01
                       1.0120800737E+01  5.0270224551E+00  1.0120800737E+01
                       1.5322423080E+01  1.0110788086E+01  1.0120800737E+01
                       4.9191783943E+00  1.0110788086E+01  1.0120800737E+01
                      -5.6267314884E-13  1.1248354869E-01 -5.6380556184E-13
            xcart2     5.0546123501E+00  5.0905772784E+00  5.0546123501E+00
                       1.5163837050E+01  1.5185389815E+01  1.5163837050E+01
                       1.0109224700E+01  1.4931428691E+01  1.0109224700E+01
                       1.0109224700E+01  1.0103133189E+01  4.9183032338E+00
                       1.0109224700E+01  1.0103133189E+01  1.5300146167E+01
                       1.0109224700E+01  5.0261807555E+00  1.0109224700E+01
                       1.5300146167E+01  1.0103133189E+01  1.0109224700E+01
                       4.9183032338E+00  1.0103133189E+01  1.0109224700E+01
                      -5.6548094876E-13  1.1239099420E-01 -5.6546341205E-13
            xcart3     5.0497793070E+00  5.0854702414E+00  5.0497793070E+00
                       1.5149337921E+01  1.5169242325E+01  1.5149337921E+01
                       1.0099558614E+01  1.4911728584E+01  1.0099558614E+01
                       1.0099558614E+01  1.0091469459E+01  4.9173397448E+00
                       1.0099558614E+01  1.0091469459E+01  1.5281777483E+01
                       1.0099558614E+01  5.0254659270E+00  1.0099558614E+01
                       1.5281777483E+01  1.0091469459E+01  1.0099558614E+01
                       4.9173397448E+00  1.0091469459E+01  1.0099558614E+01
                      -5.6578244001E-13  1.1239175646E-01 -5.6580223894E-13
            xcart4     5.0441519360E+00  5.0816666214E+00  5.0441519360E+00
                       1.5132455808E+01  1.5157571037E+01  1.5132455808E+01
                       1.0088303872E+01  1.4898156889E+01  1.0088303872E+01
                       1.0088303872E+01  1.0083091492E+01  4.9163203233E+00
                       1.0088303872E+01  1.0083091492E+01  1.5260287421E+01
                       1.0088303872E+01  5.0249013835E+00  1.0088303872E+01
                       1.5260287421E+01  1.0083091492E+01  1.0088303872E+01
                       4.9163203233E+00  1.0083091492E+01  1.0088303872E+01
                      -5.6461473265E-13  1.1257342842E-01 -5.6380096324E-13
            xcart5     5.0393436921E+00  5.0755609100E+00  5.0393436921E+00
                       1.5118031076E+01  1.5140325631E+01  1.5118031076E+01
                       1.0078687384E+01  1.4878725524E+01  1.0078687384E+01
                       1.0078687384E+01  1.0071535398E+01  4.9151833408E+00
                       1.0078687384E+01  1.0071535398E+01  1.5242191428E+01
                       1.0078687384E+01  5.0242449513E+00  1.0078687384E+01
                       1.5242191428E+01  1.0071535398E+01  1.0078687384E+01
                       4.9151833408E+00  1.0071535398E+01  1.0078687384E+01
                      -5.6713530620E-13  1.1311915727E-01 -5.6713530620E-13
             xred1     2.5212452953E-01  2.4787547047E-01  2.5212452953E-01
                       7.5212452953E-01  7.4787547047E-01  7.5212452953E-01
                       7.3963921094E-01  2.6036078906E-01  7.3963921094E-01
                       2.4345620668E-01  2.4259015685E-01  7.5740984315E-01
                       7.5740984315E-01  7.5654379332E-01  2.4345620668E-01
                       2.4881226193E-01  7.5118773807E-01  2.4881226193E-01
                       2.4345620668E-01  7.5654379332E-01  7.5740984315E-01
                       7.5740984315E-01  2.4259015685E-01  2.4345620668E-01
                       5.5673684432E-03 -5.5673684432E-03  5.5673684432E-03
             xred2     2.5213827696E-01  2.4786172304E-01  2.5213827696E-01
                       7.5213827696E-01  7.4786172304E-01  7.5213827696E-01
                       7.3955948350E-01  2.6044051650E-01  7.3955948350E-01
                       2.4367030669E-01  2.4284605631E-01  7.5715394369E-01
                       7.5715394369E-01  7.5632969331E-01  2.4367030669E-01
                       2.4894869208E-01  7.5105130792E-01  2.4894869208E-01
                       2.4367030669E-01  7.5632969331E-01  7.5715394369E-01
                       7.5715394369E-01  2.4284605631E-01  2.4367030669E-01
                       5.5667697540E-03 -5.5667697540E-03  5.5667697540E-03
             xred3     2.5216110594E-01  2.4783889406E-01  2.5216110594E-01
                       7.5216110594E-01  7.4783889406E-01  7.5216110594E-01
                       7.3939238511E-01  2.6060761489E-01  7.3939238511E-01
                       2.4382497092E-01  2.4306162806E-01  7.5693837194E-01
                       7.5693837194E-01  7.5617502908E-01  2.4382497092E-01
                       2.4918581485E-01  7.5081418515E-01  2.4918581485E-01
                       2.4382497092E-01  7.5617502908E-01  7.5693837194E-01
                       7.5693837194E-01  2.4306162806E-01  2.4382497092E-01
                       5.5729024580E-03 -5.5729024580E-03  5.5729024580E-03
             xred4     2.5216925507E-01  2.4783074493E-01  2.5216925507E-01
                       7.5216925507E-01  7.4783074493E-01  7.5216925507E-01
                       7.3929625937E-01  2.6070374063E-01  7.3929625937E-01
                       2.4402101217E-01  2.4330771877E-01  7.5669228123E-01
                       7.5669228123E-01  7.5597898783E-01  2.4402101217E-01
                       2.4935237454E-01  7.5064762546E-01  2.4935237454E-01
                       2.4402101217E-01  7.5597898783E-01  7.5669228123E-01
                       7.5669228123E-01  2.4330771877E-01  2.4402101217E-01
                       5.5862691711E-03 -5.5862691711E-03  5.5862691711E-03
             xred5     2.5214503522E-01  2.4785496478E-01  2.5214503522E-01
                       7.5214503522E-01  7.4785496478E-01  7.5214503522E-01
                       7.3914919709E-01  2.6085080291E-01  7.3914919709E-01
                       2.4417680579E-01  2.4350409485E-01  7.5649590515E-01
                       7.5649590515E-01  7.5582319421E-01  2.4417680579E-01
                       2.4959574768E-01  7.5040425232E-01  2.4959574768E-01
                       2.4417680579E-01  7.5582319421E-01  7.5649590515E-01
                       7.5649590515E-01  2.4350409485E-01  2.4417680579E-01
                       5.6195629212E-03 -5.6195629212E-03  5.6195629212E-03
            znucl       55.00000   53.00000   72.00000   35.00000

================================================================================


- Timing analysis has been suppressed with timopt=0



================================================================================

 Suggested references for the acknowledgment of ABINIT usage.

 The users of ABINIT have little formal obligations with respect to the ABINIT group
 (those specified in the GNU General Public License, http://www.gnu.org/copyleft/gpl.txt).
 However, it is common practice in the scientific literature,
 to acknowledge the efforts of people that have made the research possible.
 In this spirit, please find below suggested citations of work written by ABINIT developers,
 corresponding to implementations inside of ABINIT that you have used in the present run.
 Note also that it will be of great value to readers of publications presenting these results,
 to read papers enabling them to understand the theoretical formalism and details
 of the ABINIT implementation.
 For information on why they are suggested, see also https://docs.abinit.org/theory/acknowledgments.
-
- [1] Implementation of the Projector Augmented-Wave Method in the ABINIT code.
- M. Torrent, F. Jollet, F. Bottin, G. Zerah, and X. Gonze Comput. Mat. Science 42, 337, (2008).
- Comment: PAW calculations. Strong suggestion to cite this paper.
- DOI and bibtex: see https://docs.abinit.org/theory/bibliography/#torrent2008
-
- [2] Libxc: A library of exchange and correlation functionals for density functional theory.
- M.A.L. Marques, M.J.T. Oliveira, T. Burnus, Computer Physics Communications 183, 2227 (2012).
- Comment: to be cited when LibXC is used (negative value of ixc)
- Strong suggestion to cite this paper.
- DOI and bibtex: see https://docs.abinit.org/theory/bibliography/#marques2012
-
- [3] The Abinit project: Impact, environment and recent developments.
- Computer Phys. Comm. 248, 107042 (2020).
- X.Gonze, B. Amadon, G. Antonius, F.Arnardi, L.Baguet, J.-M.Beuken,
- J.Bieder, F.Bottin, J.Bouchet, E.Bousquet, N.Brouwer, F.Bruneval,
- G.Brunin, T.Cavignac, J.-B. Charraud, Wei Chen, M.Cote, S.Cottenier,
- J.Denier, G.Geneste, Ph.Ghosez, M.Giantomassi, Y.Gillet, O.Gingras,
- D.R.Hamann, G.Hautier, Xu He, N.Helbig, N.Holzwarth, Y.Jia, F.Jollet,
- W.Lafargue-Dit-Hauret, K.Lejaeghere, M.A.L.Marques, A.Martin, C.Martins,
- H.P.C. Miranda, F.Naccarato, K. Persson, G.Petretto, V.Planes, Y.Pouillon,
- S.Prokhorenko, F.Ricci, G.-M.Rignanese, A.H.Romero, M.M.Schmitt, M.Torrent,
- M.J.van Setten, B.Van Troeye, M.J.Verstraete, G.Zerah and J.W.Zwanzig
- Comment: the fifth generic paper describing the ABINIT project.
- Note that a version of this paper, that is not formatted for Computer Phys. Comm. 
- is available at https://www.abinit.org/sites/default/files/ABINIT20.pdf .
- The licence allows the authors to put it on the Web.
- DOI and bibtex: see https://docs.abinit.org/theory/bibliography/#gonze2020
-
- [4] ABINIT: Overview, and focus on selected capabilities
- J. Chem. Phys. 152, 124102 (2020).
- A. Romero, D.C. Allan, B. Amadon, G. Antonius, T. Applencourt, L.Baguet,
- J.Bieder, F.Bottin, J.Bouchet, E.Bousquet, F.Bruneval,
- G.Brunin, D.Caliste, M.Cote,
- J.Denier, C. Dreyer, Ph.Ghosez, M.Giantomassi, Y.Gillet, O.Gingras,
- D.R.Hamann, G.Hautier, F.Jollet, G. Jomard,
- A.Martin, 
- H.P.C. Miranda, F.Naccarato, G.Petretto, N.A. Pike, V.Planes,
- S.Prokhorenko, T. Rangel, F.Ricci, G.-M.Rignanese, M.Royo, M.Stengel, M.Torrent,
- M.J.van Setten, B.Van Troeye, M.J.Verstraete, J.Wiktor, J.W.Zwanziger, and X.Gonze.
- Comment: a global overview of ABINIT, with focus on selected capabilities .
- Note that a version of this paper, that is not formatted for J. Chem. Phys 
- is available at https://www.abinit.org/sites/default/files/ABINIT20_JPC.pdf .
- The licence allows the authors to put it on the Web.
- DOI and bibtex: see https://docs.abinit.org/theory/bibliography/#romero2020
-
- [5] Recent developments in the ABINIT software package.
- Computer Phys. Comm. 205, 106 (2016).
- X.Gonze, F.Jollet, F.Abreu Araujo, D.Adams, B.Amadon, T.Applencourt,
- C.Audouze, J.-M.Beuken, J.Bieder, A.Bokhanchuk, E.Bousquet, F.Bruneval
- D.Caliste, M.Cote, F.Dahm, F.Da Pieve, M.Delaveau, M.Di Gennaro,
- B.Dorado, C.Espejo, G.Geneste, L.Genovese, A.Gerossier, M.Giantomassi,
- Y.Gillet, D.R.Hamann, L.He, G.Jomard, J.Laflamme Janssen, S.Le Roux,
- A.Levitt, A.Lherbier, F.Liu, I.Lukacevic, A.Martin, C.Martins,
- M.J.T.Oliveira, S.Ponce, Y.Pouillon, T.Rangel, G.-M.Rignanese,
- A.H.Romero, B.Rousseau, O.Rubel, A.A.Shukri, M.Stankovski, M.Torrent,
- M.J.Van Setten, B.Van Troeye, M.J.Verstraete, D.Waroquier, J.Wiktor,
- B.Xu, A.Zhou, J.W.Zwanziger.
- Comment: the fourth generic paper describing the ABINIT project.
- Note that a version of this paper, that is not formatted for Computer Phys. Comm. 
- is available at https://www.abinit.org/sites/default/files/ABINIT16.pdf .
- The licence allows the authors to put it on the Web.
- DOI and bibtex: see https://docs.abinit.org/theory/bibliography/#gonze2016
-
- Proc.   0 individual time (sec): cpu=      13178.5  wall=      13179.1

================================================================================

 Calculation completed.
.Delivered   0 WARNINGs and  78 COMMENTs to log file.
+Overall time at end (sec) : cpu=      79070.4  wall=      79074.2
