
.Version 9.2.2 of ABINIT 
.(MPI version, prepared for a x86_64_linux_gnu9.3 computer) 

.Copyright (C) 1998-2020 ABINIT group . 
 ABINIT comes with ABSOLUTELY NO WARRANTY.
 It is free software, and you are welcome to redistribute it
 under certain conditions (GNU General Public License,
 see ~abinit/COPYING or http://www.gnu.org/copyleft/gpl.txt).

 ABINIT is a project of the Universite Catholique de Louvain,
 Corning Inc. and other collaborators, see ~abinit/doc/developers/contributors.txt .
 Please read https://docs.abinit.org/theory/acknowledgments for suggested
 acknowledgments of the ABINIT effort.
 For more information, see https://www.abinit.org .

.Starting date : Fri 14 Jul 2023.
- ( at 21h08 )
  
- The starting date is more than 2 years after the initial release
- of this version of ABINIT, namely Nov 2020.
- Note that the use beyond 3 years after the release will not be supported.
- Action: please, switch to a more recent version of ABINIT.

- input  file    -> Cs2TiI6.in
- output file    -> Cs2TiI6.out
- root for input  files -> Cs2TiI6i
- root for output files -> Cs2TiI6o


 Symmetries : space group Fm -3 m (#225); Bravais cF (face-center cubic)
================================================================================
 Values of the parameters that define the memory need of the present run
     intxc =       0    ionmov =       0      iscf =      17    lmnmax =       8
     lnmax =       8     mgfft =      64  mpssoang =       4    mqgrid =    3001
     natom =       9  nloc_mem =       1    nspden =       1   nspinor =       1
    nsppol =       1      nsym =      48    n1xccc =    2501    ntypat =       3
    occopt =       1   xclevel =       2
-    mband =          42        mffmem =           1         mkmem =          12
       mpw =       10233          nfft =      262144          nkpt =          72
================================================================================
P This job should need less than                     172.260 Mbytes of memory.
  Rough estimation (10% accuracy) of disk space for files :
_ WF disk file :    472.179 Mbytes ; DEN or POT disk file :      2.002 Mbytes.
================================================================================

--------------------------------------------------------------------------------
------------- Echo of variables that govern the present computation ------------
--------------------------------------------------------------------------------
-
- outvars: echo of selected default values                                      
-   iomode0 =  0 , fftalg0 =112 , wfoptalg0 =  0
-
- outvars: echo of global parameters not present in the input file              
-  max_nthreads =    0
-
 -outvars: echo values of preprocessed input variables --------
            acell      1.4994857538E+01  1.4994857538E+01  1.4994857538E+01 Bohr
              amu      1.32905430E+02  7.99040000E+01  1.78490000E+02
           diemac      1.20000000E+01
             ecut      2.00000000E+01 Hartree
-          fftalg         112
             iscf          17
           istwfk        2    0    0    0    0    0    3    0    0    0
                         0    0    0    0    0    0    0    0    0    0
                         0    0    0    0    0    0    0    0    0    0
                         0    0    0    0    0    0    0    0    0    0
                         0    0    7    0    0    0    0    0    0    0
                       outvar_i_n : Printing only first  50 k-points.
              ixc          32
              kpt      0.00000000E+00  0.00000000E+00  0.00000000E+00
                       8.33333333E-02  0.00000000E+00  0.00000000E+00
                       1.66666667E-01  0.00000000E+00  0.00000000E+00
                       2.50000000E-01  0.00000000E+00  0.00000000E+00
                       3.33333333E-01  0.00000000E+00  0.00000000E+00
                       4.16666667E-01  0.00000000E+00  0.00000000E+00
                       5.00000000E-01  0.00000000E+00  0.00000000E+00
                       8.33333333E-02  8.33333333E-02  0.00000000E+00
                       1.66666667E-01  8.33333333E-02  0.00000000E+00
                       2.50000000E-01  8.33333333E-02  0.00000000E+00
                       3.33333333E-01  8.33333333E-02  0.00000000E+00
                       4.16666667E-01  8.33333333E-02  0.00000000E+00
                       5.00000000E-01  8.33333333E-02  0.00000000E+00
                      -4.16666667E-01  8.33333333E-02  0.00000000E+00
                      -3.33333333E-01  8.33333333E-02  0.00000000E+00
                      -2.50000000E-01  8.33333333E-02  0.00000000E+00
                      -1.66666667E-01  8.33333333E-02  0.00000000E+00
                      -8.33333333E-02  8.33333333E-02  0.00000000E+00
                       1.66666667E-01  1.66666667E-01  0.00000000E+00
                       2.50000000E-01  1.66666667E-01  0.00000000E+00
                       3.33333333E-01  1.66666667E-01  0.00000000E+00
                       4.16666667E-01  1.66666667E-01  0.00000000E+00
                       5.00000000E-01  1.66666667E-01  0.00000000E+00
                      -4.16666667E-01  1.66666667E-01  0.00000000E+00
                      -3.33333333E-01  1.66666667E-01  0.00000000E+00
                      -2.50000000E-01  1.66666667E-01  0.00000000E+00
                      -1.66666667E-01  1.66666667E-01  0.00000000E+00
                       2.50000000E-01  2.50000000E-01  0.00000000E+00
                       3.33333333E-01  2.50000000E-01  0.00000000E+00
                       4.16666667E-01  2.50000000E-01  0.00000000E+00
                       5.00000000E-01  2.50000000E-01  0.00000000E+00
                      -4.16666667E-01  2.50000000E-01  0.00000000E+00
                      -3.33333333E-01  2.50000000E-01  0.00000000E+00
                      -2.50000000E-01  2.50000000E-01  0.00000000E+00
                       3.33333333E-01  3.33333333E-01  0.00000000E+00
                       4.16666667E-01  3.33333333E-01  0.00000000E+00
                       5.00000000E-01  3.33333333E-01  0.00000000E+00
                      -4.16666667E-01  3.33333333E-01  0.00000000E+00
                      -3.33333333E-01  3.33333333E-01  0.00000000E+00
                       4.16666667E-01  4.16666667E-01  0.00000000E+00
                       5.00000000E-01  4.16666667E-01  0.00000000E+00
                      -4.16666667E-01  4.16666667E-01  0.00000000E+00
                       5.00000000E-01  5.00000000E-01  0.00000000E+00
                       2.50000000E-01  1.66666667E-01  8.33333333E-02
                       3.33333333E-01  1.66666667E-01  8.33333333E-02
                       4.16666667E-01  1.66666667E-01  8.33333333E-02
                       5.00000000E-01  1.66666667E-01  8.33333333E-02
                      -4.16666667E-01  1.66666667E-01  8.33333333E-02
                       3.33333333E-01  2.50000000E-01  8.33333333E-02
                       4.16666667E-01  2.50000000E-01  8.33333333E-02
                       outvar_i_n : Printing only first  50 k-points.
         kptrlatt       12    0    0      0   12    0      0    0   12
          kptrlen      1.79938290E+02
P           mkmem          12
            natom           9
            nband          42
            ngfft          64      64      64
             nkpt          72
            nstep        2500
             nsym          48
           ntypat           3
              occ      2.000000  2.000000  2.000000  2.000000  2.000000  2.000000
                       2.000000  2.000000  2.000000  2.000000  2.000000  2.000000
                       2.000000  2.000000  2.000000  2.000000  2.000000  2.000000
                       2.000000  2.000000  2.000000  2.000000  2.000000  2.000000
                       2.000000  2.000000  2.000000  2.000000  2.000000  2.000000
                       2.000000  2.000000  2.000000  2.000000  2.000000  2.000000
                       0.000000  0.000000  0.000000  0.000000  0.000000  0.000000
            rprim      0.0000000000E+00  7.0710678119E-01  7.0710678119E-01
                       7.0710678119E-01  0.0000000000E+00  7.0710678119E-01
                       7.0710678119E-01  7.0710678119E-01  0.0000000000E+00
          spgroup         225
           symrel      1  0  0   0  1  0   0  0  1      -1  0  0   0 -1  0   0  0 -1
                       0 -1  1   0 -1  0   1 -1  0       0  1 -1   0  1  0  -1  1  0
                      -1  0  0  -1  0  1  -1  1  0       1  0  0   1  0 -1   1 -1  0
                       0  1 -1   1  0 -1   0  0 -1       0 -1  1  -1  0  1   0  0  1
                      -1  0  0  -1  1  0  -1  0  1       1  0  0   1 -1  0   1  0 -1
                       0 -1  1   1 -1  0   0 -1  0       0  1 -1  -1  1  0   0  1  0
                       1  0  0   0  0  1   0  1  0      -1  0  0   0  0 -1   0 -1  0
                       0  1 -1   0  0 -1   1  0 -1       0 -1  1   0  0  1  -1  0  1
                      -1  0  1  -1  1  0  -1  0  0       1  0 -1   1 -1  0   1  0  0
                       0 -1  0   1 -1  0   0 -1  1       0  1  0  -1  1  0   0  1 -1
                       1  0 -1   0  0 -1   0  1 -1      -1  0  1   0  0  1   0 -1  1
                       0  1  0   0  0  1   1  0  0       0 -1  0   0  0 -1  -1  0  0
                       1  0 -1   0  1 -1   0  0 -1      -1  0  1   0 -1  1   0  0  1
                       0 -1  0   0 -1  1   1 -1  0       0  1  0   0  1 -1  -1  1  0
                      -1  0  1  -1  0  0  -1  1  0       1  0 -1   1  0  0   1 -1  0
                       0  1  0   1  0  0   0  0  1       0 -1  0  -1  0  0   0  0 -1
                       0  0 -1   0  1 -1   1  0 -1       0  0  1   0 -1  1  -1  0  1
                       1 -1  0   0 -1  1   0 -1  0      -1  1  0   0  1 -1   0  1  0
                       0  0  1   1  0  0   0  1  0       0  0 -1  -1  0  0   0 -1  0
                      -1  1  0  -1  0  0  -1  0  1       1 -1  0   1  0  0   1  0 -1
                       0  0  1   0  1  0   1  0  0       0  0 -1   0 -1  0  -1  0  0
                       1 -1  0   0 -1  0   0 -1  1      -1  1  0   0  1  0   0  1 -1
                       0  0 -1   1  0 -1   0  1 -1       0  0  1  -1  0  1   0 -1  1
                      -1  1  0  -1  0  1  -1  0  0       1 -1  0   1  0 -1   1  0  0
           toldfe      1.00000000E-08 Hartree
            typat      1  1  2  2  2  2  2  2  3
              wtk        0.00058    0.00463    0.00463    0.00463    0.00463    0.00463
                         0.00231    0.00347    0.01389    0.01389    0.01389    0.01389
                         0.01389    0.01389    0.01389    0.01389    0.01389    0.00694
                         0.00347    0.01389    0.01389    0.01389    0.01389    0.01389
                         0.01389    0.01389    0.00694    0.00347    0.01389    0.01389
                         0.01389    0.01389    0.01389    0.00694    0.00347    0.01389
                         0.01389    0.01389    0.00694    0.00347    0.01389    0.00694
                         0.00174    0.01389    0.02778    0.02778    0.02778    0.01389
                         0.01389    0.02778
                       outvars : Printing only first  50 k-points.
           xangst      2.8054238293E+00  2.8054238293E+00  2.8054238293E+00
                       8.4162714879E+00  8.4162714879E+00  8.4162714879E+00
                       5.6108476586E+00  8.5928239515E+00  5.6108476586E+00
                       5.6108476586E+00  5.6108476586E+00  2.6288713657E+00
                       5.6108476586E+00  5.6108476586E+00  8.5928239515E+00
                       5.6108476586E+00  2.6288713657E+00  5.6108476586E+00
                       8.5928239515E+00  5.6108476586E+00  5.6108476586E+00
                       2.6288713657E+00  5.6108476586E+00  5.6108476586E+00
                       1.5933648973E-18 -5.9722236928E-19  1.8004174815E-18
            xcart      5.3014827240E+00  5.3014827240E+00  5.3014827240E+00
                       1.5904448172E+01  1.5904448172E+01  1.5904448172E+01
                       1.0602965448E+01  1.6238083976E+01  1.0602965448E+01
                       1.0602965448E+01  1.0602965448E+01  4.9678469197E+00
                       1.0602965448E+01  1.0602965448E+01  1.6238083976E+01
                       1.0602965448E+01  4.9678469197E+00  1.0602965448E+01
                       1.6238083976E+01  1.0602965448E+01  1.0602965448E+01
                       4.9678469197E+00  1.0602965448E+01  1.0602965448E+01
                       3.0110232856E-18 -1.1285867184E-18  3.4022959649E-18
             xred      2.5000000000E-01  2.5000000000E-01  2.5000000000E-01
                       7.5000000000E-01  7.5000000000E-01  7.5000000000E-01
                       7.6573313645E-01  2.3426686355E-01  7.6573313645E-01
                       2.3426686355E-01  2.3426686355E-01  7.6573313645E-01
                       7.6573313645E-01  7.6573313645E-01  2.3426686355E-01
                       2.3426686355E-01  7.6573313645E-01  2.3426686355E-01
                       2.3426686355E-01  7.6573313645E-01  7.6573313645E-01
                       7.6573313645E-01  2.3426686355E-01  2.3426686355E-01
                      -3.4769237090E-20  3.5565078495E-19 -7.1671430278E-20
            znucl       55.00000   35.00000   72.00000

================================================================================

 chkinp: Checking input parameters for consistency.

================================================================================
== DATASET  1 ==================================================================
-   mpi_nproc: 6, omp_nthreads: -1 (-1 if OMP is not activated)


--- !DatasetInfo
iteration_state: {dtset: 1, }
dimensions: {natom: 9, nkpt: 72, mband: 42, nsppol: 1, nspinor: 1, nspden: 1, mpw: 10233, }
cutoff_energies: {ecut:  20.0, pawecutdg:  -1.0, }
electrons: {nelect:   7.20000000E+01, charge:   0.00000000E+00, occopt:   1.00000000E+00, tsmear:   1.00000000E-02, }
meta: {optdriver: 0, ionmov: 0, optcell: 0, iscf: 17, paral_kgb: 0, }
...

 Exchange-correlation functional for the present dataset will be:
  Meta-GGA fake2 - ixc=32

 Real(R)+Recip(G) space primitive vectors, cartesian coordinates (Bohr,Bohr^-1):
 R(1)=  0.0000000 10.6029654 10.6029654  G(1)= -0.0471566  0.0471566  0.0471566
 R(2)= 10.6029654  0.0000000 10.6029654  G(2)=  0.0471566 -0.0471566  0.0471566
 R(3)= 10.6029654 10.6029654  0.0000000  G(3)=  0.0471566  0.0471566 -0.0471566
 Unit cell volume ucvol=  2.3840317E+03 bohr^3
 Angles (23,13,12)=  6.00000000E+01  6.00000000E+01  6.00000000E+01 degrees

 getcut: wavevector=  0.0000  0.0000  0.0000  ngfft=  64  64  64
         ecut(hartree)=     20.000   => boxcut(ratio)=   2.12011

--- Pseudopotential description ------------------------------------------------
- pspini: atom type   1  psp file is ../../../Psps_for_tests/ONCVPSP-PBE-PDv0.4/Cs-sp.psp8
- pspatm: opening atomic psp file    ../../../Psps_for_tests/ONCVPSP-PBE-PDv0.4/Cs-sp.psp8
- Cs    ONCVPSP-3.2.3.1  r_core=   2.27353   1.85623   2.01788   1.90105
- 55.00000   9.00000    170703                znucl, zion, pspdat
    8   32    3    4       600   0.00000      pspcod,pspxc,lmax,lloc,mmax,r2well
    5.99000000000000    5.00000000000000    0.00000000000000   rchrg,fchrg,qchrg
     nproj     2     2     2     2
     extension_switch     1
  pspatm : epsatm=   22.81663475
         --- l  ekb(1:nproj) -->
             0    6.176104    0.756334
             1    6.263084    0.786397
             2    3.737592    0.906929
             3   -9.272327   -2.535859
 pspatm: atomic psp has been read  and splines computed

- pspini: atom type   2  psp file is ../../../Psps_for_tests/ONCVPSP-PBE-PDv0.4/Br.psp8
- pspatm: opening atomic psp file    ../../../Psps_for_tests/ONCVPSP-PBE-PDv0.4/Br.psp8
- Br    ONCVPSP-3.2.3.1  r_core=   1.81012   1.51356   1.92136
- 35.00000   7.00000    170504                znucl, zion, pspdat
    8   32    2    4       600   0.00000      pspcod,pspxc,lmax,lloc,mmax,r2well
    5.99000000000000    8.00000000000000    0.00000000000000   rchrg,fchrg,qchrg
     nproj     2     2     2
     extension_switch     1
  pspatm : epsatm=   11.64859511
         --- l  ekb(1:nproj) -->
             0    8.455549    0.878460
             1    5.292495    0.880691
             2    2.589748    0.385882
 pspatm: atomic psp has been read  and splines computed

- pspini: atom type   3  psp file is ../../../Psps_for_tests/ONCVPSP-PBE-PDv0.4/Hf-sp.psp8
- pspatm: opening atomic psp file    ../../../Psps_for_tests/ONCVPSP-PBE-PDv0.4/Hf-sp.psp8
- Hf    ONCVPSP-3.2.3.1  r_core=   1.71613   1.71613   1.71613   2.42541
- 72.00000  12.00000    170501                znucl, zion, pspdat
    8   32    3    4       600   0.00000      pspcod,pspxc,lmax,lloc,mmax,r2well
    5.99000000000000    5.40000000000000    0.00000000000000   rchrg,fchrg,qchrg
     nproj     2     2     2     2
     extension_switch     1
  pspatm : epsatm=   21.94432712
         --- l  ekb(1:nproj) -->
             0    5.751490   -0.631383
             1   -2.986358    2.305386
             2    1.422276    0.146986
             3    8.827595    0.343102
 pspatm: atomic psp has been read  and splines computed

   9.89778004E+03                                ecore*ucvol(ha*bohr**3)
--------------------------------------------------------------------------------

_setup2: Arith. and geom. avg. npw (full set) are   10185.334   10185.324

================================================================================

--- !BeginCycle
iteration_state: {dtset: 1, }
solver: {iscf: 17, nstep: 2500, nline: 4, wfoptalg: 0, }
tolerances: {toldfe: 1.00E-08, }
...

     iter   Etot(hartree)      deltaE(h)  residm     nres2
 ETOT  1  -198.76057819649    -1.988E+02 2.645E-02 2.840E+00
 ETOT  2  -198.80288782084    -4.231E-02 1.177E-02 1.035E+00
 ETOT  3  -198.79136333659     1.152E-02 2.418E-03 9.302E-02
 ETOT  4  -198.78984449560     1.519E-03 5.220E-03 5.172E-03
 ETOT  5  -198.78978259330     6.190E-05 1.973E-03 1.938E-04
 ETOT  6  -198.78978585846    -3.265E-06 2.064E-03 2.127E-05
 ETOT  7  -198.78978663257    -7.741E-07 1.963E-03 1.395E-06
 ETOT  8  -198.78978668977    -5.720E-08 8.131E-04 2.202E-07
 ETOT  9  -198.78978669810    -8.327E-09 7.454E-04 2.985E-08
 ETOT 10  -198.78978669803     7.009E-11 7.229E-04 1.363E-09

 At SCF step   10, etot is converged : 
  for the second time, diff in etot=  7.009E-11 < toldfe=  1.000E-08

 Cartesian components of stress tensor (hartree/bohr^3)
  sigma(1 1)= -8.43052366E-04  sigma(3 2)=  0.00000000E+00
  sigma(2 2)= -8.43052366E-04  sigma(3 1)=  0.00000000E+00
  sigma(3 3)= -8.43052366E-04  sigma(2 1)=  0.00000000E+00


--- !ResultsGS
iteration_state: {dtset: 1, }
comment   : Summary of ground state results
lattice_vectors:
- [  0.0000000,  10.6029654,  10.6029654, ]
- [ 10.6029654,   0.0000000,  10.6029654, ]
- [ 10.6029654,  10.6029654,   0.0000000, ]
lattice_lengths: [  14.99486,   14.99486,   14.99486, ]
lattice_angles: [ 60.000,  60.000,  60.000, ] # degrees, (23, 13, 12)
lattice_volume:   2.3840317E+03
convergence: {deltae:  7.009E-11, res2:  1.363E-09, residm:  7.229E-04, diffor: null, }
etotal    :  -1.98789787E+02
entropy   :   0.00000000E+00
fermie    :   1.16261654E-02
cartesian_stress_tensor: # hartree/bohr^3
- [ -8.43052366E-04,   0.00000000E+00,   0.00000000E+00, ]
- [  0.00000000E+00,  -8.43052366E-04,   0.00000000E+00, ]
- [  0.00000000E+00,   0.00000000E+00,  -8.43052366E-04, ]
pressure_GPa:   2.4803E+01
xred      :
- [  2.5000E-01,   2.5000E-01,   2.5000E-01, Cs]
- [  7.5000E-01,   7.5000E-01,   7.5000E-01, Cs]
- [  7.6573E-01,   2.3427E-01,   7.6573E-01, Br]
- [  2.3427E-01,   2.3427E-01,   7.6573E-01, Br]
- [  7.6573E-01,   7.6573E-01,   2.3427E-01, Br]
- [  2.3427E-01,   7.6573E-01,   2.3427E-01, Br]
- [  2.3427E-01,   7.6573E-01,   7.6573E-01, Br]
- [  7.6573E-01,   2.3427E-01,   2.3427E-01, Br]
- [ -3.4769E-20,   3.5565E-19,  -7.1671E-20, Hf]
cartesian_forces: # hartree/bohr
- [ -9.63735264E-20,   1.44560290E-19,   4.07655195E-20, ]
- [ -9.63735264E-20,   1.44560290E-19,   4.07655195E-20, ]
- [  4.04098536E-19,   4.10947855E-03,  -4.59706543E-19, ]
- [ -1.29231452E-19,   1.91052165E-19,  -4.10947855E-03, ]
- [  3.70165269E-19,  -3.35612454E-19,   4.10947855E-03, ]
- [ -1.63164720E-19,  -4.10947855E-03,   1.07556713E-19, ]
- [  4.10947855E-03,  -1.20397371E-18,   1.38929952E-18, ]
- [ -4.10947855E-03,   1.05941342E-18,  -8.74087611E-19, ]
- [ -9.63735264E-20,   1.44560290E-19,   4.07655195E-20, ]
force_length_stats: {min:   1.78458291E-19, max:   4.10947855E-03, mean:   2.73965236E-03, }
...

 Integrated electronic density in atomic spheres:
 ------------------------------------------------
 Atom  Sphere_radius  Integrated_density
    1        2.00000          4.35602363
    2        2.00000          4.35602363
    3        2.00000          4.14425769
    4        2.00000          4.14425769
    5        2.00000          4.14425769
    6        2.00000          4.14425769
    7        2.00000          4.14425769
    8        2.00000          4.14425769
    9        2.00000          8.22094053
================================================================================

 ----iterations are completed or convergence reached----

 Mean square residual over all n,k,spin=   34.123E-07; max=  72.291E-05
 reduced coordinates (array xred) for    9 atoms
       0.250000000000      0.250000000000      0.250000000000
       0.750000000000      0.750000000000      0.750000000000
       0.765733136450      0.234266863550      0.765733136450
       0.234266863550      0.234266863550      0.765733136450
       0.765733136450      0.765733136450      0.234266863550
       0.234266863550      0.765733136450      0.234266863550
       0.234266863550      0.765733136450      0.765733136450
       0.765733136450      0.234266863550      0.234266863550
      -0.000000000000      0.000000000000     -0.000000000000
 rms dE/dt=  2.9048E-02; max dE/dt=  4.3573E-02; dE/dt below (all hartree)
    1       0.000000000000      0.000000000000     -0.000000000000
    2      -0.000000000000      0.000000000000      0.000000000000
    3      -0.043572659036      0.000000000000     -0.043572659036
    4       0.043572659036      0.043572659036     -0.000000000000
    5      -0.043572659036     -0.043572659036      0.000000000000
    6       0.043572659036      0.000000000000      0.043572659036
    7      -0.000000000000     -0.043572659036     -0.043572659036
    8       0.000000000000      0.043572659036      0.043572659036
    9       0.000000000000      0.000000000000      0.000000000000

 cartesian coordinates (angstrom) at end:
    1      2.80542382930030     2.80542382930030     2.80542382930030
    2      8.41627148790091     8.41627148790091     8.41627148790091
    3      5.61084765860061     8.59282395152676     5.61084765860061
    4      5.61084765860061     5.61084765860061     2.62887136567445
    5      5.61084765860061     5.61084765860061     8.59282395152676
    6      5.61084765860061     2.62887136567445     5.61084765860061
    7      8.59282395152676     5.61084765860061     5.61084765860061
    8      2.62887136567445     5.61084765860061     5.61084765860061
    9      0.00000000000000    -0.00000000000000     0.00000000000000

 cartesian forces (hartree/bohr) at end:
    1     -0.00000000000000     0.00000000000000     0.00000000000000
    2     -0.00000000000000     0.00000000000000     0.00000000000000
    3      0.00000000000000     0.00410947854629    -0.00000000000000
    4     -0.00000000000000     0.00000000000000    -0.00410947854629
    5      0.00000000000000    -0.00000000000000     0.00410947854629
    6     -0.00000000000000    -0.00410947854629     0.00000000000000
    7      0.00410947854629    -0.00000000000000     0.00000000000000
    8     -0.00410947854629     0.00000000000000    -0.00000000000000
    9     -0.00000000000000     0.00000000000000     0.00000000000000
 frms,max,avg= 1.9372268E-03 4.1094785E-03   0.000E+00  0.000E+00  0.000E+00 h/b

 cartesian forces (eV/Angstrom) at end:
    1     -0.00000000000000     0.00000000000000     0.00000000000000
    2     -0.00000000000000     0.00000000000000     0.00000000000000
    3      0.00000000000000     0.21131786549455    -0.00000000000000
    4     -0.00000000000000     0.00000000000000    -0.21131786549455
    5      0.00000000000000    -0.00000000000000     0.21131786549455
    6     -0.00000000000000    -0.21131786549455     0.00000000000000
    7      0.21131786549455    -0.00000000000000     0.00000000000000
    8     -0.21131786549455     0.00000000000000    -0.00000000000000
    9     -0.00000000000000     0.00000000000000     0.00000000000000
 frms,max,avg= 9.9616197E-02 2.1131787E-01   0.000E+00  0.000E+00  0.000E+00 e/A
 length scales= 14.994857538000 14.994857538000 14.994857538000 bohr
              =  7.934936855164  7.934936855164  7.934936855164 angstroms
 prteigrs : about to open file Cs2TiI6o_EIG
 Fermi (or HOMO) energy (hartree) =   0.01163   Average Vxc (hartree)=  -0.30367
 Eigenvalues (hartree) for nkpt=  72  k points:
 kpt#   1, nband= 42, wtk=  0.00058, kpt=  0.0000  0.0000  0.0000 (reduced coord)
  -2.28381   -1.10637   -1.10637   -1.10637   -0.70868   -0.70842   -0.48167   -0.46343
  -0.46343   -0.46343   -0.46325   -0.46325   -0.22834   -0.22834   -0.22834   -0.22532
  -0.22532   -0.22532   -0.12082   -0.06260   -0.06260   -0.06260   -0.06079   -0.06079
  -0.06079   -0.05995   -0.05995   -0.01384   -0.01384   -0.01384    0.00245    0.00245
   0.00245    0.01163    0.01163    0.01163    0.13231    0.13231    0.13231    0.16854
   0.20724    0.20725
 prteigrs : prtvol=0 or 1, do not print more k-points.


--- !EnergyTerms
iteration_state     : {dtset: 1, }
comment             : Components of total free energy in Hartree
kinetic             :  5.04905899352191E+01
hartree             :  4.18046395073809E+01
xc                  : -5.97300121626737E+01
Ewald energy        : -1.18267527867227E+02
psp_core            :  4.15169808941076E+00
local_psp           : -1.39760442029672E+02
non_local_psp       :  2.25212873349329E+01
total_energy        : -1.98789767192629E+02
...


--- !EnergyTermsDC
iteration_state     : {dtset: 1, }
comment             : '"Double-counting" decomposition of free energy'
band_energy         : -2.36995995739166E+01
Ewald energy        : -1.18267527867227E+02
psp_core            :  4.15169808941076E+00
xc_dc               : -6.09743573462960E+01
total_energy_dc     : -1.98789786698029E+02
...


 Cartesian components of stress tensor (hartree/bohr^3)
  sigma(1 1)= -8.43052366E-04  sigma(3 2)=  0.00000000E+00
  sigma(2 2)= -8.43052366E-04  sigma(3 1)=  0.00000000E+00
  sigma(3 3)= -8.43052366E-04  sigma(2 1)=  0.00000000E+00

-Cartesian components of stress tensor (GPa)         [Pressure=  2.4803E+01 GPa]
- sigma(1 1)= -2.48034528E+01  sigma(3 2)=  0.00000000E+00
- sigma(2 2)= -2.48034528E+01  sigma(3 1)=  0.00000000E+00
- sigma(3 3)= -2.48034528E+01  sigma(2 1)=  0.00000000E+00

== END DATASET(S) ==============================================================
================================================================================
  
 -outvars: echo values of variables after computation  --------
            acell      1.4994857538E+01  1.4994857538E+01  1.4994857538E+01 Bohr
              amu      1.32905430E+02  7.99040000E+01  1.78490000E+02
           diemac      1.20000000E+01
             ecut      2.00000000E+01 Hartree
           etotal     -1.9878978670E+02
            fcart     -9.6373526443E-20  1.4456028966E-19  4.0765519480E-20
                      -9.6373526444E-20  1.4456028966E-19  4.0765519480E-20
                       4.0409853622E-19  4.1094785463E-03 -4.5970654319E-19
                      -1.2923145243E-19  1.9105216460E-19 -4.1094785463E-03
                       3.7016526854E-19 -3.3561245427E-19  4.1094785463E-03
                      -1.6316472012E-19 -4.1094785463E-03  1.0755671315E-19
                       4.1094785463E-03 -1.2039737102E-18  1.3892995194E-18
                      -4.1094785463E-03  1.0594134206E-18 -8.7408761143E-19
                      -9.6373526443E-20  1.4456028966E-19  4.0765519480E-20
-          fftalg         112
             iscf          17
           istwfk        2    0    0    0    0    0    3    0    0    0
                         0    0    0    0    0    0    0    0    0    0
                         0    0    0    0    0    0    0    0    0    0
                         0    0    0    0    0    0    0    0    0    0
                         0    0    7    0    0    0    0    0    0    0
                       outvar_i_n : Printing only first  50 k-points.
              ixc          32
              kpt      0.00000000E+00  0.00000000E+00  0.00000000E+00
                       8.33333333E-02  0.00000000E+00  0.00000000E+00
                       1.66666667E-01  0.00000000E+00  0.00000000E+00
                       2.50000000E-01  0.00000000E+00  0.00000000E+00
                       3.33333333E-01  0.00000000E+00  0.00000000E+00
                       4.16666667E-01  0.00000000E+00  0.00000000E+00
                       5.00000000E-01  0.00000000E+00  0.00000000E+00
                       8.33333333E-02  8.33333333E-02  0.00000000E+00
                       1.66666667E-01  8.33333333E-02  0.00000000E+00
                       2.50000000E-01  8.33333333E-02  0.00000000E+00
                       3.33333333E-01  8.33333333E-02  0.00000000E+00
                       4.16666667E-01  8.33333333E-02  0.00000000E+00
                       5.00000000E-01  8.33333333E-02  0.00000000E+00
                      -4.16666667E-01  8.33333333E-02  0.00000000E+00
                      -3.33333333E-01  8.33333333E-02  0.00000000E+00
                      -2.50000000E-01  8.33333333E-02  0.00000000E+00
                      -1.66666667E-01  8.33333333E-02  0.00000000E+00
                      -8.33333333E-02  8.33333333E-02  0.00000000E+00
                       1.66666667E-01  1.66666667E-01  0.00000000E+00
                       2.50000000E-01  1.66666667E-01  0.00000000E+00
                       3.33333333E-01  1.66666667E-01  0.00000000E+00
                       4.16666667E-01  1.66666667E-01  0.00000000E+00
                       5.00000000E-01  1.66666667E-01  0.00000000E+00
                      -4.16666667E-01  1.66666667E-01  0.00000000E+00
                      -3.33333333E-01  1.66666667E-01  0.00000000E+00
                      -2.50000000E-01  1.66666667E-01  0.00000000E+00
                      -1.66666667E-01  1.66666667E-01  0.00000000E+00
                       2.50000000E-01  2.50000000E-01  0.00000000E+00
                       3.33333333E-01  2.50000000E-01  0.00000000E+00
                       4.16666667E-01  2.50000000E-01  0.00000000E+00
                       5.00000000E-01  2.50000000E-01  0.00000000E+00
                      -4.16666667E-01  2.50000000E-01  0.00000000E+00
                      -3.33333333E-01  2.50000000E-01  0.00000000E+00
                      -2.50000000E-01  2.50000000E-01  0.00000000E+00
                       3.33333333E-01  3.33333333E-01  0.00000000E+00
                       4.16666667E-01  3.33333333E-01  0.00000000E+00
                       5.00000000E-01  3.33333333E-01  0.00000000E+00
                      -4.16666667E-01  3.33333333E-01  0.00000000E+00
                      -3.33333333E-01  3.33333333E-01  0.00000000E+00
                       4.16666667E-01  4.16666667E-01  0.00000000E+00
                       5.00000000E-01  4.16666667E-01  0.00000000E+00
                      -4.16666667E-01  4.16666667E-01  0.00000000E+00
                       5.00000000E-01  5.00000000E-01  0.00000000E+00
                       2.50000000E-01  1.66666667E-01  8.33333333E-02
                       3.33333333E-01  1.66666667E-01  8.33333333E-02
                       4.16666667E-01  1.66666667E-01  8.33333333E-02
                       5.00000000E-01  1.66666667E-01  8.33333333E-02
                      -4.16666667E-01  1.66666667E-01  8.33333333E-02
                       3.33333333E-01  2.50000000E-01  8.33333333E-02
                       4.16666667E-01  2.50000000E-01  8.33333333E-02
                       outvar_i_n : Printing only first  50 k-points.
         kptrlatt       12    0    0      0   12    0      0    0   12
          kptrlen      1.79938290E+02
P           mkmem          12
            natom           9
            nband          42
            ngfft          64      64      64
             nkpt          72
            nstep        2500
             nsym          48
           ntypat           3
              occ      2.000000  2.000000  2.000000  2.000000  2.000000  2.000000
                       2.000000  2.000000  2.000000  2.000000  2.000000  2.000000
                       2.000000  2.000000  2.000000  2.000000  2.000000  2.000000
                       2.000000  2.000000  2.000000  2.000000  2.000000  2.000000
                       2.000000  2.000000  2.000000  2.000000  2.000000  2.000000
                       2.000000  2.000000  2.000000  2.000000  2.000000  2.000000
                       0.000000  0.000000  0.000000  0.000000  0.000000  0.000000
            rprim      0.0000000000E+00  7.0710678119E-01  7.0710678119E-01
                       7.0710678119E-01  0.0000000000E+00  7.0710678119E-01
                       7.0710678119E-01  7.0710678119E-01  0.0000000000E+00
          spgroup         225
           strten     -8.4305236597E-04 -8.4305236597E-04 -8.4305236597E-04
                       0.0000000000E+00  0.0000000000E+00  0.0000000000E+00
           symrel      1  0  0   0  1  0   0  0  1      -1  0  0   0 -1  0   0  0 -1
                       0 -1  1   0 -1  0   1 -1  0       0  1 -1   0  1  0  -1  1  0
                      -1  0  0  -1  0  1  -1  1  0       1  0  0   1  0 -1   1 -1  0
                       0  1 -1   1  0 -1   0  0 -1       0 -1  1  -1  0  1   0  0  1
                      -1  0  0  -1  1  0  -1  0  1       1  0  0   1 -1  0   1  0 -1
                       0 -1  1   1 -1  0   0 -1  0       0  1 -1  -1  1  0   0  1  0
                       1  0  0   0  0  1   0  1  0      -1  0  0   0  0 -1   0 -1  0
                       0  1 -1   0  0 -1   1  0 -1       0 -1  1   0  0  1  -1  0  1
                      -1  0  1  -1  1  0  -1  0  0       1  0 -1   1 -1  0   1  0  0
                       0 -1  0   1 -1  0   0 -1  1       0  1  0  -1  1  0   0  1 -1
                       1  0 -1   0  0 -1   0  1 -1      -1  0  1   0  0  1   0 -1  1
                       0  1  0   0  0  1   1  0  0       0 -1  0   0  0 -1  -1  0  0
                       1  0 -1   0  1 -1   0  0 -1      -1  0  1   0 -1  1   0  0  1
                       0 -1  0   0 -1  1   1 -1  0       0  1  0   0  1 -1  -1  1  0
                      -1  0  1  -1  0  0  -1  1  0       1  0 -1   1  0  0   1 -1  0
                       0  1  0   1  0  0   0  0  1       0 -1  0  -1  0  0   0  0 -1
                       0  0 -1   0  1 -1   1  0 -1       0  0  1   0 -1  1  -1  0  1
                       1 -1  0   0 -1  1   0 -1  0      -1  1  0   0  1 -1   0  1  0
                       0  0  1   1  0  0   0  1  0       0  0 -1  -1  0  0   0 -1  0
                      -1  1  0  -1  0  0  -1  0  1       1 -1  0   1  0  0   1  0 -1
                       0  0  1   0  1  0   1  0  0       0  0 -1   0 -1  0  -1  0  0
                       1 -1  0   0 -1  0   0 -1  1      -1  1  0   0  1  0   0  1 -1
                       0  0 -1   1  0 -1   0  1 -1       0  0  1  -1  0  1   0 -1  1
                      -1  1  0  -1  0  1  -1  0  0       1 -1  0   1  0 -1   1  0  0
           toldfe      1.00000000E-08 Hartree
            typat      1  1  2  2  2  2  2  2  3
              wtk        0.00058    0.00463    0.00463    0.00463    0.00463    0.00463
                         0.00231    0.00347    0.01389    0.01389    0.01389    0.01389
                         0.01389    0.01389    0.01389    0.01389    0.01389    0.00694
                         0.00347    0.01389    0.01389    0.01389    0.01389    0.01389
                         0.01389    0.01389    0.00694    0.00347    0.01389    0.01389
                         0.01389    0.01389    0.01389    0.00694    0.00347    0.01389
                         0.01389    0.01389    0.00694    0.00347    0.01389    0.00694
                         0.00174    0.01389    0.02778    0.02778    0.02778    0.01389
                         0.01389    0.02778
                       outvars : Printing only first  50 k-points.
           xangst      2.8054238293E+00  2.8054238293E+00  2.8054238293E+00
                       8.4162714879E+00  8.4162714879E+00  8.4162714879E+00
                       5.6108476586E+00  8.5928239515E+00  5.6108476586E+00
                       5.6108476586E+00  5.6108476586E+00  2.6288713657E+00
                       5.6108476586E+00  5.6108476586E+00  8.5928239515E+00
                       5.6108476586E+00  2.6288713657E+00  5.6108476586E+00
                       8.5928239515E+00  5.6108476586E+00  5.6108476586E+00
                       2.6288713657E+00  5.6108476586E+00  5.6108476586E+00
                       1.5933648973E-18 -5.9722236928E-19  1.8004174815E-18
            xcart      5.3014827240E+00  5.3014827240E+00  5.3014827240E+00
                       1.5904448172E+01  1.5904448172E+01  1.5904448172E+01
                       1.0602965448E+01  1.6238083976E+01  1.0602965448E+01
                       1.0602965448E+01  1.0602965448E+01  4.9678469197E+00
                       1.0602965448E+01  1.0602965448E+01  1.6238083976E+01
                       1.0602965448E+01  4.9678469197E+00  1.0602965448E+01
                       1.6238083976E+01  1.0602965448E+01  1.0602965448E+01
                       4.9678469197E+00  1.0602965448E+01  1.0602965448E+01
                       3.0110232856E-18 -1.1285867184E-18  3.4022959649E-18
             xred      2.5000000000E-01  2.5000000000E-01  2.5000000000E-01
                       7.5000000000E-01  7.5000000000E-01  7.5000000000E-01
                       7.6573313645E-01  2.3426686355E-01  7.6573313645E-01
                       2.3426686355E-01  2.3426686355E-01  7.6573313645E-01
                       7.6573313645E-01  7.6573313645E-01  2.3426686355E-01
                       2.3426686355E-01  7.6573313645E-01  2.3426686355E-01
                       2.3426686355E-01  7.6573313645E-01  7.6573313645E-01
                       7.6573313645E-01  2.3426686355E-01  2.3426686355E-01
                      -3.4769237090E-20  3.5565078495E-19 -7.1671430278E-20
            znucl       55.00000   35.00000   72.00000

================================================================================


- Timing analysis has been suppressed with timopt=0



================================================================================

 Suggested references for the acknowledgment of ABINIT usage.

 The users of ABINIT have little formal obligations with respect to the ABINIT group
 (those specified in the GNU General Public License, http://www.gnu.org/copyleft/gpl.txt).
 However, it is common practice in the scientific literature,
 to acknowledge the efforts of people that have made the research possible.
 In this spirit, please find below suggested citations of work written by ABINIT developers,
 corresponding to implementations inside of ABINIT that you have used in the present run.
 Note also that it will be of great value to readers of publications presenting these results,
 to read papers enabling them to understand the theoretical formalism and details
 of the ABINIT implementation.
 For information on why they are suggested, see also https://docs.abinit.org/theory/acknowledgments.
-
- [1] The Abinit project: Impact, environment and recent developments.
- Computer Phys. Comm. 248, 107042 (2020).
- X.Gonze, B. Amadon, G. Antonius, F.Arnardi, L.Baguet, J.-M.Beuken,
- J.Bieder, F.Bottin, J.Bouchet, E.Bousquet, N.Brouwer, F.Bruneval,
- G.Brunin, T.Cavignac, J.-B. Charraud, Wei Chen, M.Cote, S.Cottenier,
- J.Denier, G.Geneste, Ph.Ghosez, M.Giantomassi, Y.Gillet, O.Gingras,
- D.R.Hamann, G.Hautier, Xu He, N.Helbig, N.Holzwarth, Y.Jia, F.Jollet,
- W.Lafargue-Dit-Hauret, K.Lejaeghere, M.A.L.Marques, A.Martin, C.Martins,
- H.P.C. Miranda, F.Naccarato, K. Persson, G.Petretto, V.Planes, Y.Pouillon,
- S.Prokhorenko, F.Ricci, G.-M.Rignanese, A.H.Romero, M.M.Schmitt, M.Torrent,
- M.J.van Setten, B.Van Troeye, M.J.Verstraete, G.Zerah and J.W.Zwanzig
- Comment: the fifth generic paper describing the ABINIT project.
- Note that a version of this paper, that is not formatted for Computer Phys. Comm. 
- is available at https://www.abinit.org/sites/default/files/ABINIT20.pdf .
- The licence allows the authors to put it on the Web.
- DOI and bibtex: see https://docs.abinit.org/theory/bibliography/#gonze2020
-
- [2] Optimized norm-conserving Vanderbilt pseudopotentials.
- D.R. Hamann, Phys. Rev. B 88, 085117 (2013).
- Comment: Some pseudopotential generated using the ONCVPSP code were used.
- DOI and bibtex: see https://docs.abinit.org/theory/bibliography/#hamann2013
-
- [3] ABINIT: Overview, and focus on selected capabilities
- J. Chem. Phys. 152, 124102 (2020).
- A. Romero, D.C. Allan, B. Amadon, G. Antonius, T. Applencourt, L.Baguet,
- J.Bieder, F.Bottin, J.Bouchet, E.Bousquet, F.Bruneval,
- G.Brunin, D.Caliste, M.Cote,
- J.Denier, C. Dreyer, Ph.Ghosez, M.Giantomassi, Y.Gillet, O.Gingras,
- D.R.Hamann, G.Hautier, F.Jollet, G. Jomard,
- A.Martin, 
- H.P.C. Miranda, F.Naccarato, G.Petretto, N.A. Pike, V.Planes,
- S.Prokhorenko, T. Rangel, F.Ricci, G.-M.Rignanese, M.Royo, M.Stengel, M.Torrent,
- M.J.van Setten, B.Van Troeye, M.J.Verstraete, J.Wiktor, J.W.Zwanziger, and X.Gonze.
- Comment: a global overview of ABINIT, with focus on selected capabilities .
- Note that a version of this paper, that is not formatted for J. Chem. Phys 
- is available at https://www.abinit.org/sites/default/files/ABINIT20_JPC.pdf .
- The licence allows the authors to put it on the Web.
- DOI and bibtex: see https://docs.abinit.org/theory/bibliography/#romero2020
-
- [4] Recent developments in the ABINIT software package.
- Computer Phys. Comm. 205, 106 (2016).
- X.Gonze, F.Jollet, F.Abreu Araujo, D.Adams, B.Amadon, T.Applencourt,
- C.Audouze, J.-M.Beuken, J.Bieder, A.Bokhanchuk, E.Bousquet, F.Bruneval
- D.Caliste, M.Cote, F.Dahm, F.Da Pieve, M.Delaveau, M.Di Gennaro,
- B.Dorado, C.Espejo, G.Geneste, L.Genovese, A.Gerossier, M.Giantomassi,
- Y.Gillet, D.R.Hamann, L.He, G.Jomard, J.Laflamme Janssen, S.Le Roux,
- A.Levitt, A.Lherbier, F.Liu, I.Lukacevic, A.Martin, C.Martins,
- M.J.T.Oliveira, S.Ponce, Y.Pouillon, T.Rangel, G.-M.Rignanese,
- A.H.Romero, B.Rousseau, O.Rubel, A.A.Shukri, M.Stankovski, M.Torrent,
- M.J.Van Setten, B.Van Troeye, M.J.Verstraete, D.Waroquier, J.Wiktor,
- B.Xu, A.Zhou, J.W.Zwanziger.
- Comment: the fourth generic paper describing the ABINIT project.
- Note that a version of this paper, that is not formatted for Computer Phys. Comm. 
- is available at https://www.abinit.org/sites/default/files/ABINIT16.pdf .
- The licence allows the authors to put it on the Web.
- DOI and bibtex: see https://docs.abinit.org/theory/bibliography/#gonze2016
-
- And optionally:
-
- [5] ABINIT: First-principles approach of materials and nanosystem properties.
- Computer Phys. Comm. 180, 2582-2615 (2009).
- X. Gonze, B. Amadon, P.-M. Anglade, J.-M. Beuken, F. Bottin, P. Boulanger, F. Bruneval,
- D. Caliste, R. Caracas, M. Cote, T. Deutsch, L. Genovese, Ph. Ghosez, M. Giantomassi
- S. Goedecker, D.R. Hamann, P. Hermet, F. Jollet, G. Jomard, S. Leroux, M. Mancini, S. Mazevet,
- M.J.T. Oliveira, G. Onida, Y. Pouillon, T. Rangel, G.-M. Rignanese, D. Sangalli, R. Shaltaf,
- M. Torrent, M.J. Verstraete, G. Zerah, J.W. Zwanziger
- Comment: the third generic paper describing the ABINIT project.
- Note that a version of this paper, that is not formatted for Computer Phys. Comm. 
- is available at https://www.abinit.org/sites/default/files/ABINIT_CPC_v10.pdf .
- The licence allows the authors to put it on the Web.
- DOI and bibtex: see https://docs.abinit.org/theory/bibliography/#gonze2009
-
- Proc.   0 individual time (sec): cpu=        510.4  wall=        510.5

================================================================================

 Calculation completed.
.Delivered   0 WARNINGs and   0 COMMENTs to log file.
+Overall time at end (sec) : cpu=       3062.5  wall=       3062.6
