
.Version 9.2.2 of ABINIT 
.(MPI version, prepared for a x86_64_linux_gnu9.3 computer) 

.Copyright (C) 1998-2020 ABINIT group . 
 ABINIT comes with ABSOLUTELY NO WARRANTY.
 It is free software, and you are welcome to redistribute it
 under certain conditions (GNU General Public License,
 see ~abinit/COPYING or http://www.gnu.org/copyleft/gpl.txt).

 ABINIT is a project of the Universite Catholique de Louvain,
 Corning Inc. and other collaborators, see ~abinit/doc/developers/contributors.txt .
 Please read https://docs.abinit.org/theory/acknowledgments for suggested
 acknowledgments of the ABINIT effort.
 For more information, see https://www.abinit.org .

.Starting date : Fri 14 Jul 2023.
- ( at 22h50 )
  
- The starting date is more than 2 years after the initial release
- of this version of ABINIT, namely Nov 2020.
- Note that the use beyond 3 years after the release will not be supported.
- Action: please, switch to a more recent version of ABINIT.

- input  file    -> Cs2TiI6.in
- output file    -> Cs2TiI6.out
- root for input  files -> Cs2TiI6i
- root for output files -> Cs2TiI6o


 Symmetries : space group I4 m m (#107); Bravais tI (body-center tetrag.)
================================================================================
 Values of the parameters that define the memory need of the present run
     intxc =       0    ionmov =       0      iscf =      17    lmnmax =       8
     lnmax =       8     mgfft =      72  mpssoang =       4    mqgrid =    3001
     natom =       9  nloc_mem =       1    nspden =       1   nspinor =       1
    nsppol =       1      nsym =       8    n1xccc =    2501    ntypat =       4
    occopt =       1   xclevel =       2
-    mband =          42        mffmem =           1         mkmem =          41
       mpw =       12182          nfft =      373248          nkpt =         163
================================================================================
P This job should need less than                     456.758 Mbytes of memory.
  Rough estimation (10% accuracy) of disk space for files :
_ WF disk file :   1272.554 Mbytes ; DEN or POT disk file :      2.850 Mbytes.
================================================================================

--------------------------------------------------------------------------------
------------- Echo of variables that govern the present computation ------------
--------------------------------------------------------------------------------
-
- outvars: echo of selected default values                                      
-   iomode0 =  0 , fftalg0 =112 , wfoptalg0 =  0
-
- outvars: echo of global parameters not present in the input file              
-  max_nthreads =    0
-
 -outvars: echo values of preprocessed input variables --------
            acell      1.5837124838E+01  1.5837124838E+01  1.6026639824E+01 Bohr
              amu      1.32905430E+02  1.26904470E+02  9.12240000E+01
                       3.54527000E+01
           diemac      1.20000000E+01
             ecut      2.00000000E+01 Hartree
-          fftalg         112
             iscf          17
           istwfk        2    0    0    0    0    0    3    0    0    0
                         0    0    0    0    0    0    0    0    0    0
                         0    0    0    0    0    0    0    0    0    0
                         0    0    0    0    0    0    0    0    0    0
                         0    0    7    0    0    0    0    0    0    0
                       outvar_i_n : Printing only first  50 k-points.
              ixc          32
              kpt      0.00000000E+00  0.00000000E+00  0.00000000E+00
                       8.33333333E-02  0.00000000E+00  0.00000000E+00
                       1.66666667E-01  0.00000000E+00  0.00000000E+00
                       2.50000000E-01  0.00000000E+00  0.00000000E+00
                       3.33333333E-01  0.00000000E+00  0.00000000E+00
                       4.16666667E-01  0.00000000E+00  0.00000000E+00
                       5.00000000E-01  0.00000000E+00  0.00000000E+00
                       8.33333333E-02  8.33333333E-02  0.00000000E+00
                       1.66666667E-01  8.33333333E-02  0.00000000E+00
                       2.50000000E-01  8.33333333E-02  0.00000000E+00
                       3.33333333E-01  8.33333333E-02  0.00000000E+00
                       4.16666667E-01  8.33333333E-02  0.00000000E+00
                       5.00000000E-01  8.33333333E-02  0.00000000E+00
                      -4.16666667E-01  8.33333333E-02  0.00000000E+00
                      -3.33333333E-01  8.33333333E-02  0.00000000E+00
                      -2.50000000E-01  8.33333333E-02  0.00000000E+00
                      -1.66666667E-01  8.33333333E-02  0.00000000E+00
                      -8.33333333E-02  8.33333333E-02  0.00000000E+00
                       1.66666667E-01  1.66666667E-01  0.00000000E+00
                       2.50000000E-01  1.66666667E-01  0.00000000E+00
                       3.33333333E-01  1.66666667E-01  0.00000000E+00
                       4.16666667E-01  1.66666667E-01  0.00000000E+00
                       5.00000000E-01  1.66666667E-01  0.00000000E+00
                      -4.16666667E-01  1.66666667E-01  0.00000000E+00
                      -3.33333333E-01  1.66666667E-01  0.00000000E+00
                      -2.50000000E-01  1.66666667E-01  0.00000000E+00
                      -1.66666667E-01  1.66666667E-01  0.00000000E+00
                       2.50000000E-01  2.50000000E-01  0.00000000E+00
                       3.33333333E-01  2.50000000E-01  0.00000000E+00
                       4.16666667E-01  2.50000000E-01  0.00000000E+00
                       5.00000000E-01  2.50000000E-01  0.00000000E+00
                      -4.16666667E-01  2.50000000E-01  0.00000000E+00
                      -3.33333333E-01  2.50000000E-01  0.00000000E+00
                      -2.50000000E-01  2.50000000E-01  0.00000000E+00
                       3.33333333E-01  3.33333333E-01  0.00000000E+00
                       4.16666667E-01  3.33333333E-01  0.00000000E+00
                       5.00000000E-01  3.33333333E-01  0.00000000E+00
                      -4.16666667E-01  3.33333333E-01  0.00000000E+00
                      -3.33333333E-01  3.33333333E-01  0.00000000E+00
                       4.16666667E-01  4.16666667E-01  0.00000000E+00
                       5.00000000E-01  4.16666667E-01  0.00000000E+00
                      -4.16666667E-01  4.16666667E-01  0.00000000E+00
                       5.00000000E-01  5.00000000E-01  0.00000000E+00
                       8.33333333E-02  0.00000000E+00  8.33333333E-02
                       1.66666667E-01  0.00000000E+00  8.33333333E-02
                       2.50000000E-01  0.00000000E+00  8.33333333E-02
                       3.33333333E-01  0.00000000E+00  8.33333333E-02
                       4.16666667E-01  0.00000000E+00  8.33333333E-02
                       5.00000000E-01  0.00000000E+00  8.33333333E-02
                      -4.16666667E-01  0.00000000E+00  8.33333333E-02
                       outvar_i_n : Printing only first  50 k-points.
         kptrlatt       12    0    0      0   12    0      0    0   12
          kptrlen      1.90045498E+02
P           mkmem          41
            natom           9
            nband          42
            ngfft          72      72      72
             nkpt         163
            nstep        2500
             nsym           8
           ntypat           4
              occ      2.000000  2.000000  2.000000  2.000000  2.000000  2.000000
                       2.000000  2.000000  2.000000  2.000000  2.000000  2.000000
                       2.000000  2.000000  2.000000  2.000000  2.000000  2.000000
                       2.000000  2.000000  2.000000  2.000000  2.000000  2.000000
                       2.000000  2.000000  2.000000  2.000000  2.000000  2.000000
                       2.000000  2.000000  2.000000  2.000000  2.000000  2.000000
                       0.000000  0.000000  0.000000  0.000000  0.000000  0.000000
            rprim      0.0000000000E+00  7.1556837589E-01  6.9854269693E-01
                       7.1556837589E-01  0.0000000000E+00  6.9854269693E-01
                       7.0710678119E-01  7.0710678119E-01  0.0000000000E+00
          spgroup         107
           symrel      1  0  0   0  1  0   0  0  1       1  0 -1   0  1 -1   0  0 -1
                       0  1 -1   1  0 -1   0  0 -1       0  1  0   1  0  0   0  0  1
                       1  0  0   1  0 -1   1 -1  0       0  1  0   0  1 -1  -1  1  0
                       0  1 -1   0  1  0  -1  1  0       1  0 -1   1  0  0   1 -1  0
           toldfe      1.00000000E-08 Hartree
            typat      1  1  4  2  2  2  2  2  3
              wtk        0.00058    0.00463    0.00463    0.00463    0.00463    0.00463
                         0.00231    0.00116    0.00463    0.00463    0.00463    0.00463
                         0.00463    0.00463    0.00463    0.00463    0.00463    0.00231
                         0.00116    0.00463    0.00463    0.00463    0.00463    0.00463
                         0.00463    0.00463    0.00231    0.00116    0.00463    0.00463
                         0.00463    0.00463    0.00463    0.00231    0.00116    0.00463
                         0.00463    0.00463    0.00231    0.00116    0.00463    0.00231
                         0.00058    0.00231    0.00926    0.00926    0.00926    0.00926
                         0.00926    0.00926
                       outvars : Printing only first  50 k-points.
           xangst      2.9984624497E+00  2.9984624497E+00  2.9637552311E+00
                       8.9953873490E+00  8.9953873490E+00  8.8179939504E+00
                       5.9969248993E+00  5.9969248993E+00  2.5203345619E+00
                       5.9969248993E+00  5.9969248993E+00  8.8965090273E+00
                       9.1003111096E+00  5.9969248993E+00  5.8878772995E+00
                       5.9969248993E+00  9.1003111096E+00  5.8878772995E+00
                       5.9969248993E+00  2.8935386891E+00  5.8878772995E+00
                       2.8935386891E+00  5.9969248993E+00  5.8878772995E+00
                      -5.5026094033E-13 -5.5026094033E-13  8.3807785145E-02
            xcart      5.6662728496E+00  5.6662728496E+00  5.6006857117E+00
                       1.6998818549E+01  1.6998818549E+01  1.6663593608E+01
                       1.1332545699E+01  1.1332545699E+01  4.7627420853E+00
                       1.1332545699E+01  1.1332545699E+01  1.6811965600E+01
                       1.7197095721E+01  1.1332545699E+01  1.1126475600E+01
                       1.1332545699E+01  1.7197095721E+01  1.1126475600E+01
                       1.1332545699E+01  5.4679956772E+00  1.1126475600E+01
                       5.4679956772E+00  1.1332545699E+01  1.1126475600E+01
                      -1.0398424788E-12 -1.0398424788E-12  1.5837376173E-01
             xred      2.5312900389E-01  2.5312900389E-01  2.4687099611E-01
                       7.5312900389E-01  7.5312900389E-01  7.4687099611E-01
                       2.1525724204E-01  2.1525724204E-01  7.8474275796E-01
                       7.5983483540E-01  7.5983483540E-01  2.4016516460E-01
                       2.4412488036E-01  7.6162114092E-01  7.5587511964E-01
                       7.6162114092E-01  2.4412488036E-01  7.5587511964E-01
                       2.4412488036E-01  7.6162114092E-01  2.3837885908E-01
                       7.6162114092E-01  2.4412488036E-01  2.3837885908E-01
                       7.1578721986E-03  7.1578721986E-03 -7.1578721986E-03
            znucl       55.00000   53.00000   40.00000   17.00000

================================================================================

 chkinp: Checking input parameters for consistency.

================================================================================
== DATASET  1 ==================================================================
-   mpi_nproc: 4, omp_nthreads: -1 (-1 if OMP is not activated)


--- !DatasetInfo
iteration_state: {dtset: 1, }
dimensions: {natom: 9, nkpt: 163, mband: 42, nsppol: 1, nspinor: 1, nspden: 1, mpw: 12182, }
cutoff_energies: {ecut:  20.0, pawecutdg:  -1.0, }
electrons: {nelect:   7.20000000E+01, charge:   0.00000000E+00, occopt:   1.00000000E+00, tsmear:   1.00000000E-02, }
meta: {optdriver: 0, ionmov: 0, optcell: 0, iscf: 17, paral_kgb: 0, }
...

 Exchange-correlation functional for the present dataset will be:
  Meta-GGA fake2 - ixc=32

 Real(R)+Recip(G) space primitive vectors, cartesian coordinates (Bohr,Bohr^-1):
 R(1)=  0.0000000 11.3325457 11.0629079  G(1)= -0.0441207  0.0441207  0.0451961
 R(2)= 11.3325457  0.0000000 11.0629079  G(2)=  0.0441207 -0.0441207  0.0451961
 R(3)= 11.3325457 11.3325457  0.0000000  G(3)=  0.0441207  0.0441207 -0.0451961
 Unit cell volume ucvol=  2.8415431E+03 bohr^3
 Angles (23,13,12)=  5.96033555E+01  5.96033555E+01  6.07932891E+01 degrees

 getcut: wavevector=  0.0000  0.0000  0.0000  ngfft=  72  72  72
         ecut(hartree)=     20.000   => boxcut(ratio)=   2.23157

 getcut : COMMENT -
  Note that boxcut > 2.2 ; recall that boxcut=Gcut(box)/Gcut(sphere) = 2
  is sufficient for exact treatment of convolution.
  Such a large boxcut is a waste : you could raise ecut
  e.g. ecut=   24.899452 Hartrees makes boxcut=2


--- Pseudopotential description ------------------------------------------------
- pspini: atom type   1  psp file is ../../../Psps_for_tests/ONCVPSP-PBE-PDv0.4/Cs-sp.psp8
- pspatm: opening atomic psp file    ../../../Psps_for_tests/ONCVPSP-PBE-PDv0.4/Cs-sp.psp8
- Cs    ONCVPSP-3.2.3.1  r_core=   2.27353   1.85623   2.01788   1.90105
- 55.00000   9.00000    170703                znucl, zion, pspdat
    8   32    3    4       600   0.00000      pspcod,pspxc,lmax,lloc,mmax,r2well
    5.99000000000000    5.00000000000000    0.00000000000000   rchrg,fchrg,qchrg
     nproj     2     2     2     2
     extension_switch     1
  pspatm : epsatm=   22.81663475
         --- l  ekb(1:nproj) -->
             0    6.176104    0.756334
             1    6.263084    0.786397
             2    3.737592    0.906929
             3   -9.272327   -2.535859
 pspatm: atomic psp has been read  and splines computed

- pspini: atom type   2  psp file is ../../../Psps_for_tests/ONCVPSP-PBE-PDv0.4/I.psp8
- pspatm: opening atomic psp file    ../../../Psps_for_tests/ONCVPSP-PBE-PDv0.4/I.psp8
- I     ONCVPSP-3.2.3.1  r_core=   2.02042   2.17032   2.27639
- 53.00000   7.00000    170510                znucl, zion, pspdat
    8   32    2    4       600   0.00000      pspcod,pspxc,lmax,lloc,mmax,r2well
    5.99000000000000    4.00000000000000    0.00000000000000   rchrg,fchrg,qchrg
     nproj     2     2     2
     extension_switch     1
  pspatm : epsatm=   19.17050482
         --- l  ekb(1:nproj) -->
             0    5.955518    0.916455
             1    4.011347    0.742302
             2    4.134838    0.711910
 pspatm: atomic psp has been read  and splines computed

- pspini: atom type   3  psp file is ../../../Psps_for_tests/ONCVPSP-PBE-PDv0.4/Zr-sp.psp8
- pspatm: opening atomic psp file    ../../../Psps_for_tests/ONCVPSP-PBE-PDv0.4/Zr-sp.psp8
- Zr    ONCVPSP-3.2.3.1  r_core=   1.56507   1.56507   1.51006
- 40.00000  12.00000    170510                znucl, zion, pspdat
    8   32    2    4       600   0.00000      pspcod,pspxc,lmax,lloc,mmax,r2well
    5.99000000000000    5.00000000000000    0.00000000000000   rchrg,fchrg,qchrg
     nproj     2     2     2
     extension_switch     1
  pspatm : epsatm=   18.79873988
         --- l  ekb(1:nproj) -->
             0   10.621766    0.898805
             1    5.849837    0.750341
             2    1.531478    0.503023
 pspatm: atomic psp has been read  and splines computed

- pspini: atom type   4  psp file is ../../../Psps_for_tests/ONCVPSP-PBE-PDv0.4/Cl.psp8
- pspatm: opening atomic psp file    ../../../Psps_for_tests/ONCVPSP-PBE-PDv0.4/Cl.psp8
- Cl    ONCVPSP-3.2.3.1  r_core=   1.56009   1.35202   1.75774
- 17.00000   7.00000    170504                znucl, zion, pspdat
    8   32    2    4       600   0.00000      pspcod,pspxc,lmax,lloc,mmax,r2well
    5.99000000000000    8.00000000000000    0.00000000000000   rchrg,fchrg,qchrg
     nproj     2     2     2
     extension_switch     1
  pspatm : epsatm=    9.12776994
         --- l  ekb(1:nproj) -->
             0    8.139296    0.698720
             1    3.821713    1.107519
             2   -2.938609   -0.805455
 pspatm: atomic psp has been read  and splines computed

   1.21976858E+04                                ecore*ucvol(ha*bohr**3)
--------------------------------------------------------------------------------

_setup2: Arith. and geom. avg. npw (full set) are   12139.451   12139.443

================================================================================

--- !BeginCycle
iteration_state: {dtset: 1, }
solver: {iscf: 17, nstep: 2500, nline: 4, wfoptalg: 0, }
tolerances: {toldfe: 1.00E-08, }
...

     iter   Etot(hartree)      deltaE(h)  residm     nres2
 ETOT  1  -179.02776248028    -1.790E+02 2.618E-02 3.056E+00
 ETOT  2  -179.11192828169    -8.417E-02 3.587E-02 4.170E+00
 ETOT  3  -179.07678265223     3.515E-02 6.962E-03 2.209E-01
 ETOT  4  -179.07436987638     2.413E-03 1.487E-02 1.077E-02
 ETOT  5  -179.07427000219     9.987E-05 2.990E-03 5.606E-04
 ETOT  6  -179.07427004967    -4.748E-08 2.324E-03 1.009E-04
 ETOT  7  -179.07427093851    -8.888E-07 2.131E-03 1.077E-05
 ETOT  8  -179.07427097282    -3.432E-08 1.945E-03 1.472E-06
 ETOT  9  -179.07427100327    -3.045E-08 6.069E-04 1.702E-07
 ETOT 10  -179.07427100646    -3.187E-09 7.273E-04 2.746E-08
 ETOT 11  -179.07427100649    -2.467E-11 5.306E-04 4.437E-09

 At SCF step   11, etot is converged : 
  for the second time, diff in etot=  2.467E-11 < toldfe=  1.000E-08

 Cartesian components of stress tensor (hartree/bohr^3)
  sigma(1 1)= -3.10762371E-04  sigma(3 2)=  7.87801722E-15
  sigma(2 2)= -3.10762371E-04  sigma(3 1)=  7.87807651E-15
  sigma(3 3)= -3.07445327E-04  sigma(2 1)= -1.53814487E-14


--- !ResultsGS
iteration_state: {dtset: 1, }
comment   : Summary of ground state results
lattice_vectors:
- [  0.0000000,  11.3325457,  11.0629079, ]
- [ 11.3325457,   0.0000000,  11.0629079, ]
- [ 11.3325457,  11.3325457,   0.0000000, ]
lattice_lengths: [  15.83712,   15.83712,   16.02664, ]
lattice_angles: [ 59.603,  59.603,  60.793, ] # degrees, (23, 13, 12)
lattice_volume:   2.8415431E+03
convergence: {deltae: -2.467E-11, res2:  4.437E-09, residm:  5.306E-04, diffor: null, }
etotal    :  -1.79074271E+02
entropy   :   0.00000000E+00
fermie    :   2.65447342E-02
cartesian_stress_tensor: # hartree/bohr^3
- [ -3.10762371E-04,  -1.53814487E-14,   7.87807651E-15, ]
- [ -1.53814487E-14,  -3.10762371E-04,   7.87801722E-15, ]
- [  7.87807651E-15,   7.87801722E-15,  -3.07445327E-04, ]
pressure_GPa:   9.1104E+00
xred      :
- [  2.5313E-01,   2.5313E-01,   2.4687E-01, Cs]
- [  7.5313E-01,   7.5313E-01,   7.4687E-01, Cs]
- [  2.1526E-01,   2.1526E-01,   7.8474E-01, Cl]
- [  7.5983E-01,   7.5983E-01,   2.4017E-01,  I]
- [  2.4412E-01,   7.6162E-01,   7.5588E-01,  I]
- [  7.6162E-01,   2.4412E-01,   7.5588E-01,  I]
- [  2.4412E-01,   7.6162E-01,   2.3838E-01,  I]
- [  7.6162E-01,   2.4412E-01,   2.3838E-01,  I]
- [  7.1579E-03,   7.1579E-03,  -7.1579E-03, Zr]
cartesian_forces: # hartree/bohr
- [  3.85153234E-21,  -8.58701180E-20,  -1.14942257E-04, ]
- [  1.06064127E-21,  -8.30792269E-20,  -1.14942257E-04, ]
- [ -3.65458847E-20,  -4.54727010E-20,  -5.77876151E-03, ]
- [ -6.19445963E-20,  -2.00739894E-20,   2.60231135E-03, ]
- [  3.07575725E-03,  -1.97142201E-14,   3.92106200E-04, ]
- [ -1.97140441E-14,   3.07575725E-03,   3.92106200E-04, ]
- [  1.97138320E-14,  -3.07575725E-03,   3.92106200E-04, ]
- [ -3.07575725E-03,   1.97140514E-14,   3.92106200E-04, ]
- [ -1.90170879E-20,  -6.30014977E-20,   1.83790987E-03, ]
force_length_stats: {min:   1.14942257E-04, max:   5.77876151E-03, mean:   2.53905188E-03, }
...

 Integrated electronic density in atomic spheres:
 ------------------------------------------------
 Atom  Sphere_radius  Integrated_density
    1        2.00000          4.43719781
    2        2.00000          4.43719781
    3        2.00000          5.04310841
    4        2.00000          2.85342301
    5        2.00000          2.84850019
    6        2.00000          2.84850019
    7        2.00000          2.84850019
    8        2.00000          2.84850019
    9        2.00000          8.25068900
================================================================================

 ----iterations are completed or convergence reached----

 Mean square residual over all n,k,spin=   85.617E-08; max=  53.062E-05
 reduced coordinates (array xred) for    9 atoms
       0.253129003890      0.253129003890      0.246870996110
       0.753129003890      0.753129003890      0.746870996110
       0.215257242040      0.215257242040      0.784742757960
       0.759834835400      0.759834835400      0.240165164600
       0.244124880360      0.761621140920      0.755875119640
       0.761621140920      0.244124880360      0.755875119640
       0.244124880360      0.761621140920      0.238378859080
       0.761621140920      0.244124880360      0.238378859080
       0.007157872199      0.007157872199     -0.007157872199
 rms dE/dt=  2.7578E-02; max dE/dt=  6.3931E-02; dE/dt below (all hartree)
    1       0.001272921801      0.001272921801      0.000000000000
    2       0.001272921801      0.001272921801      0.000000000000
    3       0.063931232570      0.063931232570      0.000000000000
    4      -0.028787804627     -0.028787804627      0.000000000000
    5      -0.004336508575     -0.039192668190     -0.034856159615
    6      -0.039192668190     -0.004336508575     -0.034856159615
    7       0.030519651040     -0.004336508575      0.034856159615
    8      -0.004336508575      0.030519651040      0.034856159615
    9      -0.020331301439     -0.020331301439      0.000000000000

 cartesian coordinates (angstrom) at end:
    1      2.99846244965179     2.99846244965179     2.96375523108566
    2      8.99538734895584     8.99538734895584     8.81799395035466
    3      5.99692489932594     5.99692489932594     2.52033456190725
    4      5.99692489928408     5.99692489928408     8.89650902729613
    5      9.10031110955283     5.99692489932372     5.88787729952812
    6      5.99692489932372     9.10031110955283     5.88787729952812
    7      5.99692489928394     2.89353868905483     5.88787729952812
    8      2.89353868905483     5.99692489928394     5.88787729952812
    9     -0.00000000000055    -0.00000000000055     0.08380778514525

 cartesian forces (hartree/bohr) at end:
    1      0.00000000000000    -0.00000000000000    -0.00011494225682
    2      0.00000000000000    -0.00000000000000    -0.00011494225682
    3     -0.00000000000000    -0.00000000000000    -0.00577876151284
    4     -0.00000000000000    -0.00000000000000     0.00260231135417
    5      0.00307575725173    -0.00000000000002     0.00039210619999
    6     -0.00000000000002     0.00307575725173     0.00039210619999
    7      0.00000000000002    -0.00307575725173     0.00039210619995
    8     -0.00307575725173     0.00000000000002     0.00039210619995
    9     -0.00000000000000    -0.00000000000000     0.00183790987242
 frms,max,avg= 1.7429919E-03 5.7787615E-03   0.000E+00  0.000E+00 -1.199E-07 h/b

 cartesian forces (eV/Angstrom) at end:
    1      0.00000000000000    -0.00000000000000    -0.00591056799341
    2      0.00000000000000    -0.00000000000000    -0.00591056799341
    3     -0.00000000000000    -0.00000000000000    -0.29715583968584
    4     -0.00000000000000    -0.00000000000000     0.13381621889982
    5      0.15816178376217    -0.00000000000101     0.02016290979399
    6     -0.00000000000101     0.15816178376217     0.02016290979399
    7      0.00000000000101    -0.15816178376217     0.02016290979191
    8     -0.15816178376217     0.00000000000101     0.02016290979191
    9     -0.00000000000000    -0.00000000000000     0.09450911760103
 frms,max,avg= 8.9628242E-02 2.9715584E-01   0.000E+00  0.000E+00 -6.164E-06 e/A
 length scales= 15.837124838000 15.837124838000 16.026639824000 bohr
              =  8.380645513864  8.380645513864  8.480932525142 angstroms
 prteigrs : about to open file Cs2TiI6o_EIG
 Fermi (or HOMO) energy (hartree) =   0.02654   Average Vxc (hartree)=  -0.29149
 Eigenvalues (hartree) for nkpt= 163  k points:
 kpt#   1, nband= 42, wtk=  0.00058, kpt=  0.0000  0.0000  0.0000 (reduced coord)
  -1.79052   -0.97829   -0.97679   -0.97679   -0.72669   -0.72659   -0.49451   -0.39539
  -0.38117   -0.38117   -0.37858   -0.37586   -0.24476   -0.24403   -0.24403   -0.24271
  -0.24265   -0.24265   -0.10792   -0.07677   -0.07641   -0.07641   -0.05374   -0.05356
  -0.05356   -0.04568   -0.04160   -0.01653   -0.01653   -0.00075    0.01121    0.01139
   0.01139    0.02607    0.02654    0.02654    0.09173    0.09858    0.09858    0.15837
   0.18038    0.18378
 prteigrs : prtvol=0 or 1, do not print more k-points.


--- !EnergyTerms
iteration_state     : {dtset: 1, }
comment             : Components of total free energy in Hartree
kinetic             :  4.53571034709104E+01
hartree             :  3.92429994528172E+01
xc                  : -4.81891712258512E+01
Ewald energy        : -1.12092241869262E+02
psp_core            :  4.29262739982204E+00
local_psp           : -1.31506621331596E+02
non_local_psp       :  2.38210734630570E+01
total_energy        : -1.79074230640102E+02
...


--- !EnergyTermsDC
iteration_state     : {dtset: 1, }
comment             : '"Double-counting" decomposition of free energy'
band_energy         : -2.12295724875708E+01
Ewald energy        : -1.12092241869262E+02
psp_core            :  4.29262739982204E+00
xc_dc               : -5.00450840494763E+01
total_energy_dc     : -1.79074271006487E+02
...


 Cartesian components of stress tensor (hartree/bohr^3)
  sigma(1 1)= -3.10762371E-04  sigma(3 2)=  7.87801722E-15
  sigma(2 2)= -3.10762371E-04  sigma(3 1)=  7.87807651E-15
  sigma(3 3)= -3.07445327E-04  sigma(2 1)= -1.53814487E-14

-Cartesian components of stress tensor (GPa)         [Pressure=  9.1104E+00 GPa]
- sigma(1 1)= -9.14294308E+00  sigma(3 2)=  2.31779230E-10
- sigma(2 2)= -9.14294308E+00  sigma(3 1)=  2.31780974E-10
- sigma(3 3)= -9.04535228E+00  sigma(2 1)= -4.52537769E-10

== END DATASET(S) ==============================================================
================================================================================
  
 -outvars: echo values of variables after computation  --------
            acell      1.5837124838E+01  1.5837124838E+01  1.6026639824E+01 Bohr
              amu      1.32905430E+02  1.26904470E+02  9.12240000E+01
                       3.54527000E+01
           diemac      1.20000000E+01
             ecut      2.00000000E+01 Hartree
           etotal     -1.7907427101E+02
            fcart      3.8515323359E-21 -8.5870117976E-20 -1.1494225682E-04
                       1.0606412668E-21 -8.3079226907E-20 -1.1494225682E-04
                      -3.6545884663E-20 -4.5472700978E-20 -5.7787615128E-03
                      -6.1944596280E-20 -2.0073989360E-20  2.6023113542E-03
                       3.0757572517E-03 -1.9714220144E-14  3.9210619999E-04
                      -1.9714044063E-14  3.0757572517E-03  3.9210619999E-04
                       1.9713831976E-14 -3.0757572517E-03  3.9210619995E-04
                      -3.0757572517E-03  1.9714051353E-14  3.9210619995E-04
                      -1.9017087940E-20 -6.3001497700E-20  1.8379098724E-03
-          fftalg         112
             iscf          17
           istwfk        2    0    0    0    0    0    3    0    0    0
                         0    0    0    0    0    0    0    0    0    0
                         0    0    0    0    0    0    0    0    0    0
                         0    0    0    0    0    0    0    0    0    0
                         0    0    7    0    0    0    0    0    0    0
                       outvar_i_n : Printing only first  50 k-points.
              ixc          32
              kpt      0.00000000E+00  0.00000000E+00  0.00000000E+00
                       8.33333333E-02  0.00000000E+00  0.00000000E+00
                       1.66666667E-01  0.00000000E+00  0.00000000E+00
                       2.50000000E-01  0.00000000E+00  0.00000000E+00
                       3.33333333E-01  0.00000000E+00  0.00000000E+00
                       4.16666667E-01  0.00000000E+00  0.00000000E+00
                       5.00000000E-01  0.00000000E+00  0.00000000E+00
                       8.33333333E-02  8.33333333E-02  0.00000000E+00
                       1.66666667E-01  8.33333333E-02  0.00000000E+00
                       2.50000000E-01  8.33333333E-02  0.00000000E+00
                       3.33333333E-01  8.33333333E-02  0.00000000E+00
                       4.16666667E-01  8.33333333E-02  0.00000000E+00
                       5.00000000E-01  8.33333333E-02  0.00000000E+00
                      -4.16666667E-01  8.33333333E-02  0.00000000E+00
                      -3.33333333E-01  8.33333333E-02  0.00000000E+00
                      -2.50000000E-01  8.33333333E-02  0.00000000E+00
                      -1.66666667E-01  8.33333333E-02  0.00000000E+00
                      -8.33333333E-02  8.33333333E-02  0.00000000E+00
                       1.66666667E-01  1.66666667E-01  0.00000000E+00
                       2.50000000E-01  1.66666667E-01  0.00000000E+00
                       3.33333333E-01  1.66666667E-01  0.00000000E+00
                       4.16666667E-01  1.66666667E-01  0.00000000E+00
                       5.00000000E-01  1.66666667E-01  0.00000000E+00
                      -4.16666667E-01  1.66666667E-01  0.00000000E+00
                      -3.33333333E-01  1.66666667E-01  0.00000000E+00
                      -2.50000000E-01  1.66666667E-01  0.00000000E+00
                      -1.66666667E-01  1.66666667E-01  0.00000000E+00
                       2.50000000E-01  2.50000000E-01  0.00000000E+00
                       3.33333333E-01  2.50000000E-01  0.00000000E+00
                       4.16666667E-01  2.50000000E-01  0.00000000E+00
                       5.00000000E-01  2.50000000E-01  0.00000000E+00
                      -4.16666667E-01  2.50000000E-01  0.00000000E+00
                      -3.33333333E-01  2.50000000E-01  0.00000000E+00
                      -2.50000000E-01  2.50000000E-01  0.00000000E+00
                       3.33333333E-01  3.33333333E-01  0.00000000E+00
                       4.16666667E-01  3.33333333E-01  0.00000000E+00
                       5.00000000E-01  3.33333333E-01  0.00000000E+00
                      -4.16666667E-01  3.33333333E-01  0.00000000E+00
                      -3.33333333E-01  3.33333333E-01  0.00000000E+00
                       4.16666667E-01  4.16666667E-01  0.00000000E+00
                       5.00000000E-01  4.16666667E-01  0.00000000E+00
                      -4.16666667E-01  4.16666667E-01  0.00000000E+00
                       5.00000000E-01  5.00000000E-01  0.00000000E+00
                       8.33333333E-02  0.00000000E+00  8.33333333E-02
                       1.66666667E-01  0.00000000E+00  8.33333333E-02
                       2.50000000E-01  0.00000000E+00  8.33333333E-02
                       3.33333333E-01  0.00000000E+00  8.33333333E-02
                       4.16666667E-01  0.00000000E+00  8.33333333E-02
                       5.00000000E-01  0.00000000E+00  8.33333333E-02
                      -4.16666667E-01  0.00000000E+00  8.33333333E-02
                       outvar_i_n : Printing only first  50 k-points.
         kptrlatt       12    0    0      0   12    0      0    0   12
          kptrlen      1.90045498E+02
P           mkmem          41
            natom           9
            nband          42
            ngfft          72      72      72
             nkpt         163
            nstep        2500
             nsym           8
           ntypat           4
              occ      2.000000  2.000000  2.000000  2.000000  2.000000  2.000000
                       2.000000  2.000000  2.000000  2.000000  2.000000  2.000000
                       2.000000  2.000000  2.000000  2.000000  2.000000  2.000000
                       2.000000  2.000000  2.000000  2.000000  2.000000  2.000000
                       2.000000  2.000000  2.000000  2.000000  2.000000  2.000000
                       2.000000  2.000000  2.000000  2.000000  2.000000  2.000000
                       0.000000  0.000000  0.000000  0.000000  0.000000  0.000000
            rprim      0.0000000000E+00  7.1556837589E-01  6.9854269693E-01
                       7.1556837589E-01  0.0000000000E+00  6.9854269693E-01
                       7.0710678119E-01  7.0710678119E-01  0.0000000000E+00
          spgroup         107
           strten     -3.1076237115E-04 -3.1076237115E-04 -3.0744532676E-04
                       7.8780172198E-15  7.8780765057E-15 -1.5381448724E-14
           symrel      1  0  0   0  1  0   0  0  1       1  0 -1   0  1 -1   0  0 -1
                       0  1 -1   1  0 -1   0  0 -1       0  1  0   1  0  0   0  0  1
                       1  0  0   1  0 -1   1 -1  0       0  1  0   0  1 -1  -1  1  0
                       0  1 -1   0  1  0  -1  1  0       1  0 -1   1  0  0   1 -1  0
           toldfe      1.00000000E-08 Hartree
            typat      1  1  4  2  2  2  2  2  3
              wtk        0.00058    0.00463    0.00463    0.00463    0.00463    0.00463
                         0.00231    0.00116    0.00463    0.00463    0.00463    0.00463
                         0.00463    0.00463    0.00463    0.00463    0.00463    0.00231
                         0.00116    0.00463    0.00463    0.00463    0.00463    0.00463
                         0.00463    0.00463    0.00231    0.00116    0.00463    0.00463
                         0.00463    0.00463    0.00463    0.00231    0.00116    0.00463
                         0.00463    0.00463    0.00231    0.00116    0.00463    0.00231
                         0.00058    0.00231    0.00926    0.00926    0.00926    0.00926
                         0.00926    0.00926
                       outvars : Printing only first  50 k-points.
           xangst      2.9984624497E+00  2.9984624497E+00  2.9637552311E+00
                       8.9953873490E+00  8.9953873490E+00  8.8179939504E+00
                       5.9969248993E+00  5.9969248993E+00  2.5203345619E+00
                       5.9969248993E+00  5.9969248993E+00  8.8965090273E+00
                       9.1003111096E+00  5.9969248993E+00  5.8878772995E+00
                       5.9969248993E+00  9.1003111096E+00  5.8878772995E+00
                       5.9969248993E+00  2.8935386891E+00  5.8878772995E+00
                       2.8935386891E+00  5.9969248993E+00  5.8878772995E+00
                      -5.5026094033E-13 -5.5026094033E-13  8.3807785145E-02
            xcart      5.6662728496E+00  5.6662728496E+00  5.6006857117E+00
                       1.6998818549E+01  1.6998818549E+01  1.6663593608E+01
                       1.1332545699E+01  1.1332545699E+01  4.7627420853E+00
                       1.1332545699E+01  1.1332545699E+01  1.6811965600E+01
                       1.7197095721E+01  1.1332545699E+01  1.1126475600E+01
                       1.1332545699E+01  1.7197095721E+01  1.1126475600E+01
                       1.1332545699E+01  5.4679956772E+00  1.1126475600E+01
                       5.4679956772E+00  1.1332545699E+01  1.1126475600E+01
                      -1.0398424788E-12 -1.0398424788E-12  1.5837376173E-01
             xred      2.5312900389E-01  2.5312900389E-01  2.4687099611E-01
                       7.5312900389E-01  7.5312900389E-01  7.4687099611E-01
                       2.1525724204E-01  2.1525724204E-01  7.8474275796E-01
                       7.5983483540E-01  7.5983483540E-01  2.4016516460E-01
                       2.4412488036E-01  7.6162114092E-01  7.5587511964E-01
                       7.6162114092E-01  2.4412488036E-01  7.5587511964E-01
                       2.4412488036E-01  7.6162114092E-01  2.3837885908E-01
                       7.6162114092E-01  2.4412488036E-01  2.3837885908E-01
                       7.1578721986E-03  7.1578721986E-03 -7.1578721986E-03
            znucl       55.00000   53.00000   40.00000   17.00000

================================================================================


- Timing analysis has been suppressed with timopt=0



================================================================================

 Suggested references for the acknowledgment of ABINIT usage.

 The users of ABINIT have little formal obligations with respect to the ABINIT group
 (those specified in the GNU General Public License, http://www.gnu.org/copyleft/gpl.txt).
 However, it is common practice in the scientific literature,
 to acknowledge the efforts of people that have made the research possible.
 In this spirit, please find below suggested citations of work written by ABINIT developers,
 corresponding to implementations inside of ABINIT that you have used in the present run.
 Note also that it will be of great value to readers of publications presenting these results,
 to read papers enabling them to understand the theoretical formalism and details
 of the ABINIT implementation.
 For information on why they are suggested, see also https://docs.abinit.org/theory/acknowledgments.
-
- [1] The Abinit project: Impact, environment and recent developments.
- Computer Phys. Comm. 248, 107042 (2020).
- X.Gonze, B. Amadon, G. Antonius, F.Arnardi, L.Baguet, J.-M.Beuken,
- J.Bieder, F.Bottin, J.Bouchet, E.Bousquet, N.Brouwer, F.Bruneval,
- G.Brunin, T.Cavignac, J.-B. Charraud, Wei Chen, M.Cote, S.Cottenier,
- J.Denier, G.Geneste, Ph.Ghosez, M.Giantomassi, Y.Gillet, O.Gingras,
- D.R.Hamann, G.Hautier, Xu He, N.Helbig, N.Holzwarth, Y.Jia, F.Jollet,
- W.Lafargue-Dit-Hauret, K.Lejaeghere, M.A.L.Marques, A.Martin, C.Martins,
- H.P.C. Miranda, F.Naccarato, K. Persson, G.Petretto, V.Planes, Y.Pouillon,
- S.Prokhorenko, F.Ricci, G.-M.Rignanese, A.H.Romero, M.M.Schmitt, M.Torrent,
- M.J.van Setten, B.Van Troeye, M.J.Verstraete, G.Zerah and J.W.Zwanzig
- Comment: the fifth generic paper describing the ABINIT project.
- Note that a version of this paper, that is not formatted for Computer Phys. Comm. 
- is available at https://www.abinit.org/sites/default/files/ABINIT20.pdf .
- The licence allows the authors to put it on the Web.
- DOI and bibtex: see https://docs.abinit.org/theory/bibliography/#gonze2020
-
- [2] Optimized norm-conserving Vanderbilt pseudopotentials.
- D.R. Hamann, Phys. Rev. B 88, 085117 (2013).
- Comment: Some pseudopotential generated using the ONCVPSP code were used.
- DOI and bibtex: see https://docs.abinit.org/theory/bibliography/#hamann2013
-
- [3] ABINIT: Overview, and focus on selected capabilities
- J. Chem. Phys. 152, 124102 (2020).
- A. Romero, D.C. Allan, B. Amadon, G. Antonius, T. Applencourt, L.Baguet,
- J.Bieder, F.Bottin, J.Bouchet, E.Bousquet, F.Bruneval,
- G.Brunin, D.Caliste, M.Cote,
- J.Denier, C. Dreyer, Ph.Ghosez, M.Giantomassi, Y.Gillet, O.Gingras,
- D.R.Hamann, G.Hautier, F.Jollet, G. Jomard,
- A.Martin, 
- H.P.C. Miranda, F.Naccarato, G.Petretto, N.A. Pike, V.Planes,
- S.Prokhorenko, T. Rangel, F.Ricci, G.-M.Rignanese, M.Royo, M.Stengel, M.Torrent,
- M.J.van Setten, B.Van Troeye, M.J.Verstraete, J.Wiktor, J.W.Zwanziger, and X.Gonze.
- Comment: a global overview of ABINIT, with focus on selected capabilities .
- Note that a version of this paper, that is not formatted for J. Chem. Phys 
- is available at https://www.abinit.org/sites/default/files/ABINIT20_JPC.pdf .
- The licence allows the authors to put it on the Web.
- DOI and bibtex: see https://docs.abinit.org/theory/bibliography/#romero2020
-
- [4] Recent developments in the ABINIT software package.
- Computer Phys. Comm. 205, 106 (2016).
- X.Gonze, F.Jollet, F.Abreu Araujo, D.Adams, B.Amadon, T.Applencourt,
- C.Audouze, J.-M.Beuken, J.Bieder, A.Bokhanchuk, E.Bousquet, F.Bruneval
- D.Caliste, M.Cote, F.Dahm, F.Da Pieve, M.Delaveau, M.Di Gennaro,
- B.Dorado, C.Espejo, G.Geneste, L.Genovese, A.Gerossier, M.Giantomassi,
- Y.Gillet, D.R.Hamann, L.He, G.Jomard, J.Laflamme Janssen, S.Le Roux,
- A.Levitt, A.Lherbier, F.Liu, I.Lukacevic, A.Martin, C.Martins,
- M.J.T.Oliveira, S.Ponce, Y.Pouillon, T.Rangel, G.-M.Rignanese,
- A.H.Romero, B.Rousseau, O.Rubel, A.A.Shukri, M.Stankovski, M.Torrent,
- M.J.Van Setten, B.Van Troeye, M.J.Verstraete, D.Waroquier, J.Wiktor,
- B.Xu, A.Zhou, J.W.Zwanziger.
- Comment: the fourth generic paper describing the ABINIT project.
- Note that a version of this paper, that is not formatted for Computer Phys. Comm. 
- is available at https://www.abinit.org/sites/default/files/ABINIT16.pdf .
- The licence allows the authors to put it on the Web.
- DOI and bibtex: see https://docs.abinit.org/theory/bibliography/#gonze2016
-
- And optionally:
-
- [5] ABINIT: First-principles approach of materials and nanosystem properties.
- Computer Phys. Comm. 180, 2582-2615 (2009).
- X. Gonze, B. Amadon, P.-M. Anglade, J.-M. Beuken, F. Bottin, P. Boulanger, F. Bruneval,
- D. Caliste, R. Caracas, M. Cote, T. Deutsch, L. Genovese, Ph. Ghosez, M. Giantomassi
- S. Goedecker, D.R. Hamann, P. Hermet, F. Jollet, G. Jomard, S. Leroux, M. Mancini, S. Mazevet,
- M.J.T. Oliveira, G. Onida, Y. Pouillon, T. Rangel, G.-M. Rignanese, D. Sangalli, R. Shaltaf,
- M. Torrent, M.J. Verstraete, G. Zerah, J.W. Zwanziger
- Comment: the third generic paper describing the ABINIT project.
- Note that a version of this paper, that is not formatted for Computer Phys. Comm. 
- is available at https://www.abinit.org/sites/default/files/ABINIT_CPC_v10.pdf .
- The licence allows the authors to put it on the Web.
- DOI and bibtex: see https://docs.abinit.org/theory/bibliography/#gonze2009
-
- Proc.   0 individual time (sec): cpu=       1758.5  wall=       1760.9

================================================================================

 Calculation completed.
.Delivered   0 WARNINGs and   2 COMMENTs to log file.
+Overall time at end (sec) : cpu=       7034.0  wall=       7043.5
