
.Version 9.2.2 of ABINIT 
.(MPI version, prepared for a x86_64_linux_gnu9.3 computer) 

.Copyright (C) 1998-2020 ABINIT group . 
 ABINIT comes with ABSOLUTELY NO WARRANTY.
 It is free software, and you are welcome to redistribute it
 under certain conditions (GNU General Public License,
 see ~abinit/COPYING or http://www.gnu.org/copyleft/gpl.txt).

 ABINIT is a project of the Universite Catholique de Louvain,
 Corning Inc. and other collaborators, see ~abinit/doc/developers/contributors.txt .
 Please read https://docs.abinit.org/theory/acknowledgments for suggested
 acknowledgments of the ABINIT effort.
 For more information, see https://www.abinit.org .

.Starting date : Sat 26 Nov 2022.
- ( at 23h15 )
  
- input  file    -> Cs2TiI6.in
- output file    -> Cs2TiI6.out
- root for input  files -> Cs2TiI6i
- root for output files -> Cs2TiI6o

- inpspheads : Reading pseudopotential header in XML form from 
-   ../../../Psps_for_tests/ATOMICDATA/Cs.GGA_PBE-JTH.xml
- inpspheads : Reading pseudopotential header in XML form from 
-   ../../../Psps_for_tests/ATOMICDATA/I.GGA_PBE-JTH.xml
- inpspheads : Reading pseudopotential header in XML form from 
-   ../../../Psps_for_tests/ATOMICDATA/Zr.GGA_PBE-JTH.xml
- inpspheads : Reading pseudopotential header in XML form from 
-   ../../../Psps_for_tests/ATOMICDATA/Br.GGA_PBE-JTH.xml

 DATASET    1 : space group I4/m m m (#139); Bravais tI (body-center tetrag.)
================================================================================
 Values of the parameters that define the memory need for DATASET  1.
     intxc =       0    ionmov =       2      iscf =      17    lmnmax =      18
     lnmax =       6     mgfft =      60  mpssoang =       3    mqgrid =    3812
     natom =       9  nloc_mem =       2    nspden =       1   nspinor =       1
    nsppol =       1      nsym =      16    n1xccc =       1    ntypat =       4
    occopt =       1   xclevel =       2
-    mband =          42        mffmem =           1         mkmem =           4
       mpw =        9539          nfft =      216000          nkpt =          20
Pmy_natom=         2
 PAW method is used; the additional fine FFT grid is defined by:
   mgfftf=        96    nfftf =    884736
================================================================================
P This job should need less than                     293.685 Mbytes of memory.
  Rough estimation (10% accuracy) of disk space for files :
_ WF disk file :    122.267 Mbytes ; DEN or POT disk file :      6.752 Mbytes.
================================================================================


 DATASET    2 : space group I4/m m m (#139); Bravais tI (body-center tetrag.)
================================================================================
 Values of the parameters that define the memory need for DATASET  2.
     intxc =       0    ionmov =       2      iscf =      17    lmnmax =      18
     lnmax =       6     mgfft =      60  mpssoang =       3    mqgrid =    3810
     natom =       9  nloc_mem =       2    nspden =       1   nspinor =       1
    nsppol =       1      nsym =      16    n1xccc =       1    ntypat =       4
    occopt =       1   xclevel =       2
-    mband =          42        mffmem =           1         mkmem =           4
       mpw =        9528          nfft =      216000          nkpt =          20
Pmy_natom=         2
 PAW method is used; the additional fine FFT grid is defined by:
   mgfftf=        96    nfftf =    884736
================================================================================
P This job should need less than                     293.687 Mbytes of memory.
  Rough estimation (10% accuracy) of disk space for files :
_ WF disk file :    122.126 Mbytes ; DEN or POT disk file :      6.752 Mbytes.
================================================================================


 DATASET    3 : space group I4/m m m (#139); Bravais tI (body-center tetrag.)
================================================================================
 Values of the parameters that define the memory need for DATASET  3.
     intxc =       0    ionmov =       2      iscf =      17    lmnmax =      18
     lnmax =       6     mgfft =      60  mpssoang =       3    mqgrid =    3808
     natom =       9  nloc_mem =       2    nspden =       1   nspinor =       1
    nsppol =       1      nsym =      16    n1xccc =       1    ntypat =       4
    occopt =       1   xclevel =       2
-    mband =          42        mffmem =           1         mkmem =           4
       mpw =        9516          nfft =      216000          nkpt =          20
Pmy_natom=         2
 PAW method is used; the additional fine FFT grid is defined by:
   mgfftf=        96    nfftf =    884736
================================================================================
P This job should need less than                     293.687 Mbytes of memory.
  Rough estimation (10% accuracy) of disk space for files :
_ WF disk file :    121.972 Mbytes ; DEN or POT disk file :      6.752 Mbytes.
================================================================================


 DATASET    4 : space group I4/m m m (#139); Bravais tI (body-center tetrag.)
================================================================================
 Values of the parameters that define the memory need for DATASET  4.
     intxc =       0    ionmov =       2      iscf =      17    lmnmax =      18
     lnmax =       6     mgfft =      60  mpssoang =       3    mqgrid =    3806
     natom =       9  nloc_mem =       2    nspden =       1   nspinor =       1
    nsppol =       1      nsym =      16    n1xccc =       1    ntypat =       4
    occopt =       1   xclevel =       2
-    mband =          42        mffmem =           1         mkmem =           4
       mpw =        9492          nfft =      216000          nkpt =          20
Pmy_natom=         2
 PAW method is used; the additional fine FFT grid is defined by:
   mgfftf=        96    nfftf =    884736
================================================================================
P This job should need less than                     293.650 Mbytes of memory.
  Rough estimation (10% accuracy) of disk space for files :
_ WF disk file :    121.665 Mbytes ; DEN or POT disk file :      6.752 Mbytes.
================================================================================


 DATASET    5 : space group I4/m m m (#139); Bravais tI (body-center tetrag.)
================================================================================
 Values of the parameters that define the memory need for DATASET  5.
     intxc =       0    ionmov =       2      iscf =      17    lmnmax =      18
     lnmax =       6     mgfft =      60  mpssoang =       3    mqgrid =    3804
     natom =       9  nloc_mem =       2    nspden =       1   nspinor =       1
    nsppol =       1      nsym =      16    n1xccc =       1    ntypat =       4
    occopt =       1   xclevel =       2
-    mband =          42        mffmem =           1         mkmem =           4
       mpw =        9479          nfft =      216000          nkpt =          20
Pmy_natom=         2
 PAW method is used; the additional fine FFT grid is defined by:
   mgfftf=        96    nfftf =    884736
================================================================================
P This job should need less than                     293.647 Mbytes of memory.
  Rough estimation (10% accuracy) of disk space for files :
_ WF disk file :    121.498 Mbytes ; DEN or POT disk file :      6.752 Mbytes.
================================================================================


 DATASET    6 : space group I4/m m m (#139); Bravais tI (body-center tetrag.)
================================================================================
 Values of the parameters that define the memory need for DATASET  6.
     intxc =       0    ionmov =       2      iscf =      17    lmnmax =      18
     lnmax =       6     mgfft =      60  mpssoang =       3    mqgrid =    3802
     natom =       9  nloc_mem =       2    nspden =       1   nspinor =       1
    nsppol =       1      nsym =      16    n1xccc =       1    ntypat =       4
    occopt =       1   xclevel =       2
-    mband =          42        mffmem =           1         mkmem =           4
       mpw =        9466          nfft =      216000          nkpt =          20
Pmy_natom=         2
 PAW method is used; the additional fine FFT grid is defined by:
   mgfftf=        96    nfftf =    884736
================================================================================
P This job should need less than                     293.644 Mbytes of memory.
  Rough estimation (10% accuracy) of disk space for files :
_ WF disk file :    121.331 Mbytes ; DEN or POT disk file :      6.752 Mbytes.
================================================================================


 DATASET    7 : space group I4/m m m (#139); Bravais tI (body-center tetrag.)
================================================================================
 Values of the parameters that define the memory need for DATASET  7.
     intxc =       0    ionmov =       2      iscf =      17    lmnmax =      18
     lnmax =       6     mgfft =      60  mpssoang =       3    mqgrid =    3800
     natom =       9  nloc_mem =       2    nspden =       1   nspinor =       1
    nsppol =       1      nsym =      16    n1xccc =       1    ntypat =       4
    occopt =       1   xclevel =       2
-    mband =          42        mffmem =           1         mkmem =           4
       mpw =        9452          nfft =      216000          nkpt =          20
Pmy_natom=         2
 PAW method is used; the additional fine FFT grid is defined by:
   mgfftf=        96    nfftf =    884736
================================================================================
P This job should need less than                     293.638 Mbytes of memory.
  Rough estimation (10% accuracy) of disk space for files :
_ WF disk file :    121.152 Mbytes ; DEN or POT disk file :      6.752 Mbytes.
================================================================================


 DATASET    8 : space group I4/m m m (#139); Bravais tI (body-center tetrag.)
================================================================================
 Values of the parameters that define the memory need for DATASET  8.
     intxc =       0    ionmov =       2      iscf =      17    lmnmax =      18
     lnmax =       6     mgfft =      60  mpssoang =       3    mqgrid =    3799
     natom =       9  nloc_mem =       2    nspden =       1   nspinor =       1
    nsppol =       1      nsym =      16    n1xccc =       1    ntypat =       4
    occopt =       1   xclevel =       2
-    mband =          42        mffmem =           1         mkmem =           4
       mpw =        9440          nfft =      216000          nkpt =          20
Pmy_natom=         2
 PAW method is used; the additional fine FFT grid is defined by:
   mgfftf=        96    nfftf =    884736
================================================================================
P This job should need less than                     293.638 Mbytes of memory.
  Rough estimation (10% accuracy) of disk space for files :
_ WF disk file :    120.998 Mbytes ; DEN or POT disk file :      6.752 Mbytes.
================================================================================


 DATASET    9 : space group I4/m m m (#139); Bravais tI (body-center tetrag.)
================================================================================
 Values of the parameters that define the memory need for DATASET  9.
     intxc =       0    ionmov =       2      iscf =      17    lmnmax =      18
     lnmax =       6     mgfft =      60  mpssoang =       3    mqgrid =    3797
     natom =       9  nloc_mem =       2    nspden =       1   nspinor =       1
    nsppol =       1      nsym =      16    n1xccc =       1    ntypat =       4
    occopt =       1   xclevel =       2
-    mband =          42        mffmem =           1         mkmem =           4
       mpw =        9433          nfft =      216000          nkpt =          20
Pmy_natom=         2
 PAW method is used; the additional fine FFT grid is defined by:
   mgfftf=        96    nfftf =    884736
================================================================================
P This job should need less than                     293.652 Mbytes of memory.
  Rough estimation (10% accuracy) of disk space for files :
_ WF disk file :    120.908 Mbytes ; DEN or POT disk file :      6.752 Mbytes.
================================================================================


 DATASET   10 : space group I4/m m m (#139); Bravais tI (body-center tetrag.)
================================================================================
 Values of the parameters that define the memory need for DATASET 10.
     intxc =       0    ionmov =       2      iscf =      17    lmnmax =      18
     lnmax =       6     mgfft =      60  mpssoang =       3    mqgrid =    3795
     natom =       9  nloc_mem =       2    nspden =       1   nspinor =       1
    nsppol =       1      nsym =      16    n1xccc =       1    ntypat =       4
    occopt =       1   xclevel =       2
-    mband =          42        mffmem =           1         mkmem =           4
       mpw =        9417          nfft =      216000          nkpt =          20
Pmy_natom=         2
 PAW method is used; the additional fine FFT grid is defined by:
   mgfftf=        96    nfftf =    884736
================================================================================
P This job should need less than                     293.641 Mbytes of memory.
  Rough estimation (10% accuracy) of disk space for files :
_ WF disk file :    120.703 Mbytes ; DEN or POT disk file :      6.752 Mbytes.
================================================================================

--------------------------------------------------------------------------------
------------- Echo of variables that govern the present computation ------------
--------------------------------------------------------------------------------
-
- outvars: echo of selected default values                                      
-   iomode0 =  0 , fftalg0 =112 , wfoptalg0 = 10
-
- outvars: echo of global parameters not present in the input file              
-  max_nthreads =    0
-
 -outvars: echo values of preprocessed input variables --------
            acell1     1.4255766768E+01  1.4255766768E+01  1.4259162497E+01 Bohr
            acell2     1.4248674346E+01  1.4248674346E+01  1.4252068386E+01 Bohr
            acell3     1.4241581925E+01  1.4241581925E+01  1.4244974276E+01 Bohr
            acell4     1.4234489504E+01  1.4234489504E+01  1.4237880165E+01 Bohr
            acell5     1.4227397083E+01  1.4227397083E+01  1.4230786054E+01 Bohr
            acell6     1.4220304661E+01  1.4220304661E+01  1.4223691943E+01 Bohr
            acell7     1.4213212240E+01  1.4213212240E+01  1.4216597833E+01 Bohr
            acell8     1.4206119819E+01  1.4206119819E+01  1.4209503722E+01 Bohr
            acell9     1.4199027398E+01  1.4199027398E+01  1.4202409611E+01 Bohr
            acell10    1.4191934976E+01  1.4191934976E+01  1.4195315501E+01 Bohr
              amu      1.32905430E+02  1.26904470E+02  9.12240000E+01
                       7.99040000E+01
           diemac      1.20000000E+01
          dilatmx      1.15000000E+00
             ecut      1.60000000E+01 Hartree
           ecutsm      5.00000000E-01 Hartree
-          fftalg         112
          getxred1          0
          getxred2         -1
          getxred3         -1
          getxred4         -1
          getxred5         -1
          getxred6         -1
          getxred7         -1
          getxred8         -1
          getxred9         -1
          getxred10        -1
           ionmov           2
              ixc     -101130
           jdtset        1    2    3    4    5    6    7    8    9   10
              kpt     -1.25000000E-01 -2.50000000E-01  0.00000000E+00
                      -1.25000000E-01  5.00000000E-01  0.00000000E+00
                      -2.50000000E-01 -3.75000000E-01  0.00000000E+00
                      -1.25000000E-01 -3.75000000E-01  1.25000000E-01
                      -1.25000000E-01  2.50000000E-01  0.00000000E+00
                      -2.50000000E-01  3.75000000E-01  0.00000000E+00
                      -1.25000000E-01  3.75000000E-01  1.25000000E-01
                      -3.75000000E-01  5.00000000E-01  0.00000000E+00
                      -2.50000000E-01  5.00000000E-01  1.25000000E-01
                      -1.25000000E-01  5.00000000E-01  2.50000000E-01
                      -1.25000000E-01  0.00000000E+00  0.00000000E+00
                      -1.25000000E-01  1.25000000E-01  1.25000000E-01
                      -1.25000000E-01  2.50000000E-01  2.50000000E-01
                      -1.25000000E-01  3.75000000E-01  3.75000000E-01
                      -3.75000000E-01  0.00000000E+00  0.00000000E+00
                      -2.50000000E-01  0.00000000E+00  1.25000000E-01
                      -3.75000000E-01  1.25000000E-01  1.25000000E-01
                      -2.50000000E-01  1.25000000E-01  2.50000000E-01
                      -3.75000000E-01  2.50000000E-01  2.50000000E-01
                      -2.50000000E-01  2.50000000E-01  3.75000000E-01
         kptrlatt        4   -4    4     -4    4    4     -4   -4    4
          kptrlen1     8.06235811E+01
          kptrlen2     8.05834699E+01
          kptrlen3     8.05433586E+01
          kptrlen4     8.05032474E+01
          kptrlen5     8.04631362E+01
          kptrlen6     8.04230249E+01
          kptrlen7     8.03829137E+01
          kptrlen8     8.03428025E+01
          kptrlen9     8.03026912E+01
          kptrlen10    8.02625800E+01
P           mkmem           4
            natom           9
            nband          42
           ndtset          10
            ngfft          60      60      60
          ngfftdg          96      96      96
             nkpt          20
            nstep        2500
             nsym          16
            ntime        1000
           ntypat           4
              occ      2.000000  2.000000  2.000000  2.000000  2.000000  2.000000
                       2.000000  2.000000  2.000000  2.000000  2.000000  2.000000
                       2.000000  2.000000  2.000000  2.000000  2.000000  2.000000
                       2.000000  2.000000  2.000000  2.000000  2.000000  2.000000
                       2.000000  2.000000  2.000000  2.000000  2.000000  2.000000
                       2.000000  2.000000  2.000000  2.000000  2.000000  2.000000
                       0.000000  0.000000  0.000000  0.000000  0.000000  0.000000
          optcell           3
        optforces           1
        pawecutdg      4.00000000E+01 Hartree
            prtwf           0
            rprim      0.0000000000E+00  7.0727521432E-01  7.0693830792E-01
                       7.0727521432E-01  0.0000000000E+00  7.0693830792E-01
                       7.0710678119E-01  7.0710678119E-01  0.0000000000E+00
           shiftk      5.00000000E-01  5.00000000E-01  5.00000000E-01
          spgroup         139
           symrel      1  0  0   0  1  0   0  0  1      -1  0  0   0 -1  0   0  0 -1
                      -1  0  1   0 -1  1   0  0  1       1  0 -1   0  1 -1   0  0 -1
                       0  1 -1   1  0 -1   0  0 -1       0 -1  1  -1  0  1   0  0  1
                       0 -1  0  -1  0  0   0  0 -1       0  1  0   1  0  0   0  0  1
                       1  0  0   1  0 -1   1 -1  0      -1  0  0  -1  0  1  -1  1  0
                       0 -1  0   0 -1  1   1 -1  0       0  1  0   0  1 -1  -1  1  0
                       0  1 -1   0  1  0  -1  1  0       0 -1  1   0 -1  0   1 -1  0
                      -1  0  1  -1  0  0  -1  1  0       1  0 -1   1  0  0   1 -1  0
           toldff      1.00000000E-08
           tolmxf      1.00000000E-05
            typat      1  1  2  2  4  4  4  4  3
           useylm           1
              wtk        0.03125    0.03125    0.03125    0.06250    0.03125    0.03125
                         0.06250    0.03125    0.06250    0.06250    0.03125    0.06250
                         0.06250    0.06250    0.03125    0.06250    0.06250    0.06250
                         0.06250    0.06250
           xangst1     2.6677808811E+00  2.6677808811E+00  2.6665100994E+00
                       8.0033426434E+00  8.0033426434E+00  7.9995302982E+00
                       5.3355617623E+00  5.3355617623E+00  2.8434303277E+00
                       5.3355617623E+00  5.3355617623E+00  7.8226100700E+00
                       8.0510014645E+00  5.3355617623E+00  5.3330201988E+00
                       5.3355617623E+00  8.0510014645E+00  5.3330201988E+00
                       5.3355617623E+00  2.6201220601E+00  5.3330201988E+00
                       2.6201220601E+00  5.3355617623E+00  5.3330201988E+00
                      -1.8938268807E-20 -3.5734956836E-20 -7.0662947049E-22
           xangst2     2.6664536270E+00  2.6664536270E+00  2.6651834775E+00
                       7.9993608809E+00  7.9993608809E+00  7.9955504324E+00
                       5.3329072539E+00  5.3329072539E+00  2.8420156857E+00
                       5.3329072540E+00  5.3329072540E+00  7.8187182242E+00
                       8.0469959911E+00  5.3329072539E+00  5.3303669549E+00
                       5.3329072539E+00  8.0469959911E+00  5.3303669549E+00
                       5.3329072540E+00  2.6188185168E+00  5.3303669549E+00
                       2.6188185168E+00  5.3329072540E+00  5.3303669549E+00
                      -1.8928846783E-20 -3.5717178251E-20 -7.0627791354E-22
           xangst3     2.6651263728E+00  2.6651263728E+00  2.6638568555E+00
                       7.9953791184E+00  7.9953791184E+00  7.9915705666E+00
                       5.3302527456E+00  5.3302527456E+00  2.8406010437E+00
                       5.3302527456E+00  5.3302527456E+00  7.8148263784E+00
                       8.0429905177E+00  5.3302527456E+00  5.3277137111E+00
                       5.3302527456E+00  8.0429905177E+00  5.3277137111E+00
                       5.3302527457E+00  2.6175149735E+00  5.3277137111E+00
                       2.6175149735E+00  5.3302527457E+00  5.3277137111E+00
                      -1.8919424758E-20 -3.5699399665E-20 -7.0592635659E-22
           xangst4     2.6637991186E+00  2.6637991186E+00  2.6625302336E+00
                       7.9913973559E+00  7.9913973559E+00  7.9875907008E+00
                       5.3275982372E+00  5.3275982372E+00  2.8391864018E+00
                       5.3275982373E+00  5.3275982373E+00  7.8109345326E+00
                       8.0389850444E+00  5.3275982372E+00  5.3250604672E+00
                       5.3275982372E+00  8.0389850444E+00  5.3250604672E+00
                       5.3275982373E+00  2.6162114302E+00  5.3250604672E+00
                       2.6162114302E+00  5.3275982373E+00  5.3250604672E+00
                      -1.8910002734E-20 -3.5681621080E-20 -7.0557479964E-22
           xangst5     2.6624718645E+00  2.6624718645E+00  2.6612036116E+00
                       7.9874155934E+00  7.9874155934E+00  7.9836108349E+00
                       5.3249437289E+00  5.3249437289E+00  2.8377717598E+00
                       5.3249437290E+00  5.3249437290E+00  7.8070426868E+00
                       8.0349795710E+00  5.3249437289E+00  5.3224072233E+00
                       5.3249437289E+00  8.0349795710E+00  5.3224072233E+00
                       5.3249437290E+00  2.6149078869E+00  5.3224072233E+00
                       2.6149078869E+00  5.3249437290E+00  5.3224072233E+00
                      -1.8900580710E-20 -3.5663842494E-20 -7.0522324269E-22
           xangst6     2.6611446103E+00  2.6611446103E+00  2.6598769897E+00
                       7.9834338309E+00  7.9834338309E+00  7.9796309691E+00
                       5.3222892206E+00  5.3222892206E+00  2.8363571179E+00
                       5.3222892206E+00  5.3222892206E+00  7.8031508410E+00
                       8.0309740977E+00  5.3222892206E+00  5.3197539794E+00
                       5.3222892206E+00  8.0309740977E+00  5.3197539794E+00
                       5.3222892206E+00  2.6136043435E+00  5.3197539794E+00
                       2.6136043435E+00  5.3222892206E+00  5.3197539794E+00
                      -1.8891158686E-20 -3.5646063909E-20 -7.0487168574E-22
           xangst7     2.6598173561E+00  2.6598173561E+00  2.6585503678E+00
                       7.9794520684E+00  7.9794520684E+00  7.9756511033E+00
                       5.3196347122E+00  5.3196347122E+00  2.8349424759E+00
                       5.3196347123E+00  5.3196347123E+00  7.7992589951E+00
                       8.0269686243E+00  5.3196347122E+00  5.3171007355E+00
                       5.3196347122E+00  8.0269686243E+00  5.3171007355E+00
                       5.3196347123E+00  2.6123008002E+00  5.3171007355E+00
                       2.6123008002E+00  5.3196347123E+00  5.3171007355E+00
                      -1.8881736661E-20 -3.5628285323E-20 -7.0452012879E-22
           xangst8     2.6584901020E+00  2.6584901020E+00  2.6572237458E+00
                       7.9754703059E+00  7.9754703059E+00  7.9716712375E+00
                       5.3169802039E+00  5.3169802039E+00  2.8335278340E+00
                       5.3169802040E+00  5.3169802040E+00  7.7953671493E+00
                       8.0229631509E+00  5.3169802039E+00  5.3144474917E+00
                       5.3169802039E+00  8.0229631509E+00  5.3144474917E+00
                       5.3169802040E+00  2.6109972569E+00  5.3144474917E+00
                       2.6109972569E+00  5.3169802040E+00  5.3144474917E+00
                      -1.8872314637E-20 -3.5610506738E-20 -7.0416857184E-22
           xangst9     2.6571628478E+00  2.6571628478E+00  2.6558971239E+00
                       7.9714885434E+00  7.9714885434E+00  7.9676913717E+00
                       5.3143256955E+00  5.3143256955E+00  2.8321131920E+00
                       5.3143256956E+00  5.3143256956E+00  7.7914753035E+00
                       8.0189576776E+00  5.3143256955E+00  5.3117942478E+00
                       5.3143256955E+00  8.0189576776E+00  5.3117942478E+00
                       5.3143256956E+00  2.6096937136E+00  5.3117942478E+00
                       2.6096937136E+00  5.3143256956E+00  5.3117942478E+00
                      -1.8862892613E-20 -3.5592728152E-20 -7.0381701489E-22
           xangst10    2.6558355936E+00  2.6558355936E+00  2.6545705019E+00
                       7.9675067809E+00  7.9675067809E+00  7.9637115058E+00
                       5.3116711872E+00  5.3116711872E+00  2.8306985501E+00
                       5.3116711873E+00  5.3116711873E+00  7.7875834577E+00
                       8.0149522042E+00  5.3116711872E+00  5.3091410039E+00
                       5.3116711872E+00  8.0149522042E+00  5.3091410039E+00
                       5.3116711873E+00  2.6083901703E+00  5.3091410039E+00
                       2.6083901703E+00  5.3116711873E+00  5.3091410039E+00
                      -1.8853470589E-20 -3.5574949567E-20 -7.0346545794E-22
            xcart1     5.0413752479E+00  5.0413752479E+00  5.0389738185E+00
                       1.5124125744E+01  1.5124125744E+01  1.5116921455E+01
                       1.0082750496E+01  1.0082750496E+01  5.3733045972E+00
                       1.0082750496E+01  1.0082750496E+01  1.4782590677E+01
                       1.5214187863E+01  1.0082750496E+01  1.0077947637E+01
                       1.0082750496E+01  1.5214187863E+01  1.0077947637E+01
                       1.0082750496E+01  4.9513131283E+00  1.0077947637E+01
                       4.9513131283E+00  1.0082750496E+01  1.0077947637E+01
                      -3.5788141476E-20 -6.7529281791E-20 -1.3353361767E-21
            xcart2     5.0388671010E+00  5.0388671010E+00  5.0364668663E+00
                       1.5116601303E+01  1.5116601303E+01  1.5109400599E+01
                       1.0077734202E+01  1.0077734202E+01  5.3706313113E+00
                       1.0077734202E+01  1.0077734202E+01  1.4775236154E+01
                       1.5206618616E+01  1.0077734202E+01  1.0072933733E+01
                       1.0077734202E+01  1.5206618616E+01  1.0072933733E+01
                       1.0077734202E+01  4.9488497885E+00  1.0072933733E+01
                       4.9488497885E+00  1.0077734202E+01  1.0072933733E+01
                      -3.5770336431E-20 -6.7495685133E-20 -1.3346718303E-21
            xcart3     5.0363589541E+00  5.0363589541E+00  5.0339599142E+00
                       1.5109076862E+01  1.5109076862E+01  1.5101879742E+01
                       1.0072717908E+01  1.0072717908E+01  5.3679580255E+00
                       1.0072717908E+01  1.0072717908E+01  1.4767881631E+01
                       1.5199049368E+01  1.0072717908E+01  1.0067919828E+01
                       1.0072717908E+01  1.5199049368E+01  1.0067919828E+01
                       1.0072717908E+01  4.9463864486E+00  1.0067919828E+01
                       4.9463864486E+00  1.0072717908E+01  1.0067919828E+01
                      -3.5752531385E-20 -6.7462088475E-20 -1.3340074839E-21
            xcart4     5.0338508072E+00  5.0338508072E+00  5.0314529620E+00
                       1.5101552422E+01  1.5101552422E+01  1.5094358886E+01
                       1.0067701614E+01  1.0067701614E+01  5.3652847396E+00
                       1.0067701615E+01  1.0067701615E+01  1.4760527108E+01
                       1.5191480120E+01  1.0067701614E+01  1.0062905924E+01
                       1.0067701614E+01  1.5191480120E+01  1.0062905924E+01
                       1.0067701615E+01  4.9439231087E+00  1.0062905924E+01
                       4.9439231087E+00  1.0067701615E+01  1.0062905924E+01
                      -3.5734726340E-20 -6.7428491818E-20 -1.3333431376E-21
            xcart5     5.0313426604E+00  5.0313426604E+00  5.0289460099E+00
                       1.5094027981E+01  1.5094027981E+01  1.5086838030E+01
                       1.0062685321E+01  1.0062685321E+01  5.3626114537E+00
                       1.0062685321E+01  1.0062685321E+01  1.4753172586E+01
                       1.5183910873E+01  1.0062685321E+01  1.0057892020E+01
                       1.0062685321E+01  1.5183910873E+01  1.0057892020E+01
                       1.0062685321E+01  4.9414597689E+00  1.0057892020E+01
                       4.9414597689E+00  1.0062685321E+01  1.0057892020E+01
                      -3.5716921294E-20 -6.7394895160E-20 -1.3326787912E-21
            xcart6     5.0288345135E+00  5.0288345135E+00  5.0264390577E+00
                       1.5086503540E+01  1.5086503540E+01  1.5079317173E+01
                       1.0057669027E+01  1.0057669027E+01  5.3599381679E+00
                       1.0057669027E+01  1.0057669027E+01  1.4745818063E+01
                       1.5176341625E+01  1.0057669027E+01  1.0052878115E+01
                       1.0057669027E+01  1.5176341625E+01  1.0052878115E+01
                       1.0057669027E+01  4.9389964290E+00  1.0052878115E+01
                       4.9389964290E+00  1.0057669027E+01  1.0052878115E+01
                      -3.5699116249E-20 -6.7361298503E-20 -1.3320144449E-21
            xcart7     5.0263263666E+00  5.0263263666E+00  5.0239321056E+00
                       1.5078979100E+01  1.5078979100E+01  1.5071796317E+01
                       1.0052652733E+01  1.0052652733E+01  5.3572648820E+00
                       1.0052652733E+01  1.0052652733E+01  1.4738463540E+01
                       1.5168772377E+01  1.0052652733E+01  1.0047864211E+01
                       1.0052652733E+01  1.5168772377E+01  1.0047864211E+01
                       1.0052652733E+01  4.9365330891E+00  1.0047864211E+01
                       4.9365330891E+00  1.0052652733E+01  1.0047864211E+01
                      -3.5681311203E-20 -6.7327701845E-20 -1.3313500985E-21
            xcart8     5.0238182197E+00  5.0238182197E+00  5.0214251534E+00
                       1.5071454659E+01  1.5071454659E+01  1.5064275460E+01
                       1.0047636439E+01  1.0047636439E+01  5.3545915961E+00
                       1.0047636439E+01  1.0047636439E+01  1.4731109018E+01
                       1.5161203129E+01  1.0047636439E+01  1.0042850307E+01
                       1.0047636439E+01  1.5161203129E+01  1.0042850307E+01
                       1.0047636439E+01  4.9340697493E+00  1.0042850307E+01
                       4.9340697493E+00  1.0047636439E+01  1.0042850307E+01
                      -3.5663506158E-20 -6.7294105187E-20 -1.3306857522E-21
            xcart9     5.0213100728E+00  5.0213100728E+00  5.0189182013E+00
                       1.5063930218E+01  1.5063930218E+01  1.5056754604E+01
                       1.0042620146E+01  1.0042620146E+01  5.3519183102E+00
                       1.0042620146E+01  1.0042620146E+01  1.4723754495E+01
                       1.5153633882E+01  1.0042620146E+01  1.0037836403E+01
                       1.0042620146E+01  1.5153633882E+01  1.0037836403E+01
                       1.0042620146E+01  4.9316064094E+00  1.0037836403E+01
                       4.9316064094E+00  1.0042620146E+01  1.0037836403E+01
                      -3.5645701112E-20 -6.7260508530E-20 -1.3300214058E-21
            xcart10    5.0188019259E+00  5.0188019259E+00  5.0164112491E+00
                       1.5056405778E+01  1.5056405778E+01  1.5049233747E+01
                       1.0037603852E+01  1.0037603852E+01  5.3492450244E+00
                       1.0037603852E+01  1.0037603852E+01  1.4716399972E+01
                       1.5146064634E+01  1.0037603852E+01  1.0032822498E+01
                       1.0037603852E+01  1.5146064634E+01  1.0032822498E+01
                       1.0037603852E+01  4.9291430695E+00  1.0032822498E+01
                       4.9291430695E+00  1.0037603852E+01  1.0032822498E+01
                      -3.5627896067E-20 -6.7226911872E-20 -1.3293570594E-21
             xred      2.5000000000E-01  2.5000000000E-01  2.5000000000E-01
                       7.5000000000E-01  7.5000000000E-01  7.5000000000E-01
                       2.6658724528E-01  2.6658724528E-01  7.3341275472E-01
                       7.3341275472E-01  7.3341275472E-01  2.6658724528E-01
                       2.4553385162E-01  7.5446614838E-01  7.5446614838E-01
                       7.5446614838E-01  2.4553385162E-01  7.5446614838E-01
                       2.4553385162E-01  7.5446614838E-01  2.4553385162E-01
                       7.5446614838E-01  2.4553385162E-01  2.4553385162E-01
                      -1.6402822269E-21  1.5077814217E-21 -5.0572237581E-21
            znucl       55.00000   53.00000   40.00000   35.00000

================================================================================

 chkinp: Checking input parameters for consistency, jdtset=   1.

 chkinp: Checking input parameters for consistency, jdtset=   2.

 chkinp: Checking input parameters for consistency, jdtset=   3.

 chkinp: Checking input parameters for consistency, jdtset=   4.

 chkinp: Checking input parameters for consistency, jdtset=   5.

 chkinp: Checking input parameters for consistency, jdtset=   6.

 chkinp: Checking input parameters for consistency, jdtset=   7.

 chkinp: Checking input parameters for consistency, jdtset=   8.

 chkinp: Checking input parameters for consistency, jdtset=   9.

 chkinp: Checking input parameters for consistency, jdtset=  10.

================================================================================
== DATASET  1 ==================================================================
-   mpi_nproc: 6, omp_nthreads: -1 (-1 if OMP is not activated)


--- !DatasetInfo
iteration_state: {dtset: 1, }
dimensions: {natom: 9, nkpt: 20, mband: 42, nsppol: 1, nspinor: 1, nspden: 1, mpw: 9539, }
cutoff_energies: {ecut:  16.0, pawecutdg:  40.0, }
electrons: {nelect:   7.20000000E+01, charge:   0.00000000E+00, occopt:   1.00000000E+00, tsmear:   1.00000000E-02, }
meta: {optdriver: 0, ionmov: 2, optcell: 3, iscf: 17, paral_kgb: 0, }
...

 Real(R)+Recip(G) space primitive vectors, cartesian coordinates (Bohr,Bohr^-1):
 R(1)=  0.0000000 10.0827505 10.0779476  G(1)= -0.0495896  0.0495896  0.0496133
 R(2)= 10.0827505  0.0000000 10.0779476  G(2)=  0.0495896 -0.0495896  0.0496133
 R(3)= 10.0827505 10.0827505  0.0000000  G(3)=  0.0495896  0.0495896 -0.0496133
 Unit cell volume ucvol=  2.0490858E+03 bohr^3
 Angles (23,13,12)=  5.99921201E+01  5.99921201E+01  6.00157598E+01 degrees

 Coarse grid specifications (used for wave-functions):

 getcut: wavevector=  0.0000  0.0000  0.0000  ngfft=  60  60  60
         ecut(hartree)=     21.160   => boxcut(ratio)=   2.03205

 Fine grid specifications (used for densities):

 getcut: wavevector=  0.0000  0.0000  0.0000  ngfft=  96  96  96
         ecut(hartree)=     52.900   => boxcut(ratio)=   2.05629

--- Pseudopotential description ------------------------------------------------
- pspini: atom type   1  psp file is ../../../Psps_for_tests/ATOMICDATA/Cs.GGA_PBE-JTH.xml
- pspatm: opening atomic psp file    ../../../Psps_for_tests/ATOMICDATA/Cs.GGA_PBE-JTH.xml
- pspatm : Reading pseudopotential header in XML form from ../../../Psps_for_tests/ATOMICDATA/Cs.GGA_PBE-JTH.xml
 Pseudopotential format is: paw10
 basis_size (lnmax)=  6 (lmn_size= 18), orbitals=   0   0   1   1   2   2
 Spheres core radius: rc_sph= 2.20660278
 1 radial meshes are used:
  - mesh 1: r(i)=AA*[exp(BB*(i-1))-1], size=1500 , AA= 0.15922E-03 BB= 0.87573E-02
 Shapefunction is SIN type: shapef(r)=[sin(pi*r/rshp)/(pi*r/rshp)]**2
 Radius for shape functions =  2.00394208
 mmax= 1500
 Radial grid used for partial waves is grid 1
 Radial grid used for projectors is grid 1
 Radial grid used for (t)core density is grid 1
 Radial grid used for Vloc is grid 1
 Radial grid used for pseudo valence density is grid 1
 Mesh size for Vloc has been set to 1341 to avoid numerical noise.
 Compensation charge density is not taken into account in XC energy/potential
 pspatm: atomic psp has been read  and splines computed

- pspini: atom type   2  psp file is ../../../Psps_for_tests/ATOMICDATA/I.GGA_PBE-JTH.xml
- pspatm: opening atomic psp file    ../../../Psps_for_tests/ATOMICDATA/I.GGA_PBE-JTH.xml
- pspatm : Reading pseudopotential header in XML form from ../../../Psps_for_tests/ATOMICDATA/I.GGA_PBE-JTH.xml
 Pseudopotential format is: paw10
 basis_size (lnmax)=  4 (lmn_size=  8), orbitals=   0   0   1   1
 Spheres core radius: rc_sph= 2.30022271
 1 radial meshes are used:
  - mesh 1: r(i)=AA*[exp(BB*(i-1))-1], size=2000 , AA= 0.12610E-03 BB= 0.66836E-02
 Shapefunction is SIN type: shapef(r)=[sin(pi*r/rshp)/(pi*r/rshp)]**2
 Radius for shape functions =  2.10879093
 mmax= 2000
 Radial grid used for partial waves is grid 1
 Radial grid used for projectors is grid 1
 Radial grid used for (t)core density is grid 1
 Radial grid used for Vloc is grid 1
 Radial grid used for pseudo valence density is grid 1
 Mesh size for Vloc has been set to 1792 to avoid numerical noise.
 Compensation charge density is not taken into account in XC energy/potential
 pspatm: atomic psp has been read  and splines computed

- pspini: atom type   3  psp file is ../../../Psps_for_tests/ATOMICDATA/Zr.GGA_PBE-JTH.xml
- pspatm: opening atomic psp file    ../../../Psps_for_tests/ATOMICDATA/Zr.GGA_PBE-JTH.xml
- pspatm : Reading pseudopotential header in XML form from ../../../Psps_for_tests/ATOMICDATA/Zr.GGA_PBE-JTH.xml
 Pseudopotential format is: paw10
 basis_size (lnmax)=  6 (lmn_size= 18), orbitals=   0   0   1   1   2   2
 Spheres core radius: rc_sph= 2.21000000
 1 radial meshes are used:
  - mesh 1: r(i)=AA*[exp(BB*(i-1))-1], size= 941 , AA= 0.35256E-03 BB= 0.14102E-01
 Shapefunction is BESSEL type: shapef(r,l)=aa(1,l)*jl(q(1,l)*r)+aa(2,l)*jl(q(2,l)*r)
 Radius for shape functions =  2.21000000
 mmax=  941
 Radial grid used for partial waves is grid 1
 Radial grid used for projectors is grid 1
 Radial grid used for (t)core density is grid 1
 Radial grid used for Vloc is grid 1
 Radial grid used for pseudo valence density is grid 1
 Mesh size for Vloc has been set to  777 to avoid numerical noise.
 Compensation charge density is not taken into account in XC energy/potential
 pspatm: atomic psp has been read  and splines computed

- pspini: atom type   4  psp file is ../../../Psps_for_tests/ATOMICDATA/Br.GGA_PBE-JTH.xml
- pspatm: opening atomic psp file    ../../../Psps_for_tests/ATOMICDATA/Br.GGA_PBE-JTH.xml
- pspatm : Reading pseudopotential header in XML form from ../../../Psps_for_tests/ATOMICDATA/Br.GGA_PBE-JTH.xml
 Pseudopotential format is: paw10
 basis_size (lnmax)=  4 (lmn_size=  8), orbitals=   0   0   1   1
 Spheres core radius: rc_sph= 2.20000000
 1 radial meshes are used:
  - mesh 1: r(i)=AA*[exp(BB*(i-1))-1], size= 927 , AA= 0.40483E-03 BB= 0.14169E-01
 Shapefunction is BESSEL type: shapef(r,l)=aa(1,l)*jl(q(1,l)*r)+aa(2,l)*jl(q(2,l)*r)
 Radius for shape functions =  2.02066386
 mmax=  927
 Radial grid used for partial waves is grid 1
 Radial grid used for projectors is grid 1
 Radial grid used for (t)core density is grid 1
 Radial grid used for Vloc is grid 1
 Radial grid used for pseudo valence density is grid 1
 Mesh size for Vloc has been set to  763 to avoid numerical noise.
 Compensation charge density is not taken into account in XC energy/potential
 pspatm: atomic psp has been read  and splines computed

   2.93056170E+04                                ecore*ucvol(ha*bohr**3)
--------------------------------------------------------------------------------

_setup2: Arith. and geom. avg. npw (full set) are    9524.219    9524.214

================================================================================

=== [ionmov= 2] Broyden-Fletcher-Goldfard-Shanno method (forces)            
================================================================================

--- Iteration: (   1/1000) Internal Cycle: (1/1)
--------------------------------------------------------------------------------

---SELF-CONSISTENT-FIELD CONVERGENCE--------------------------------------------

--- !BeginCycle
iteration_state: {dtset: 1, itime: 1, icycle: 1, }
solver: {iscf: 17, nstep: 2500, nline: 4, wfoptalg: 10, }
tolerances: {toldff: 1.00E-08, }
...

     iter   Etot(hartree)      deltaE(h)  residm     nres2    diffor    maxfor
 ETOT  1  -166.45843672074    -1.665E+02 2.272E-01 2.402E+01 5.957E-02 5.957E-02
 ETOT  2  -166.63816756857    -1.797E-01 1.235E-02 5.948E+00 1.480E-01 8.845E-02
 ETOT  3  -166.63453552656     3.632E-03 1.884E-03 1.214E+00 7.275E-02 1.570E-02
 ETOT  4  -166.63522436985    -6.888E-04 1.347E-03 7.911E-02 7.165E-03 2.287E-02
 ETOT  5  -166.63492523024     2.991E-04 1.045E-03 6.729E-03 1.897E-02 3.896E-03
 ETOT  6  -166.63496588028    -4.065E-05 8.728E-04 5.796E-04 1.379E-03 2.516E-03
 ETOT  7  -166.63496591508    -3.480E-08 8.236E-04 9.369E-05 6.847E-05 2.558E-03
 ETOT  8  -166.63496709676    -1.182E-06 5.729E-04 1.879E-05 4.044E-04 2.161E-03
 ETOT  9  -166.63496714628    -4.952E-08 1.732E-04 2.707E-06 1.458E-04 2.307E-03
 ETOT 10  -166.63496718248    -3.620E-08 4.235E-04 2.388E-07 4.473E-05 2.269E-03
 ETOT 11  -166.63496718432    -1.842E-09 4.817E-05 5.974E-08 6.688E-06 2.276E-03
 ETOT 12  -166.63496718505    -7.213E-10 1.926E-04 1.017E-08 3.129E-06 2.274E-03
 ETOT 13  -166.63496718511    -6.668E-11 3.439E-05 1.692E-09 1.273E-06 2.275E-03
 ETOT 14  -166.63496718511     3.922E-12 6.944E-05 1.876E-10 6.488E-07 2.274E-03
 ETOT 15  -166.63496718510     8.129E-12 2.496E-05 2.206E-11 3.394E-07 2.275E-03
 ETOT 16  -166.63496718509     6.679E-12 2.621E-05 4.186E-12 2.433E-07 2.275E-03
 ETOT 17  -166.63496718510    -4.690E-12 1.745E-05 6.450E-13 5.940E-08 2.275E-03
 ETOT 18  -166.63496718510     1.933E-12 9.937E-06 1.644E-13 3.653E-08 2.275E-03
 ETOT 19  -166.63496718510    -8.811E-13 1.187E-05 1.841E-14 6.795E-09 2.275E-03
 ETOT 20  -166.63496718510    -3.979E-13 6.669E-06 3.023E-15 3.237E-09 2.275E-03

 At SCF step   20, forces are converged : 
  for the second time, max diff in force=  3.237E-09 < toldff=  1.000E-08

 Cartesian components of stress tensor (hartree/bohr^3)
  sigma(1 1)= -1.23177852E-04  sigma(3 2)= -9.88251767E-14
  sigma(2 2)= -1.23177852E-04  sigma(3 1)= -9.88249991E-14
  sigma(3 3)= -1.24432537E-04  sigma(2 1)=  1.97554882E-13


--- !ResultsGS
iteration_state: {dtset: 1, itime: 1, icycle: 1, }
comment   : Summary of ground state results
lattice_vectors:
- [  0.0000000,  10.0827505,  10.0779476, ]
- [ 10.0827505,   0.0000000,  10.0779476, ]
- [ 10.0827505,  10.0827505,   0.0000000, ]
lattice_lengths: [  14.25577,   14.25577,   14.25916, ]
lattice_angles: [ 59.992,  59.992,  60.016, ] # degrees, (23, 13, 12)
lattice_volume:   2.0490858E+03
convergence: {deltae: -3.979E-13, res2:  3.023E-15, residm:  6.669E-06, diffor:  3.237E-09, }
etotal    :  -1.66634967E+02
entropy   :   0.00000000E+00
fermie    :  -2.80221108E-02
cartesian_stress_tensor: # hartree/bohr^3
- [ -1.23177852E-04,   1.97554882E-13,  -9.88249991E-14, ]
- [  1.97554882E-13,  -1.23177852E-04,  -9.88251767E-14, ]
- [ -9.88249991E-14,  -9.88251767E-14,  -1.24432537E-04, ]
pressure_GPa:   3.6363E+00
xred      :
- [  2.5000E-01,   2.5000E-01,   2.5000E-01, Cs]
- [  7.5000E-01,   7.5000E-01,   7.5000E-01, Cs]
- [  2.6659E-01,   2.6659E-01,   7.3341E-01,  I]
- [  7.3341E-01,   7.3341E-01,   2.6659E-01,  I]
- [  2.4553E-01,   7.5447E-01,   7.5447E-01, Br]
- [  7.5447E-01,   2.4553E-01,   7.5447E-01, Br]
- [  2.4553E-01,   7.5447E-01,   2.4553E-01, Br]
- [  7.5447E-01,   2.4553E-01,   2.4553E-01, Br]
- [ -1.6403E-21,   1.5078E-21,  -5.0572E-21, Zr]
cartesian_forces: # hartree/bohr
- [ -9.63735269E-20,   2.01197379E-20,   1.91256260E-20, ]
- [ -9.63735261E-20,   2.01197371E-20,   1.91256248E-20, ]
- [  2.02991296E-19,  -2.79245085E-19,  -1.90312656E-03, ]
- [ -1.15269495E-19,   3.90157061E-20,   1.90312656E-03, ]
- [  2.27458175E-03,   3.27692997E-14,  -3.27852165E-14, ]
- [  3.27688391E-14,   2.27458175E-03,  -3.27848722E-14, ]
- [ -3.27690319E-14,  -2.27458175E-03,   3.27849105E-14, ]
- [ -2.27458175E-03,  -3.27690874E-14,   3.27850826E-14, ]
- [ -9.63735264E-20,   2.01197374E-20,   1.91256256E-20, ]
force_length_stats: {min:   1.00291824E-19, max:   2.27458175E-03, mean:   1.43384224E-03, }
...

 Integrated electronic density in atomic spheres:
 ------------------------------------------------
 Atom  Sphere_radius  Integrated_density
    1        2.20660          5.36521791
    2        2.20660          5.36521791
    3        2.30022          4.03735171
    4        2.30022          4.03735171
    5        2.20000          4.94472085
    6        2.20000          4.94472085
    7        2.20000          4.94472085
    8        2.20000          4.94472085
    9        2.21000          8.84604150

 PAW TEST:
 ==== Compensation charge inside spheres ============
 The following values must be close to each other ...
 Compensation charge over spherical meshes =     -4.999625067423060
 Compensation charge over fine fft grid    =     -4.999628109950392

 ==== Results concerning PAW augmentation regions ====

 Total pseudopotential strength Dij (hartree):
 Atom #  1
   0.42089  -0.13948   0.00000   0.00000   0.00000   0.00000   0.00000   0.00000   0.00000   0.00000   0.00000   0.00000 ...
  -0.13948   0.04189   0.00000   0.00000   0.00000   0.00000   0.00000   0.00000   0.00000   0.00000  -0.00000   0.00000 ...
   0.00000   0.00000  -0.09118   0.00000   0.00000  -0.16801   0.00000   0.00000   0.00000   0.00000   0.00000  -0.00000 ...
   0.00000   0.00000   0.00000  -0.09118   0.00000   0.00000  -0.16802   0.00000  -0.00000   0.00000   0.00000   0.00000 ...
   0.00000   0.00000   0.00000   0.00000  -0.09118   0.00000   0.00000  -0.16801   0.00000  -0.00000   0.00000   0.00000 ...
   0.00000   0.00000  -0.16801   0.00000   0.00000   0.39818   0.00000   0.00000   0.00000   0.00000   0.00000   0.00000 ...
   0.00000   0.00000   0.00000  -0.16802   0.00000   0.00000   0.39819   0.00000   0.00000   0.00000   0.00000   0.00000 ...
   0.00000   0.00000   0.00000   0.00000  -0.16801   0.00000   0.00000   0.39818   0.00000   0.00000   0.00000   0.00000 ...
   0.00000   0.00000   0.00000  -0.00000   0.00000   0.00000   0.00000   0.00000   0.00556   0.00000   0.00000   0.00000 ...
   0.00000   0.00000   0.00000   0.00000  -0.00000   0.00000   0.00000   0.00000   0.00000   0.00556   0.00000   0.00000 ...
   0.00000  -0.00000   0.00000   0.00000   0.00000   0.00000   0.00000   0.00000   0.00000   0.00000   0.00556   0.00000 ...
   0.00000   0.00000  -0.00000   0.00000   0.00000   0.00000   0.00000   0.00000   0.00000   0.00000   0.00000   0.00556 ...
   ...  only 12  components have been written...
 Atom #  9
   3.05846  -0.89044   0.00000   0.00000   0.00000   0.00000   0.00000   0.00000   0.00000   0.00000  -0.00002   0.00000 ...
  -0.89044   0.26600   0.00000   0.00000   0.00000   0.00000   0.00000   0.00000   0.00000   0.00000  -0.00000   0.00000 ...
   0.00000   0.00000   0.27495   0.00000   0.00000  -0.05613   0.00000   0.00000   0.00000   0.00000   0.00000   0.00000 ...
   0.00000   0.00000   0.00000   0.27488   0.00000   0.00000  -0.05613   0.00000   0.00000   0.00000   0.00000   0.00000 ...
   0.00000   0.00000   0.00000   0.00000   0.27495   0.00000   0.00000  -0.05613   0.00000   0.00000   0.00000   0.00000 ...
   0.00000   0.00000  -0.05613   0.00000   0.00000   0.01532   0.00000   0.00000   0.00000   0.00000   0.00000   0.00000 ...
   0.00000   0.00000   0.00000  -0.05613   0.00000   0.00000   0.01532   0.00000   0.00000   0.00000   0.00000   0.00000 ...
   0.00000   0.00000   0.00000   0.00000  -0.05613   0.00000   0.00000   0.01532   0.00000   0.00000   0.00000   0.00000 ...
   0.00000   0.00000   0.00000   0.00000   0.00000   0.00000   0.00000   0.00000  -0.00750   0.00000   0.00000   0.00000 ...
   0.00000   0.00000   0.00000   0.00000   0.00000   0.00000   0.00000   0.00000   0.00000  -0.00749   0.00000   0.00000 ...
  -0.00002  -0.00000   0.00000   0.00000   0.00000   0.00000   0.00000   0.00000   0.00000   0.00000  -0.00741   0.00000 ...
   0.00000   0.00000   0.00000   0.00000   0.00000   0.00000   0.00000   0.00000   0.00000   0.00000   0.00000  -0.00749 ...
   ...  only 12  components have been written...


 Augmentation waves occupancies Rhoij:
 Atom #  1
   1.99880  -0.01220   0.00000   0.00000   0.00000   0.00000   0.00000   0.00000   0.00000   0.00000   0.00209   0.00000 ...
  -0.01220   0.20600   0.00000   0.00000   0.00000   0.00000   0.00000   0.00000   0.00000   0.00000  -0.02866   0.00000 ...
   0.00000   0.00000   2.00916   0.00000   0.00000  -0.00509   0.00000   0.00000   0.00000   0.00000   0.00000  -0.00243 ...
   0.00000   0.00000   0.00000   2.00650   0.00000   0.00000  -0.00461   0.00000  -0.00222   0.00000   0.00000   0.00000 ...
   0.00000   0.00000   0.00000   0.00000   2.00916   0.00000   0.00000  -0.00509   0.00000  -0.00243   0.00000   0.00000 ...
   0.00000   0.00000  -0.00509   0.00000   0.00000   0.00017   0.00000   0.00000   0.00000   0.00000   0.00000   0.00009 ...
   0.00000   0.00000   0.00000  -0.00461   0.00000   0.00000   0.00013   0.00000   0.00007   0.00000   0.00000   0.00000 ...
   0.00000   0.00000   0.00000   0.00000  -0.00509   0.00000   0.00000   0.00017   0.00000   0.00009   0.00000   0.00000 ...
   0.00000   0.00000   0.00000  -0.00222   0.00000   0.00000   0.00007   0.00000   0.10521   0.00000   0.00000   0.00000 ...
   0.00000   0.00000   0.00000   0.00000  -0.00243   0.00000   0.00000   0.00009   0.00000   0.06014   0.00000   0.00000 ...
   0.00209  -0.02866   0.00000   0.00000   0.00000   0.00000   0.00000   0.00000   0.00000   0.00000   0.05707   0.00000 ...
   0.00000   0.00000  -0.00243   0.00000   0.00000   0.00009   0.00000   0.00000   0.00000   0.00000   0.00000   0.06014 ...
   ...  only 12  components have been written...
 Atom #  9
   1.99351  -0.06333   0.00000   0.00000   0.00000   0.00000   0.00000   0.00000   0.00000   0.00000   0.00422   0.00000 ...
  -0.06333   1.07042   0.00000   0.00000   0.00000   0.00000   0.00000   0.00000   0.00000   0.00000  -0.02296   0.00000 ...
   0.00000   0.00000   1.96781   0.00000   0.00000  -0.19389   0.00000   0.00000   0.00000   0.00000   0.00000   0.00000 ...
   0.00000   0.00000   0.00000   1.96891   0.00000   0.00000  -0.18394   0.00000   0.00000   0.00000   0.00000   0.00000 ...
   0.00000   0.00000   0.00000   0.00000   1.96781   0.00000   0.00000  -0.19389   0.00000   0.00000   0.00000   0.00000 ...
   0.00000   0.00000  -0.19389   0.00000   0.00000   1.70488   0.00000   0.00000   0.00000   0.00000   0.00000   0.00000 ...
   0.00000   0.00000   0.00000  -0.18394   0.00000   0.00000   1.55704   0.00000   0.00000   0.00000   0.00000   0.00000 ...
   0.00000   0.00000   0.00000   0.00000  -0.19389   0.00000   0.00000   1.70488   0.00000   0.00000   0.00000   0.00000 ...
   0.00000   0.00000   0.00000   0.00000   0.00000   0.00000   0.00000   0.00000   0.50242   0.00000   0.00000   0.00000 ...
   0.00000   0.00000   0.00000   0.00000   0.00000   0.00000   0.00000   0.00000   0.00000   0.50176   0.00000   0.00000 ...
   0.00422  -0.02296   0.00000   0.00000   0.00000   0.00000   0.00000   0.00000   0.00000   0.00000   1.40307   0.00000 ...
   0.00000   0.00000   0.00000   0.00000   0.00000   0.00000   0.00000   0.00000   0.00000   0.00000   0.00000   0.50176 ...
   ...  only 12  components have been written...



---OUTPUT-----------------------------------------------------------------------

 Cartesian coordinates (xcart) [bohr]
  5.04137524791437E+00  5.04137524791437E+00  5.03897381845651E+00
  1.51241257437431E+01  1.51241257437431E+01  1.51169214553695E+01
  1.00827504957609E+01  1.00827504957609E+01  5.37330459720146E+00
  1.00827504958965E+01  1.00827504958965E+01  1.47825906766246E+01
  1.52141878633289E+01  1.00827504957548E+01  1.00779476369130E+01
  1.00827504957548E+01  1.52141878633289E+01  1.00779476369130E+01
  1.00827504959027E+01  4.95131312832859E+00  1.00779476369130E+01
  4.95131312832859E+00  1.00827504959027E+01  1.00779476369130E+01
 -3.57881414762990E-20 -6.75292817905783E-20 -1.33533617665441E-21
 Reduced coordinates (xred)
  2.50000000000000E-01  2.50000000000000E-01  2.50000000000000E-01
  7.50000000000000E-01  7.50000000000000E-01  7.50000000000000E-01
  2.66587245280000E-01  2.66587245280000E-01  7.33412754720000E-01
  7.33412754720000E-01  7.33412754720000E-01  2.66587245280000E-01
  2.45533851620000E-01  7.54466148380000E-01  7.54466148380000E-01
  7.54466148380000E-01  2.45533851620000E-01  7.54466148380000E-01
  2.45533851620000E-01  7.54466148380000E-01  2.45533851620000E-01
  7.54466148380000E-01  2.45533851620000E-01  2.45533851620000E-01
 -1.64028222690000E-21  1.50778142170000E-21 -5.05722375810000E-21
 Cartesian forces (fcart) [Ha/bohr]; max,rms= 2.27458E-03 1.01723E-03 (free atoms)
 -9.63735269238543E-20  2.01197378845638E-20  1.91256260374328E-20
 -9.63735261226904E-20  2.01197370833999E-20  1.91256247549597E-20
  2.02991296059525E-19 -2.79245085098815E-19 -1.90312655954240E-03
 -1.15269495100608E-19  3.90157060613178E-20  1.90312655954240E-03
  2.27458175486564E-03  3.27692997072125E-14 -3.27852164778947E-14
  3.27688391166755E-14  2.27458175486564E-03 -3.27848722166346E-14
 -3.27690318637284E-14 -2.27458175486564E-03  3.27849104678858E-14
 -2.27458175486564E-03 -3.27690874191011E-14  3.27850825985158E-14
 -9.63735264431559E-20  2.01197374038655E-20  1.91256255565054E-20
 Reduced forces (fred)
 -3.95609354862881E-19  7.78963168661827E-19  7.68847929233649E-19
 -3.95609333860248E-19  7.78963173508588E-19  7.68847929233649E-19
  1.91796098134867E-02  1.91796098134867E-02  7.68847929233649E-19
 -1.91796098134867E-02 -1.91796098134867E-02  7.68847929233649E-19
  3.02205346307666E-18 -2.29340403166746E-02 -2.29340403166746E-02
 -2.29340403166746E-02  4.19662597691923E-18 -2.29340403166746E-02
  2.29340403166746E-02 -2.63869963968290E-18  2.29340403166746E-02
 -3.81327215356660E-18  2.29340403166746E-02  2.29340403166746E-02
 -3.95609345169358E-19  7.78963168661827E-19  7.68847929233649E-19
 Scale of Primitive Cell (acell) [bohr]
  1.42557667677750E+01  1.42557667677750E+01  1.42591624969500E+01
 Real space primitive translations (rprimd) [bohr]
  0.00000000000000E+00  1.00827504959740E+01  1.00779476369130E+01
  1.00827504959740E+01  0.00000000000000E+00  1.00779476369130E+01
  1.00827504956835E+01  1.00827504956835E+01  0.00000000000000E+00
 Unitary Cell Volume (ucvol) [Bohr^3]=  2.04908575434485E+03
 Angles (23,13,12)= [degrees]
  5.99921200805440E+01  5.99921200805440E+01  6.00157598389121E+01
 Lengths [Bohr]
  1.42557667677479E+01  1.42557667677479E+01  1.42591624970196E+01
 Stress tensor in cartesian coordinates (strten) [Ha/bohr^3]
 -1.23177852496348E-04  1.97554882126587E-13 -9.88249990677125E-14
  1.97554882126587E-13 -1.23177852496349E-04 -9.88251767263688E-14
 -9.88249990677125E-14 -9.88251767263688E-14 -1.24432536889080E-04
 Total energy (etotal) [Ha]= -1.66634967185098E+02

--- Iteration: (   2/1000) Internal Cycle: (1/1)
--------------------------------------------------------------------------------

---SELF-CONSISTENT-FIELD CONVERGENCE--------------------------------------------

--- !BeginCycle
iteration_state: {dtset: 1, itime: 2, icycle: 1, }
solver: {iscf: 17, nstep: 2500, nline: 4, wfoptalg: 10, }
tolerances: {toldff: 1.00E-08, }
...

     iter   Etot(hartree)      deltaE(h)  residm     nres2    diffor    maxfor
 ETOT  1  -166.63505366227    -1.666E+02 4.805E-06 9.705E-03 1.014E-02 1.241E-02
 ETOT  2  -166.63499950417     5.416E-05 2.832E-06 2.229E-03 1.118E-02 1.235E-03
 ETOT  3  -166.63499287374     6.630E-06 3.579E-06 9.664E-05 1.774E-03 3.009E-03
 ETOT  4  -166.63499253503     3.387E-07 1.853E-06 1.691E-05 8.953E-04 2.114E-03
 ETOT  5  -166.63499258569    -5.067E-08 2.316E-06 7.559E-06 2.602E-05 2.088E-03
 ETOT  6  -166.63499259574    -1.005E-08 1.231E-06 8.292E-07 8.524E-05 2.002E-03
 ETOT  7  -166.63499259892    -3.173E-09 1.509E-06 2.246E-07 5.938E-06 2.002E-03
 ETOT  8  -166.63499260657    -7.650E-09 1.178E-06 9.826E-09 1.030E-05 1.994E-03
 ETOT  9  -166.63499260678    -2.175E-10 1.170E-06 4.907E-09 2.117E-07 1.994E-03
 ETOT 10  -166.63499260683    -5.116E-11 1.128E-06 4.219E-10 8.318E-07 1.993E-03
 ETOT 11  -166.63499260686    -2.800E-11 1.119E-06 9.284E-11 1.009E-07 1.993E-03
 ETOT 12  -166.63499260687    -4.292E-12 1.078E-06 1.518E-11 8.052E-08 1.993E-03
 ETOT 13  -166.63499260690    -3.089E-11 1.068E-06 9.698E-13 7.066E-08 1.993E-03
 ETOT 14  -166.63499260693    -2.981E-11 1.028E-06 2.594E-13 3.142E-08 1.993E-03
 ETOT 15  -166.63499260696    -3.573E-11 1.018E-06 2.876E-14 3.989E-09 1.993E-03
 ETOT 16  -166.63499260698    -1.677E-11 9.795E-07 6.156E-15 9.606E-10 1.993E-03

 At SCF step   16, forces are converged : 
  for the second time, max diff in force=  9.606E-10 < toldff=  1.000E-08

 Cartesian components of stress tensor (hartree/bohr^3)
  sigma(1 1)= -1.24156454E-04  sigma(3 2)= -9.88111703E-14
  sigma(2 2)= -1.24156454E-04  sigma(3 1)= -9.88111944E-14
  sigma(3 3)= -1.25182107E-04  sigma(2 1)=  1.97534225E-13


--- !ResultsGS
iteration_state: {dtset: 1, itime: 2, icycle: 1, }
comment   : Summary of ground state results
lattice_vectors:
- [  0.0000000,  10.0826240,  10.0782005, ]
- [ 10.0826240,   0.0000000,  10.0782005, ]
- [ 10.0826240,  10.0826240,   0.0000000, ]
lattice_lengths: [  14.25586,   14.25586,   14.25898, ]
lattice_angles: [ 59.993,  59.993,  60.015, ] # degrees, (23, 13, 12)
lattice_volume:   2.0490858E+03
convergence: {deltae: -1.677E-11, res2:  6.156E-15, residm:  9.795E-07, diffor:  9.606E-10, }
etotal    :  -1.66634993E+02
entropy   :   0.00000000E+00
fermie    :  -2.80525831E-02
cartesian_stress_tensor: # hartree/bohr^3
- [ -1.24156454E-04,   1.97534225E-13,  -9.88111944E-14, ]
- [  1.97534225E-13,  -1.24156454E-04,  -9.88111703E-14, ]
- [ -9.88111944E-14,  -9.88111703E-14,  -1.25182107E-04, ]
pressure_GPa:   3.6629E+00
xred      :
- [  2.5000E-01,   2.5000E-01,   2.5000E-01, Cs]
- [  7.5000E-01,   7.5000E-01,   7.5000E-01, Cs]
- [  2.6649E-01,   2.6649E-01,   7.3351E-01,  I]
- [  7.3351E-01,   7.3351E-01,   2.6649E-01,  I]
- [  2.4542E-01,   7.5458E-01,   7.5458E-01, Br]
- [  7.5458E-01,   2.4542E-01,   7.5458E-01, Br]
- [  2.4542E-01,   7.5458E-01,   2.4542E-01, Br]
- [  7.5458E-01,   2.4542E-01,   2.4542E-01, Br]
- [ -1.6403E-21,   1.5078E-21,  -5.0572E-21, Zr]
cartesian_forces: # hartree/bohr
- [ -4.10201061E-25,  -1.82285110E-20,  -4.32187735E-20, ]
- [  2.46120637E-25,  -1.82291673E-20,  -4.32187735E-20, ]
- [ -1.64804481E-19,   1.46575559E-19,  -1.66423595E-03, ]
- [ -7.24631461E-21,  -1.09826065E-20,   1.66423595E-03, ]
- [  1.99298698E-03,   2.87129607E-14,  -2.87253675E-14, ]
- [  2.87129789E-14,   1.99298698E-03,  -2.87253675E-14, ]
- [ -2.87131510E-14,  -1.99298698E-03,   2.87254532E-14, ]
- [ -1.99298698E-03,  -2.87129971E-14,   2.87252810E-14, ]
- [ -0.00000000E+00,  -1.82289212E-20,  -4.32185272E-20, ]
force_length_stats: {min:   4.69055931E-20, max:   1.99298698E-03, mean:   1.25560220E-03, }
...

 Integrated electronic density in atomic spheres:
 ------------------------------------------------
 Atom  Sphere_radius  Integrated_density
    1        2.20660          5.36521472
    2        2.20660          5.36521472
    3        2.30022          4.03830418
    4        2.30022          4.03830418
    5        2.20000          4.94280735
    6        2.20000          4.94280735
    7        2.20000          4.94280735
    8        2.20000          4.94280735
    9        2.21000          8.84705517

 PAW TEST:
 ==== Compensation charge inside spheres ============
 The following values must be close to each other ...
 Compensation charge over spherical meshes =     -4.999540406835355
 Compensation charge over fine fft grid    =     -4.999543622243174

 ==== Results concerning PAW augmentation regions ====

 Total pseudopotential strength Dij (hartree):
 Atom #  1
   0.42090  -0.13949   0.00000   0.00000   0.00000   0.00000   0.00000   0.00000   0.00000   0.00000   0.00000   0.00000 ...
  -0.13949   0.04189   0.00000   0.00000   0.00000   0.00000   0.00000   0.00000   0.00000   0.00000  -0.00000   0.00000 ...
   0.00000   0.00000  -0.09118   0.00000   0.00000  -0.16801   0.00000   0.00000   0.00000   0.00000   0.00000  -0.00000 ...
   0.00000   0.00000   0.00000  -0.09118   0.00000   0.00000  -0.16802   0.00000  -0.00000   0.00000   0.00000   0.00000 ...
   0.00000   0.00000   0.00000   0.00000  -0.09118   0.00000   0.00000  -0.16801   0.00000  -0.00000   0.00000   0.00000 ...
   0.00000   0.00000  -0.16801   0.00000   0.00000   0.39819   0.00000   0.00000   0.00000   0.00000   0.00000   0.00000 ...
   0.00000   0.00000   0.00000  -0.16802   0.00000   0.00000   0.39819   0.00000   0.00000   0.00000   0.00000   0.00000 ...
   0.00000   0.00000   0.00000   0.00000  -0.16801   0.00000   0.00000   0.39819   0.00000   0.00000   0.00000   0.00000 ...
   0.00000   0.00000   0.00000  -0.00000   0.00000   0.00000   0.00000   0.00000   0.00556   0.00000   0.00000   0.00000 ...
   0.00000   0.00000   0.00000   0.00000  -0.00000   0.00000   0.00000   0.00000   0.00000   0.00556   0.00000   0.00000 ...
   0.00000  -0.00000   0.00000   0.00000   0.00000   0.00000   0.00000   0.00000   0.00000   0.00000   0.00556   0.00000 ...
   0.00000   0.00000  -0.00000   0.00000   0.00000   0.00000   0.00000   0.00000   0.00000   0.00000   0.00000   0.00556 ...
   ...  only 12  components have been written...
 Atom #  9
   3.05837  -0.89041   0.00000   0.00000   0.00000   0.00000   0.00000   0.00000   0.00000   0.00000  -0.00002   0.00000 ...
  -0.89041   0.26599   0.00000   0.00000   0.00000   0.00000   0.00000   0.00000   0.00000   0.00000  -0.00000   0.00000 ...
   0.00000   0.00000   0.27498   0.00000   0.00000  -0.05614   0.00000   0.00000   0.00000   0.00000   0.00000   0.00000 ...
   0.00000   0.00000   0.00000   0.27491   0.00000   0.00000  -0.05613   0.00000   0.00000   0.00000   0.00000   0.00000 ...
   0.00000   0.00000   0.00000   0.00000   0.27498   0.00000   0.00000  -0.05614   0.00000   0.00000   0.00000   0.00000 ...
   0.00000   0.00000  -0.05614   0.00000   0.00000   0.01532   0.00000   0.00000   0.00000   0.00000   0.00000   0.00000 ...
   0.00000   0.00000   0.00000  -0.05613   0.00000   0.00000   0.01532   0.00000   0.00000   0.00000   0.00000   0.00000 ...
   0.00000   0.00000   0.00000   0.00000  -0.05614   0.00000   0.00000   0.01532   0.00000   0.00000   0.00000   0.00000 ...
   0.00000   0.00000   0.00000   0.00000   0.00000   0.00000   0.00000   0.00000  -0.00747   0.00000   0.00000   0.00000 ...
   0.00000   0.00000   0.00000   0.00000   0.00000   0.00000   0.00000   0.00000   0.00000  -0.00746   0.00000   0.00000 ...
  -0.00002  -0.00000   0.00000   0.00000   0.00000   0.00000   0.00000   0.00000   0.00000   0.00000  -0.00738   0.00000 ...
   0.00000   0.00000   0.00000   0.00000   0.00000   0.00000   0.00000   0.00000   0.00000   0.00000   0.00000  -0.00746 ...
   ...  only 12  components have been written...


 Augmentation waves occupancies Rhoij:
 Atom #  1
   1.99880  -0.01220   0.00000   0.00000   0.00000   0.00000   0.00000   0.00000   0.00000   0.00000   0.00210   0.00000 ...
  -0.01220   0.20599   0.00000   0.00000   0.00000   0.00000   0.00000   0.00000   0.00000   0.00000  -0.02869   0.00000 ...
   0.00000   0.00000   2.00917   0.00000   0.00000  -0.00509   0.00000   0.00000   0.00000   0.00000   0.00000  -0.00241 ...
   0.00000   0.00000   0.00000   2.00649   0.00000   0.00000  -0.00461   0.00000  -0.00221   0.00000   0.00000   0.00000 ...
   0.00000   0.00000   0.00000   0.00000   2.00917   0.00000   0.00000  -0.00509   0.00000  -0.00241   0.00000   0.00000 ...
   0.00000   0.00000  -0.00509   0.00000   0.00000   0.00017   0.00000   0.00000   0.00000   0.00000   0.00000   0.00009 ...
   0.00000   0.00000   0.00000  -0.00461   0.00000   0.00000   0.00013   0.00000   0.00007   0.00000   0.00000   0.00000 ...
   0.00000   0.00000   0.00000   0.00000  -0.00509   0.00000   0.00000   0.00017   0.00000   0.00009   0.00000   0.00000 ...
   0.00000   0.00000   0.00000  -0.00221   0.00000   0.00000   0.00007   0.00000   0.10524   0.00000   0.00000   0.00000 ...
   0.00000   0.00000   0.00000   0.00000  -0.00241   0.00000   0.00000   0.00009   0.00000   0.06011   0.00000   0.00000 ...
   0.00210  -0.02869   0.00000   0.00000   0.00000   0.00000   0.00000   0.00000   0.00000   0.00000   0.05708   0.00000 ...
   0.00000   0.00000  -0.00241   0.00000   0.00000   0.00009   0.00000   0.00000   0.00000   0.00000   0.00000   0.06011 ...
   ...  only 12  components have been written...
 Atom #  9
   1.99353  -0.06324   0.00000   0.00000   0.00000   0.00000   0.00000   0.00000   0.00000   0.00000   0.00420   0.00000 ...
  -0.06324   1.07134   0.00000   0.00000   0.00000   0.00000   0.00000   0.00000   0.00000   0.00000  -0.02341   0.00000 ...
   0.00000   0.00000   1.96787   0.00000   0.00000  -0.19353   0.00000   0.00000   0.00000   0.00000   0.00000   0.00000 ...
   0.00000   0.00000   0.00000   1.96898   0.00000   0.00000  -0.18356   0.00000   0.00000   0.00000   0.00000   0.00000 ...
   0.00000   0.00000   0.00000   0.00000   1.96787   0.00000   0.00000  -0.19353   0.00000   0.00000   0.00000   0.00000 ...
   0.00000   0.00000  -0.19353   0.00000   0.00000   1.70868   0.00000   0.00000   0.00000   0.00000   0.00000   0.00000 ...
   0.00000   0.00000   0.00000  -0.18356   0.00000   0.00000   1.55922   0.00000   0.00000   0.00000   0.00000   0.00000 ...
   0.00000   0.00000   0.00000   0.00000  -0.19353   0.00000   0.00000   1.70868   0.00000   0.00000   0.00000   0.00000 ...
   0.00000   0.00000   0.00000   0.00000   0.00000   0.00000   0.00000   0.00000   0.50375   0.00000   0.00000   0.00000 ...
   0.00000   0.00000   0.00000   0.00000   0.00000   0.00000   0.00000   0.00000   0.00000   0.50275   0.00000   0.00000 ...
   0.00420  -0.02341   0.00000   0.00000   0.00000   0.00000   0.00000   0.00000   0.00000   0.00000   1.40578   0.00000 ...
   0.00000   0.00000   0.00000   0.00000   0.00000   0.00000   0.00000   0.00000   0.00000   0.00000   0.00000   0.50275 ...
   ...  only 12  components have been written...



---OUTPUT-----------------------------------------------------------------------

 Cartesian coordinates (xcart) [bohr]
  5.04131199535957E+00  5.04131199535957E+00  5.03910026568589E+00
  1.51239359860787E+01  1.51239359860787E+01  1.51173007970577E+01
  1.00826239906513E+01  1.00826239906513E+01  5.37153625975936E+00
  1.00826239907870E+01  1.00826239907870E+01  1.47848648029842E+01
  1.52162715288997E+01  1.00826239906452E+01  1.00782005313718E+01
  1.00826239906452E+01  1.52162715288997E+01  1.00782005313718E+01
  1.00826239907931E+01  4.94897645253857E+00  1.00782005313718E+01
  4.94897645253857E+00  1.00826239907931E+01  1.00782005313718E+01
 -3.57876924537072E-20 -6.75284345218496E-20 -1.33536968537383E-21
 Reduced coordinates (xred)
  2.50000000000000E-01  2.50000000000000E-01  2.50000000000000E-01
  7.50000000000000E-01  7.50000000000000E-01  7.50000000000000E-01
  2.66492824936290E-01  2.66492824936290E-01  7.33507175063710E-01
  7.33507175063710E-01  7.33507175063710E-01  2.66492824936290E-01
  2.45421055922248E-01  7.54578944077752E-01  7.54578944077752E-01
  7.54578944077752E-01  2.45421055922248E-01  7.54578944077751E-01
  2.45421055922248E-01  7.54578944077752E-01  2.45421055922248E-01
  7.54578944077752E-01  2.45421055922248E-01  2.45421055922248E-01
 -1.64028222690000E-21  1.50778142170000E-21 -5.05722375810000E-21
 Cartesian forces (fcart) [Ha/bohr]; max,rms= 1.99299E-03 8.90845E-04 (free atoms)
 -4.10201061401533E-25 -1.82285109552674E-20 -4.32187734733173E-20
  2.46120636840920E-25 -1.82291672769657E-20 -4.32187734733173E-20
 -1.64804480655377E-19  1.46575559499048E-19 -1.66423594942558E-03
 -7.24631460869265E-21 -1.09826065476362E-20  1.66423594942558E-03
  1.99298697912783E-03  2.87129606851565E-14 -2.87253674667940E-14
  2.87129789140777E-14  1.99298697912783E-03 -2.87253674667940E-14
 -2.87131509648730E-14 -1.99298697912783E-03  2.87254531560502E-14
 -1.99298697912783E-03 -2.87129971429989E-14  2.87252810297395E-14
 -0.00000000000000E+00 -1.82289211563288E-20 -4.32185272446547E-20
 Reduced forces (fred)
  6.19358687659336E-19  4.35571601687085E-19  1.83795357773081E-19
  6.19365305104237E-19  4.35564984242185E-19  1.83795357773081E-19
  1.67725036298288E-02  1.67725036298288E-02  1.83795357773081E-19
 -1.67725036298288E-02 -1.67725036298288E-02  1.83795357773081E-19
 -1.97258521321261E-18 -2.00945383289451E-02 -2.00945383289451E-02
 -2.00945383289451E-02 -2.15638057104864E-18 -2.00945383289451E-02
  2.00945383289451E-02  3.02751053945932E-18  2.00945383289451E-02
  3.21130589727614E-18  2.00945383289451E-02  2.00945383289451E-02
  6.19360342020562E-19  4.35564984242185E-19  1.83795357773081E-19
 Scale of Primitive Cell (acell) [bohr]
  1.42558560771248E+01  1.42558560771248E+01  1.42589835917779E+01
 Real space primitive translations (rprimd) [bohr]
  0.00000000000000E+00  1.00826239908644E+01  1.00782005313718E+01
  1.00826239908644E+01  0.00000000000000E+00  1.00782005313718E+01
  1.00826239905739E+01  1.00826239905739E+01  0.00000000000000E+00
 Unitary Cell Volume (ucvol) [Bohr^3]=  2.04908575434485E+03
 Angles (23,13,12)= [degrees]
  5.99927425509660E+01  5.99927425509660E+01  6.00145148980680E+01
 Lengths [Bohr]
  1.42558560771248E+01  1.42558560771248E+01  1.42589835917779E+01
 Stress tensor in cartesian coordinates (strten) [Ha/bohr^3]
 -1.24156453609542E-04  1.97534225221010E-13 -9.88111943863805E-14
  1.97534225221010E-13 -1.24156453609542E-04 -9.88111702680887E-14
 -9.88111943863805E-14 -9.88111702680887E-14 -1.25182106697312E-04
 Total energy (etotal) [Ha]= -1.66634992606980E+02

 Difference of energy with previous step (new-old):
           Absolute (Ha)=-2.54219E-05
           Relative     =-1.52560E-07

--- Iteration: (   3/1000) Internal Cycle: (1/1)
--------------------------------------------------------------------------------

---SELF-CONSISTENT-FIELD CONVERGENCE--------------------------------------------

--- !BeginCycle
iteration_state: {dtset: 1, itime: 3, icycle: 1, }
solver: {iscf: 17, nstep: 2500, nline: 4, wfoptalg: 10, }
tolerances: {toldff: 1.00E-08, }
...

     iter   Etot(hartree)      deltaE(h)  residm     nres2    diffor    maxfor
 ETOT  1  -166.63809135435    -1.666E+02 4.463E-03 4.855E-01 7.141E-02 7.341E-02
 ETOT  2  -166.63543363028     2.658E-03 2.826E-05 1.144E-01 7.901E-02 5.601E-03
 ETOT  3  -166.63508746363     3.462E-04 4.538E-05 5.113E-03 1.239E-02 6.791E-03
 ETOT  4  -166.63507239912     1.506E-05 2.786E-06 8.462E-04 5.874E-03 9.167E-04
 ETOT  5  -166.63507475558    -2.356E-06 5.901E-07 3.832E-04 2.717E-04 6.450E-04
 ETOT  6  -166.63507503468    -2.791E-07 2.537E-06 4.743E-05 6.058E-04 9.108E-05
 ETOT  7  -166.63507503683    -2.154E-09 5.452E-07 1.203E-05 3.427E-05 5.681E-05
 ETOT  8  -166.63507516549    -1.287E-07 2.411E-06 5.642E-07 8.129E-05 2.448E-05
 ETOT  9  -166.63507516920    -3.712E-09 5.130E-07 2.827E-07 4.193E-06 2.029E-05
 ETOT 10  -166.63507517041    -1.214E-09 2.212E-06 2.402E-08 7.139E-06 2.687E-05
 ETOT 11  -166.63507517079    -3.743E-10 4.638E-07 5.569E-09 1.210E-06 2.667E-05
 ETOT 12  -166.63507517091    -1.233E-10 1.979E-06 1.108E-09 4.988E-07 2.717E-05
 ETOT 13  -166.63507517112    -2.155E-10 4.123E-07 5.127E-11 6.180E-07 2.734E-05
 ETOT 14  -166.63507517135    -2.233E-10 1.762E-06 1.322E-11 2.380E-07 2.725E-05
 ETOT 15  -166.63507517160    -2.527E-10 3.652E-07 1.539E-12 1.578E-08 2.726E-05
 ETOT 16  -166.63507517177    -1.727E-10 1.568E-06 3.288E-13 8.875E-09 2.726E-05
 ETOT 17  -166.63507517191    -1.325E-10 3.234E-07 1.496E-13 8.846E-10 2.726E-05

 At SCF step   17, forces are converged : 
  for the second time, max diff in force=  8.846E-10 < toldff=  1.000E-08

 Cartesian components of stress tensor (hartree/bohr^3)
  sigma(1 1)= -1.31206654E-04  sigma(3 2)= -9.86962361E-14
  sigma(2 2)= -1.31206654E-04  sigma(3 1)= -9.86962445E-14
  sigma(3 3)= -1.30575453E-04  sigma(2 1)=  1.97354291E-13


--- !ResultsGS
iteration_state: {dtset: 1, itime: 3, icycle: 1, }
comment   : Summary of ground state results
lattice_vectors:
- [  0.0000000,  10.0817926,  10.0798628, ]
- [ 10.0817926,   0.0000000,  10.0798628, ]
- [ 10.0817926,  10.0817926,   0.0000000, ]
lattice_lengths: [  14.25644,   14.25644,   14.25781, ]
lattice_angles: [ 59.997,  59.997,  60.006, ] # degrees, (23, 13, 12)
lattice_volume:   2.0490858E+03
convergence: {deltae: -1.325E-10, res2:  1.496E-13, residm:  3.234E-07, diffor:  8.846E-10, }
etotal    :  -1.66635075E+02
entropy   :   0.00000000E+00
fermie    :  -2.82589258E-02
cartesian_stress_tensor: # hartree/bohr^3
- [ -1.31206654E-04,   1.97354291E-13,  -9.86962445E-14, ]
- [  1.97354291E-13,  -1.31206654E-04,  -9.86962361E-14, ]
- [ -9.86962445E-14,  -9.86962361E-14,  -1.30575453E-04, ]
pressure_GPa:   3.8540E+00
xred      :
- [  2.5000E-01,   2.5000E-01,   2.5000E-01, Cs]
- [  7.5000E-01,   7.5000E-01,   7.5000E-01, Cs]
- [  2.6583E-01,   2.6583E-01,   7.3417E-01,  I]
- [  7.3417E-01,   7.3417E-01,   2.6583E-01,  I]
- [  2.4463E-01,   7.5537E-01,   7.5537E-01, Br]
- [  7.5537E-01,   2.4463E-01,   7.5537E-01, Br]
- [  2.4463E-01,   7.5537E-01,   2.4463E-01, Br]
- [  7.5537E-01,   2.4463E-01,   2.4463E-01, Br]
- [ -1.6403E-21,   1.5078E-21,  -5.0572E-21, Zr]
cartesian_forces: # hartree/bohr
- [ -1.31275164E-24,  -7.10830627E-23,   1.50703564E-22, ]
- [  1.96912746E-24,  -7.43649418E-23,   1.47421056E-22, ]
- [  4.14433982E-22,  -4.86829796E-22,   2.72609166E-05, ]
- [ -4.14433982E-22,   3.42038168E-22,  -2.72609166E-05, ]
- [ -2.33035111E-05,  -3.35776793E-16,   3.35841510E-16, ]
- [ -3.35778064E-16,  -2.33035111E-05,   3.35844549E-16, ]
- [  3.35778064E-16,   2.33035111E-05,  -3.35844250E-16, ]
- [  2.33035111E-05,   3.35777992E-16,  -3.35842556E-16, ]
- [ -0.00000000E+00,  -7.23958144E-23,   1.49390561E-22, ]
force_length_stats: {min:   1.65127193E-22, max:   2.72609166E-05, mean:   1.64150975E-05, }
...

 Integrated electronic density in atomic spheres:
 ------------------------------------------------
 Atom  Sphere_radius  Integrated_density
    1        2.20660          5.36519172
    2        2.20660          5.36519172
    3        2.30022          4.03824632
    4        2.30022          4.03824632
    5        2.20000          4.94555580
    6        2.20000          4.94555580
    7        2.20000          4.94555580
    8        2.20000          4.94555580
    9        2.21000          8.85432120

 PAW TEST:
 ==== Compensation charge inside spheres ============
 The following values must be close to each other ...
 Compensation charge over spherical meshes =     -4.998948540487001
 Compensation charge over fine fft grid    =     -4.998952345365011

 ==== Results concerning PAW augmentation regions ====

 Total pseudopotential strength Dij (hartree):
 Atom #  1
   0.42094  -0.13950   0.00000   0.00000   0.00000   0.00000   0.00000   0.00000   0.00000   0.00000   0.00000   0.00000 ...
  -0.13950   0.04190   0.00000   0.00000   0.00000   0.00000   0.00000   0.00000   0.00000   0.00000  -0.00000   0.00000 ...
   0.00000   0.00000  -0.09119   0.00000   0.00000  -0.16801   0.00000   0.00000   0.00000   0.00000   0.00000  -0.00000 ...
   0.00000   0.00000   0.00000  -0.09119   0.00000   0.00000  -0.16801   0.00000  -0.00000   0.00000   0.00000   0.00000 ...
   0.00000   0.00000   0.00000   0.00000  -0.09119   0.00000   0.00000  -0.16801   0.00000  -0.00000   0.00000   0.00000 ...
   0.00000   0.00000  -0.16801   0.00000   0.00000   0.39820   0.00000   0.00000   0.00000   0.00000   0.00000   0.00000 ...
   0.00000   0.00000   0.00000  -0.16801   0.00000   0.00000   0.39821   0.00000   0.00000   0.00000   0.00000   0.00000 ...
   0.00000   0.00000   0.00000   0.00000  -0.16801   0.00000   0.00000   0.39820   0.00000   0.00000   0.00000   0.00000 ...
   0.00000   0.00000   0.00000  -0.00000   0.00000   0.00000   0.00000   0.00000   0.00556   0.00000   0.00000   0.00000 ...
   0.00000   0.00000   0.00000   0.00000  -0.00000   0.00000   0.00000   0.00000   0.00000   0.00556   0.00000   0.00000 ...
   0.00000  -0.00000   0.00000   0.00000   0.00000   0.00000   0.00000   0.00000   0.00000   0.00000   0.00556   0.00000 ...
   0.00000   0.00000  -0.00000   0.00000   0.00000   0.00000   0.00000   0.00000   0.00000   0.00000   0.00000   0.00556 ...
   ...  only 12  components have been written...
 Atom #  9
   3.05769  -0.89020   0.00000   0.00000   0.00000   0.00000   0.00000   0.00000   0.00000   0.00000  -0.00002   0.00000 ...
  -0.89020   0.26592   0.00000   0.00000   0.00000   0.00000   0.00000   0.00000   0.00000   0.00000  -0.00000   0.00000 ...
   0.00000   0.00000   0.27514   0.00000   0.00000  -0.05618   0.00000   0.00000   0.00000   0.00000   0.00000   0.00000 ...
   0.00000   0.00000   0.00000   0.27506   0.00000   0.00000  -0.05617   0.00000   0.00000   0.00000   0.00000   0.00000 ...
   0.00000   0.00000   0.00000   0.00000   0.27514   0.00000   0.00000  -0.05618   0.00000   0.00000   0.00000   0.00000 ...
   0.00000   0.00000  -0.05618   0.00000   0.00000   0.01533   0.00000   0.00000   0.00000   0.00000   0.00000   0.00000 ...
   0.00000   0.00000   0.00000  -0.05617   0.00000   0.00000   0.01533   0.00000   0.00000   0.00000   0.00000   0.00000 ...
   0.00000   0.00000   0.00000   0.00000  -0.05618   0.00000   0.00000   0.01533   0.00000   0.00000   0.00000   0.00000 ...
   0.00000   0.00000   0.00000   0.00000   0.00000   0.00000   0.00000   0.00000  -0.00727   0.00000   0.00000   0.00000 ...
   0.00000   0.00000   0.00000   0.00000   0.00000   0.00000   0.00000   0.00000   0.00000  -0.00727   0.00000   0.00000 ...
[...]
                       5.3145353455E+00  2.6077352519E+00  5.3113751724E+00
                       2.6077352519E+00  5.3145353455E+00  5.3113751724E+00
                      -1.8863636753E-20 -3.5594132284E-20 -7.0376148707E-22
           xangst10    2.6559213432E+00  2.6559213432E+00  2.6543990927E+00
                       7.9677640297E+00  7.9677640297E+00  7.9631972781E+00
                       5.3118426864E+00  5.3118426864E+00  2.8299389508E+00
                       5.3118426865E+00  5.3118426865E+00  7.7876574200E+00
                       8.0162380452E+00  5.3118426864E+00  5.3087981854E+00
                       5.3118426864E+00  8.0162380452E+00  5.3087981854E+00
                       5.3118426865E+00  2.6074473277E+00  5.3087981854E+00
                       2.6074473277E+00  5.3118426865E+00  5.3087981854E+00
                      -1.8854079315E-20 -3.5576098184E-20 -7.0342003421E-22
            xcart1     5.0430730666E+00  5.0430730666E+00  5.0355815124E+00
                       1.5129219200E+01  1.5129219200E+01  1.5106744537E+01
                       1.0086146133E+01  1.0086146133E+01  5.3584180788E+00
                       1.0086146133E+01  1.0086146133E+01  1.4783907971E+01
                       1.5239261212E+01  1.0086146133E+01  1.0071163025E+01
                       1.0086146133E+01  1.5239261212E+01  1.0071163025E+01
                       1.0086146133E+01  4.9330310539E+00  1.0071163025E+01
                       4.9330310539E+00  1.0086146133E+01  1.0071163025E+01
                      -4.0003670580E-20 -6.2067995121E-20 -8.7435230496E-21
            xcart2     5.0406105882E+00  5.0406105882E+00  5.0329833611E+00
                       1.5121831765E+01  1.5121831765E+01  1.5098950083E+01
                       1.0081221176E+01  1.0081221176E+01  5.3571813958E+00
                       1.0081221176E+01  1.0081221176E+01  1.4774752048E+01
                       1.5230191816E+01  1.0081221176E+01  1.0065966722E+01
                       1.0081221176E+01  1.5230191816E+01  1.0065966722E+01
                       1.0081221176E+01  4.9322505368E+00  1.0065966722E+01
                       4.9322505368E+00  1.0081221176E+01  1.0065966722E+01
                      -3.4107217583E-20 -6.7890959989E-20 -1.3000618661E-21
            xcart3     5.0379859751E+00  5.0379859751E+00  5.0307089977E+00
                       1.5113957925E+01  1.5113957925E+01  1.5092126993E+01
                       1.0075971950E+01  1.0075971950E+01  5.3560822850E+00
                       1.0075971950E+01  1.0075971950E+01  1.4766753706E+01
                       1.5220209350E+01  1.0075971950E+01  1.0061417995E+01
                       1.0075971950E+01  1.5220209350E+01  1.0061417995E+01
                       1.0075971950E+01  4.9317345500E+00  1.0061417995E+01
                       4.9317345500E+00  1.0075971950E+01  1.0061417995E+01
                      -3.7328584341E-20 -6.6531925559E-20 -2.4535918015E-21
            xcart4     5.0354920291E+00  5.0354920291E+00  5.0281736857E+00
                       1.5106476087E+01  1.5106476087E+01  1.5084521057E+01
                       1.0070984058E+01  1.0070984058E+01  5.3548526182E+00
                       1.0070984058E+01  1.0070984058E+01  1.4757842125E+01
                       1.5210817645E+01  1.0070984058E+01  1.0056347371E+01
                       1.0070984058E+01  1.5210817645E+01  1.0056347371E+01
                       1.0070984058E+01  4.9311504712E+00  1.0056347371E+01
                       4.9311504712E+00  1.0070984058E+01  1.0056347371E+01
                      -3.2965056052E-20 -7.1102055173E-20  1.3905928102E-21
            xcart5     5.0321049634E+00  5.0321049634E+00  5.0274224762E+00
                       1.5096314890E+01  1.5096314890E+01  1.5082267429E+01
                       1.0064209927E+01  1.0064209927E+01  5.3539349465E+00
                       1.0064209927E+01  1.0064209927E+01  1.4755754959E+01
                       1.5197917692E+01  1.0064209927E+01  1.0054844952E+01
                       1.0064209927E+01  1.5197917692E+01  1.0054844952E+01
                       1.0064209927E+01  4.9305021615E+00  1.0054844952E+01
                       4.9305021615E+00  1.0064209927E+01  1.0054844952E+01
                      -3.5845865605E-20 -6.7282697483E-20 -1.3812652595E-21
            xcart6     5.0292540749E+00  5.0292540749E+00  5.0256004396E+00
                       1.5087762225E+01  1.5087762225E+01  1.5076801319E+01
                       1.0058508150E+01  1.0058508150E+01  5.3527900146E+00
                       1.0058508150E+01  1.0058508150E+01  1.4749611744E+01
                       1.5187112530E+01  1.0058508150E+01  1.0051200879E+01
                       1.0058508150E+01  1.5187112530E+01  1.0051200879E+01
                       1.0058508150E+01  4.9299037699E+00  1.0051200879E+01
                       4.9299037699E+00  1.0058508150E+01  1.0051200879E+01
                      -3.5702094667E-20 -6.7366918532E-20 -1.3317922097E-21
            xcart7     5.0266336509E+00  5.0266336509E+00  5.0233178860E+00
                       1.5079900953E+01  1.5079900953E+01  1.5069953658E+01
                       1.0053267302E+01  1.0053267302E+01  5.3515012238E+00
                       1.0053267302E+01  1.0053267302E+01  1.4741770320E+01
                       1.5177297777E+01  1.0053267302E+01  1.0046635772E+01
                       1.0053267302E+01  1.5177297777E+01  1.0046635772E+01
                       1.0053267302E+01  4.9292368262E+00  1.0046635772E+01
                       4.9292368262E+00  1.0053267302E+01  1.0046635772E+01
                      -3.5632344614E-20 -6.8132951755E-20 -7.0290309030E-22
            xcart8     5.0240597650E+00  5.0240597650E+00  5.0209423277E+00
                       1.5072179295E+01  1.5072179295E+01  1.5062826983E+01
                       1.0048119530E+01  1.0048119530E+01  5.3502657817E+00
                       1.0048119530E+01  1.0048119530E+01  1.4733503529E+01
                       1.5167723822E+01  1.0048119530E+01  1.0041884655E+01
                       1.0048119530E+01  1.5167723822E+01  1.0041884655E+01
                       1.0048119530E+01  4.9285152383E+00  1.0041884655E+01
                       4.9285152383E+00  1.0048119530E+01  1.0041884655E+01
                      -3.5635176623E-20 -6.6942534494E-20 -1.6106812292E-21
            xcart9     5.0215081633E+00  5.0215081633E+00  5.0185222325E+00
                       1.5064524490E+01  1.5064524490E+01  1.5055566697E+01
                       1.0043016326E+01  1.0043016326E+01  5.3490485214E+00
                       1.0043016327E+01  1.0043016327E+01  1.4725040408E+01
                       1.5158127200E+01  1.0043016326E+01  1.0037044465E+01
                       1.0043016326E+01  1.5158127200E+01  1.0037044465E+01
                       1.0043016327E+01  4.9279054531E+00  1.0037044465E+01
                       4.9279054531E+00  1.0043016327E+01  1.0037044465E+01
                      -3.5647107334E-20 -6.7263161954E-20 -1.3299164734E-21
            xcart10    5.0189639692E+00  5.0189639692E+00  5.0160873326E+00
                       1.5056891908E+01  1.5056891908E+01  1.5048261998E+01
                       1.0037927938E+01  1.0037927938E+01  5.3478095898E+00
                       1.0037927938E+01  1.0037927938E+01  1.4716539741E+01
                       1.5148494522E+01  1.0037927938E+01  1.0032174665E+01
                       1.0037927938E+01  1.5148494522E+01  1.0032174665E+01
                       1.0037927938E+01  4.9273613553E+00  1.0032174665E+01
                       4.9273613553E+00  1.0037927938E+01  1.0032174665E+01
                      -3.5629046393E-20 -6.7229082444E-20 -1.3292712210E-21
             xred1     2.5000000000E-01  2.5000000000E-01  2.5000000000E-01
                       7.5000000000E-01  7.5000000000E-01  7.5000000000E-01
                       2.6602776986E-01  2.6602776986E-01  7.3397223014E-01
                       7.3397223014E-01  7.3397223014E-01  2.6602776986E-01
                       2.4454489300E-01  7.5545510700E-01  7.5545510700E-01
                       7.5545510700E-01  2.4454489300E-01  7.5545510700E-01
                       2.4454489300E-01  7.5545510700E-01  2.4454489300E-01
                       7.5545510700E-01  2.4454489300E-01  2.4454489300E-01
                      -1.5278806757E-21  6.5970656031E-22 -4.6259063409E-21
             xred2     2.5000000000E-01  2.5000000000E-01  2.5000000000E-01
                       7.5000000000E-01  7.5000000000E-01  7.5000000000E-01
                       2.6610367110E-01  2.6610367110E-01  7.3389632890E-01
                       7.3389632890E-01  7.3389632890E-01  2.6610367110E-01
                       2.4462564854E-01  7.5537435146E-01  7.5537435146E-01
                       7.5537435146E-01  2.4462564854E-01  7.5537435146E-01
                       2.4462564854E-01  7.5537435146E-01  2.4462564854E-01
                       7.5537435146E-01  2.4462564854E-01  2.4462564854E-01
                      -1.7401549789E-21  1.6110007802E-21 -4.9942434437E-21
             xred3     2.5000000000E-01  2.5000000000E-01  2.5000000000E-01
                       7.5000000000E-01  7.5000000000E-01  7.5000000000E-01
                       2.6616935542E-01  2.6616935542E-01  7.3383064458E-01
                       7.3383064458E-01  7.3383064458E-01  2.6616935542E-01
                       2.4472748507E-01  7.5527251493E-01  7.5527251493E-01
                       7.5527251493E-01  2.4472748507E-01  7.5527251493E-01
                       2.4472748507E-01  7.5527251493E-01  2.4472748507E-01
                       7.5527251493E-01  2.4472748507E-01  2.4472748507E-01
                      -1.5710882446E-21  1.3272268125E-21 -5.0319398194E-21
             xred4     2.5000000000E-01  2.5000000000E-01  2.5000000000E-01
                       7.5000000000E-01  7.5000000000E-01  7.5000000000E-01
                       2.6624242483E-01  2.6624242483E-01  7.3375757517E-01
                       7.3375757517E-01  7.3375757517E-01  2.6624242483E-01
                       2.4481969402E-01  7.5518030598E-01  7.5518030598E-01
                       7.5518030598E-01  2.4481969402E-01  7.5518030598E-01
                       2.4481969402E-01  7.5518030598E-01  2.4481969402E-01
                       7.5518030598E-01  2.4481969402E-01  2.4481969402E-01
                      -1.8242697106E-21  1.9625498196E-21 -5.2358204218E-21
             xred5     2.5000000000E-01  2.5000000000E-01  2.5000000000E-01
                       7.5000000000E-01  7.5000000000E-01  7.5000000000E-01
                       2.6623657410E-01  2.6623657410E-01  7.3376342590E-01
                       7.3376342590E-01  7.3376342590E-01  2.6623657410E-01
                       2.4495227133E-01  7.5504772867E-01  7.5504772867E-01
                       7.5504772867E-01  2.4495227133E-01  7.5504772867E-01
                       2.4495227133E-01  7.5504772867E-01  2.4495227133E-01
                       7.5504772867E-01  2.4495227133E-01  2.4495227133E-01
                      -1.6304997546E-21  1.4931266508E-21 -5.0548434539E-21
             xred6     2.5000000000E-01  2.5000000000E-01  2.5000000000E-01
                       7.5000000000E-01  7.5000000000E-01  7.5000000000E-01
                       2.6627614347E-01  2.6627614347E-01  7.3372385653E-01
                       7.3372385653E-01  7.3372385653E-01  2.6627614347E-01
                       2.4506137970E-01  7.5493862030E-01  7.5493862030E-01
                       7.5493862030E-01  2.4506137970E-01  7.5493862030E-01
                       2.4506137970E-01  7.5493862030E-01  2.4506137970E-01
                       7.5493862030E-01  2.4506137970E-01  2.4506137970E-01
                      -1.6402822269E-21  1.5077814217E-21 -5.0572237581E-21
             xred7     2.5000000000E-01  2.5000000000E-01  2.5000000000E-01
                       7.5000000000E-01  7.5000000000E-01  7.5000000000E-01
                       2.6633299670E-01  2.6633299670E-01  7.3366700330E-01
                       7.3366700330E-01  7.3366700330E-01  2.6633299670E-01
                       2.4515596165E-01  7.5484403835E-01  7.5484403835E-01
                       7.5484403835E-01  2.4515596165E-01  7.5484403835E-01
                       2.4515596165E-01  7.5484403835E-01  2.4515596165E-01
                       7.5484403835E-01  2.4515596165E-01  2.4515596165E-01
                      -1.6514021364E-21  1.5814381100E-21 -5.1257927506E-21
             xred8     2.5000000000E-01  2.5000000000E-01  2.5000000000E-01
                       7.5000000000E-01  7.5000000000E-01  7.5000000000E-01
                       2.6639749236E-01  2.6639749236E-01  7.3360250764E-01
                       7.3360250764E-01  7.3360250764E-01  2.6639749236E-01
                       2.4524565137E-01  7.5475434863E-01  7.5475434863E-01
                       7.5475434863E-01  2.4524565137E-01  7.5475434863E-01
                       2.4524565137E-01  7.5475434863E-01  2.4524565137E-01
                       7.5475434863E-01  2.4524565137E-01  2.4524565137E-01
                      -1.6380696434E-21  1.4776733349E-21 -5.0241256355E-21
             xred9     2.5000000000E-01  2.5000000000E-01  2.5000000000E-01
                       7.5000000000E-01  7.5000000000E-01  7.5000000000E-01
                       2.6646531955E-01  2.6646531955E-01  7.3353468045E-01
                       7.3353468045E-01  7.3353468045E-01  2.6646531955E-01
                       2.4533991049E-01  7.5466008951E-01  7.5466008951E-01
                       7.5466008951E-01  2.4533991049E-01  7.5466008951E-01
                       2.4533991049E-01  7.5466008951E-01  2.4533991049E-01
                       7.5466008951E-01  2.4533991049E-01  2.4533991049E-01
                      -1.6402822269E-21  1.5077814217E-21 -5.0572237581E-21
             xred10    2.5000000000E-01  2.5000000000E-01  2.5000000000E-01
                       7.5000000000E-01  7.5000000000E-01  7.5000000000E-01
                       2.6653291875E-01  2.6653291875E-01  7.3346708125E-01
                       7.3346708125E-01  7.3346708125E-01  2.6653291875E-01
                       2.4543717516E-01  7.5456282484E-01  7.5456282484E-01
                       7.5456282484E-01  2.4543717516E-01  7.5456282484E-01
                       2.4543717516E-01  7.5456282484E-01  2.4543717516E-01
                       7.5456282484E-01  2.4543717516E-01  2.4543717516E-01
                      -1.6402822269E-21  1.5077814217E-21 -5.0572237581E-21
            znucl       55.00000   53.00000   40.00000   35.00000

================================================================================


- Timing analysis has been suppressed with timopt=0



================================================================================

 Suggested references for the acknowledgment of ABINIT usage.

 The users of ABINIT have little formal obligations with respect to the ABINIT group
 (those specified in the GNU General Public License, http://www.gnu.org/copyleft/gpl.txt).
 However, it is common practice in the scientific literature,
 to acknowledge the efforts of people that have made the research possible.
 In this spirit, please find below suggested citations of work written by ABINIT developers,
 corresponding to implementations inside of ABINIT that you have used in the present run.
 Note also that it will be of great value to readers of publications presenting these results,
 to read papers enabling them to understand the theoretical formalism and details
 of the ABINIT implementation.
 For information on why they are suggested, see also https://docs.abinit.org/theory/acknowledgments.
-
- [1] Implementation of the Projector Augmented-Wave Method in the ABINIT code.
- M. Torrent, F. Jollet, F. Bottin, G. Zerah, and X. Gonze Comput. Mat. Science 42, 337, (2008).
- Comment: PAW calculations. Strong suggestion to cite this paper.
- DOI and bibtex: see https://docs.abinit.org/theory/bibliography/#torrent2008
-
- [2] Libxc: A library of exchange and correlation functionals for density functional theory.
- M.A.L. Marques, M.J.T. Oliveira, T. Burnus, Computer Physics Communications 183, 2227 (2012).
- Comment: to be cited when LibXC is used (negative value of ixc)
- Strong suggestion to cite this paper.
- DOI and bibtex: see https://docs.abinit.org/theory/bibliography/#marques2012
-
- [3] The Abinit project: Impact, environment and recent developments.
- Computer Phys. Comm. 248, 107042 (2020).
- X.Gonze, B. Amadon, G. Antonius, F.Arnardi, L.Baguet, J.-M.Beuken,
- J.Bieder, F.Bottin, J.Bouchet, E.Bousquet, N.Brouwer, F.Bruneval,
- G.Brunin, T.Cavignac, J.-B. Charraud, Wei Chen, M.Cote, S.Cottenier,
- J.Denier, G.Geneste, Ph.Ghosez, M.Giantomassi, Y.Gillet, O.Gingras,
- D.R.Hamann, G.Hautier, Xu He, N.Helbig, N.Holzwarth, Y.Jia, F.Jollet,
- W.Lafargue-Dit-Hauret, K.Lejaeghere, M.A.L.Marques, A.Martin, C.Martins,
- H.P.C. Miranda, F.Naccarato, K. Persson, G.Petretto, V.Planes, Y.Pouillon,
- S.Prokhorenko, F.Ricci, G.-M.Rignanese, A.H.Romero, M.M.Schmitt, M.Torrent,
- M.J.van Setten, B.Van Troeye, M.J.Verstraete, G.Zerah and J.W.Zwanzig
- Comment: the fifth generic paper describing the ABINIT project.
- Note that a version of this paper, that is not formatted for Computer Phys. Comm. 
- is available at https://www.abinit.org/sites/default/files/ABINIT20.pdf .
- The licence allows the authors to put it on the Web.
- DOI and bibtex: see https://docs.abinit.org/theory/bibliography/#gonze2020
-
- [4] ABINIT: Overview, and focus on selected capabilities
- J. Chem. Phys. 152, 124102 (2020).
- A. Romero, D.C. Allan, B. Amadon, G. Antonius, T. Applencourt, L.Baguet,
- J.Bieder, F.Bottin, J.Bouchet, E.Bousquet, F.Bruneval,
- G.Brunin, D.Caliste, M.Cote,
- J.Denier, C. Dreyer, Ph.Ghosez, M.Giantomassi, Y.Gillet, O.Gingras,
- D.R.Hamann, G.Hautier, F.Jollet, G. Jomard,
- A.Martin, 
- H.P.C. Miranda, F.Naccarato, G.Petretto, N.A. Pike, V.Planes,
- S.Prokhorenko, T. Rangel, F.Ricci, G.-M.Rignanese, M.Royo, M.Stengel, M.Torrent,
- M.J.van Setten, B.Van Troeye, M.J.Verstraete, J.Wiktor, J.W.Zwanziger, and X.Gonze.
- Comment: a global overview of ABINIT, with focus on selected capabilities .
- Note that a version of this paper, that is not formatted for J. Chem. Phys 
- is available at https://www.abinit.org/sites/default/files/ABINIT20_JPC.pdf .
- The licence allows the authors to put it on the Web.
- DOI and bibtex: see https://docs.abinit.org/theory/bibliography/#romero2020
-
- [5] Recent developments in the ABINIT software package.
- Computer Phys. Comm. 205, 106 (2016).
- X.Gonze, F.Jollet, F.Abreu Araujo, D.Adams, B.Amadon, T.Applencourt,
- C.Audouze, J.-M.Beuken, J.Bieder, A.Bokhanchuk, E.Bousquet, F.Bruneval
- D.Caliste, M.Cote, F.Dahm, F.Da Pieve, M.Delaveau, M.Di Gennaro,
- B.Dorado, C.Espejo, G.Geneste, L.Genovese, A.Gerossier, M.Giantomassi,
- Y.Gillet, D.R.Hamann, L.He, G.Jomard, J.Laflamme Janssen, S.Le Roux,
- A.Levitt, A.Lherbier, F.Liu, I.Lukacevic, A.Martin, C.Martins,
- M.J.T.Oliveira, S.Ponce, Y.Pouillon, T.Rangel, G.-M.Rignanese,
- A.H.Romero, B.Rousseau, O.Rubel, A.A.Shukri, M.Stankovski, M.Torrent,
- M.J.Van Setten, B.Van Troeye, M.J.Verstraete, D.Waroquier, J.Wiktor,
- B.Xu, A.Zhou, J.W.Zwanziger.
- Comment: the fourth generic paper describing the ABINIT project.
- Note that a version of this paper, that is not formatted for Computer Phys. Comm. 
- is available at https://www.abinit.org/sites/default/files/ABINIT16.pdf .
- The licence allows the authors to put it on the Web.
- DOI and bibtex: see https://docs.abinit.org/theory/bibliography/#gonze2016
-
- Proc.   0 individual time (sec): cpu=      12681.6  wall=      12721.0

================================================================================

 Calculation completed.
.Delivered   0 WARNINGs and  68 COMMENTs to log file.
+Overall time at end (sec) : cpu=      76205.5  wall=      76325.9
