
.Version 9.2.2 of ABINIT 
.(MPI version, prepared for a x86_64_linux_gnu9.3 computer) 

.Copyright (C) 1998-2020 ABINIT group . 
 ABINIT comes with ABSOLUTELY NO WARRANTY.
 It is free software, and you are welcome to redistribute it
 under certain conditions (GNU General Public License,
 see ~abinit/COPYING or http://www.gnu.org/copyleft/gpl.txt).

 ABINIT is a project of the Universite Catholique de Louvain,
 Corning Inc. and other collaborators, see ~abinit/doc/developers/contributors.txt .
 Please read https://docs.abinit.org/theory/acknowledgments for suggested
 acknowledgments of the ABINIT effort.
 For more information, see https://www.abinit.org .

.Starting date : Wed 23 Nov 2022.
- ( at 17h41 )
  
- input  file    -> Cs2TiI6.in
- output file    -> Cs2TiI6.out
- root for input  files -> Cs2TiI6i
- root for output files -> Cs2TiI6o

- inpspheads : Reading pseudopotential header in XML form from 
-   ../../../Psps_for_tests/ATOMICDATA/Cs.GGA_PBE-JTH.xml
- inpspheads : Reading pseudopotential header in XML form from 
-   ../../../Psps_for_tests/ATOMICDATA/Br.GGA_PBE-JTH.xml
- inpspheads : Reading pseudopotential header in XML form from 
-   ../../../Psps_for_tests/ATOMICDATA/Zr.GGA_PBE-JTH.xml

 DATASET    1 : space group Fm -3 m (#225); Bravais cF (face-center cubic)
================================================================================
 Values of the parameters that define the memory need for DATASET  1.
     intxc =       0    ionmov =       0      iscf =      17    lmnmax =      18
     lnmax =       6     mgfft =      54  mpssoang =       3    mqgrid =    3455
     natom =       9  nloc_mem =       2    nspden =       1   nspinor =       1
    nsppol =       1      nsym =      48    n1xccc =       1    ntypat =       3
    occopt =       1   xclevel =       2
-    mband =          42        mffmem =           1         mkmem =          12
       mpw =        7150          nfft =      157464          nkpt =          72
Pmy_natom=         2
 PAW method is used; the additional fine FFT grid is defined by:
   mgfftf=        90    nfftf =    729000
================================================================================
P This job should need less than                     263.165 Mbytes of memory.
  Rough estimation (10% accuracy) of disk space for files :
_ WF disk file :    329.921 Mbytes ; DEN or POT disk file :      5.564 Mbytes.
================================================================================


 DATASET    2 : space group Fm -3 m (#225); Bravais cF (face-center cubic)
================================================================================
 Values of the parameters that define the memory need for DATASET  2.
     intxc =       0    ionmov =       0      iscf =      17    lmnmax =      18
     lnmax =       6     mgfft =      54  mpssoang =       3    mqgrid =    3420
     natom =       9  nloc_mem =       2    nspden =       1   nspinor =       1
    nsppol =       1      nsym =      48    n1xccc =       1    ntypat =       3
    occopt =       1   xclevel =       2
-    mband =          42        mffmem =           1         mkmem =          12
       mpw =        6903          nfft =      157464          nkpt =          72
Pmy_natom=         2
 PAW method is used; the additional fine FFT grid is defined by:
   mgfftf=        90    nfftf =    729000
================================================================================
P This job should need less than                     261.151 Mbytes of memory.
  Rough estimation (10% accuracy) of disk space for files :
_ WF disk file :    318.524 Mbytes ; DEN or POT disk file :      5.564 Mbytes.
================================================================================


 DATASET    3 : space group Fm -3 m (#225); Bravais cF (face-center cubic)
================================================================================
 Values of the parameters that define the memory need for DATASET  3.
     intxc =       0    ionmov =       0      iscf =      17    lmnmax =      18
     lnmax =       6     mgfft =      54  mpssoang =       3    mqgrid =    3385
     natom =       9  nloc_mem =       2    nspden =       1   nspinor =       1
    nsppol =       1      nsym =      48    n1xccc =       1    ntypat =       3
    occopt =       1   xclevel =       2
-    mband =          42        mffmem =           1         mkmem =          12
       mpw =        6701          nfft =      157464          nkpt =          72
Pmy_natom=         2
 PAW method is used; the additional fine FFT grid is defined by:
   mgfftf=        90    nfftf =    729000
================================================================================
P This job should need less than                     259.531 Mbytes of memory.
  Rough estimation (10% accuracy) of disk space for files :
_ WF disk file :    309.203 Mbytes ; DEN or POT disk file :      5.564 Mbytes.
================================================================================


 DATASET    4 : space group Fm -3 m (#225); Bravais cF (face-center cubic)
================================================================================
 Values of the parameters that define the memory need for DATASET  4.
     intxc =       0    ionmov =       0      iscf =      17    lmnmax =      18
     lnmax =       6     mgfft =      54  mpssoang =       3    mqgrid =    3350
     natom =       9  nloc_mem =       2    nspden =       1   nspinor =       1
    nsppol =       1      nsym =      48    n1xccc =       1    ntypat =       3
    occopt =       1   xclevel =       2
-    mband =          42        mffmem =           1         mkmem =          12
       mpw =        6500          nfft =      157464          nkpt =          72
Pmy_natom=         2
 PAW method is used; the additional fine FFT grid is defined by:
   mgfftf=        90    nfftf =    729000
================================================================================
P This job should need less than                     257.925 Mbytes of memory.
  Rough estimation (10% accuracy) of disk space for files :
_ WF disk file :    299.929 Mbytes ; DEN or POT disk file :      5.564 Mbytes.
================================================================================


 DATASET    5 : space group Fm -3 m (#225); Bravais cF (face-center cubic)
================================================================================
 Values of the parameters that define the memory need for DATASET  5.
     intxc =       0    ionmov =       0      iscf =      17    lmnmax =      18
     lnmax =       6     mgfft =      54  mpssoang =       3    mqgrid =    3316
     natom =       9  nloc_mem =       2    nspden =       1   nspinor =       1
    nsppol =       1      nsym =      48    n1xccc =       1    ntypat =       3
    occopt =       1   xclevel =       2
-    mband =          42        mffmem =           1         mkmem =          12
       mpw =        6295          nfft =      157464          nkpt =          72
Pmy_natom=         2
 PAW method is used; the additional fine FFT grid is defined by:
   mgfftf=        90    nfftf =    729000
================================================================================
P This job should need less than                     256.291 Mbytes of memory.
  Rough estimation (10% accuracy) of disk space for files :
_ WF disk file :    290.470 Mbytes ; DEN or POT disk file :      5.564 Mbytes.
================================================================================


 DATASET    6 : space group Fm -3 m (#225); Bravais cF (face-center cubic)
================================================================================
 Values of the parameters that define the memory need for DATASET  6.
     intxc =       0    ionmov =       0      iscf =      17    lmnmax =      18
     lnmax =       6     mgfft =      54  mpssoang =       3    mqgrid =    3281
     natom =       9  nloc_mem =       2    nspden =       1   nspinor =       1
    nsppol =       1      nsym =      48    n1xccc =       1    ntypat =       3
    occopt =       1   xclevel =       2
-    mband =          42        mffmem =           1         mkmem =          12
       mpw =        6106          nfft =      157464          nkpt =          72
Pmy_natom=         2
 PAW method is used; the additional fine FFT grid is defined by:
   mgfftf=        90    nfftf =    729000
================================================================================
P This job should need less than                     254.801 Mbytes of memory.
  Rough estimation (10% accuracy) of disk space for files :
_ WF disk file :    281.749 Mbytes ; DEN or POT disk file :      5.564 Mbytes.
================================================================================


 DATASET    7 : space group Fm -3 m (#225); Bravais cF (face-center cubic)
================================================================================
 Values of the parameters that define the memory need for DATASET  7.
     intxc =       0    ionmov =       0      iscf =      17    lmnmax =      18
     lnmax =       6     mgfft =      54  mpssoang =       3    mqgrid =    3246
     natom =       9  nloc_mem =       2    nspden =       1   nspinor =       1
    nsppol =       1      nsym =      48    n1xccc =       1    ntypat =       3
    occopt =       1   xclevel =       2
-    mband =          42        mffmem =           1         mkmem =          12
       mpw =        5908          nfft =      157464          nkpt =          72
Pmy_natom=         2
 PAW method is used; the additional fine FFT grid is defined by:
   mgfftf=        80    nfftf =    512000
================================================================================
P This job should need less than                     201.205 Mbytes of memory.
  Rough estimation (10% accuracy) of disk space for files :
_ WF disk file :    272.612 Mbytes ; DEN or POT disk file :      3.908 Mbytes.
================================================================================


 DATASET    8 : space group Fm -3 m (#225); Bravais cF (face-center cubic)
================================================================================
 Values of the parameters that define the memory need for DATASET  8.
     intxc =       0    ionmov =       0      iscf =      17    lmnmax =      18
     lnmax =       6     mgfft =      50  mpssoang =       3    mqgrid =    3211
     natom =       9  nloc_mem =       2    nspden =       1   nspinor =       1
    nsppol =       1      nsym =      48    n1xccc =       1    ntypat =       3
    occopt =       1   xclevel =       2
-    mband =          42        mffmem =           1         mkmem =          12
       mpw =        5742          nfft =      125000          nkpt =          72
Pmy_natom=         2
 PAW method is used; the additional fine FFT grid is defined by:
   mgfftf=        80    nfftf =    512000
================================================================================
P This job should need less than                     195.045 Mbytes of memory.
  Rough estimation (10% accuracy) of disk space for files :
_ WF disk file :    264.953 Mbytes ; DEN or POT disk file :      3.908 Mbytes.
================================================================================


 DATASET    9 : space group Fm -3 m (#225); Bravais cF (face-center cubic)
================================================================================
 Values of the parameters that define the memory need for DATASET  9.
     intxc =       0    ionmov =       0      iscf =      17    lmnmax =      18
     lnmax =       6     mgfft =      50  mpssoang =       3    mqgrid =    3176
     natom =       9  nloc_mem =       2    nspden =       1   nspinor =       1
    nsppol =       1      nsym =      48    n1xccc =       1    ntypat =       3
    occopt =       1   xclevel =       2
-    mband =          42        mffmem =           1         mkmem =          12
       mpw =        5540          nfft =      125000          nkpt =          72
Pmy_natom=         2
 PAW method is used; the additional fine FFT grid is defined by:
   mgfftf=        80    nfftf =    512000
================================================================================
P This job should need less than                     193.413 Mbytes of memory.
  Rough estimation (10% accuracy) of disk space for files :
_ WF disk file :    255.632 Mbytes ; DEN or POT disk file :      3.908 Mbytes.
================================================================================


 DATASET   10 : space group Fm -3 m (#225); Bravais cF (face-center cubic)
================================================================================
 Values of the parameters that define the memory need for DATASET 10.
     intxc =       0    ionmov =       0      iscf =      17    lmnmax =      18
     lnmax =       6     mgfft =      50  mpssoang =       3    mqgrid =    3141
     natom =       9  nloc_mem =       2    nspden =       1   nspinor =       1
    nsppol =       1      nsym =      48    n1xccc =       1    ntypat =       3
    occopt =       1   xclevel =       2
-    mband =          42        mffmem =           1         mkmem =          12
       mpw =        5365          nfft =      125000          nkpt =          72
Pmy_natom=         2
 PAW method is used; the additional fine FFT grid is defined by:
   mgfftf=        80    nfftf =    512000
================================================================================
P This job should need less than                     192.019 Mbytes of memory.
  Rough estimation (10% accuracy) of disk space for files :
_ WF disk file :    247.557 Mbytes ; DEN or POT disk file :      3.908 Mbytes.
================================================================================

--------------------------------------------------------------------------------
------------- Echo of variables that govern the present computation ------------
--------------------------------------------------------------------------------
-
- outvars: echo of selected default values                                      
-   iomode0 =  0 , fftalg0 =112 , wfoptalg0 = 10
-
- outvars: echo of global parameters not present in the input file              
-  max_nthreads =    0
-
 -outvars: echo values of preprocessed input variables --------
            acell1     1.4860963470E+01  1.4860963470E+01  1.4860963470E+01 Bohr
            acell2     1.4710852728E+01  1.4710852728E+01  1.4710852728E+01 Bohr
            acell3     1.4560741986E+01  1.4560741986E+01  1.4560741986E+01 Bohr
            acell4     1.4410631244E+01  1.4410631244E+01  1.4410631244E+01 Bohr
            acell5     1.4260520501E+01  1.4260520501E+01  1.4260520501E+01 Bohr
            acell6     1.4110409759E+01  1.4110409759E+01  1.4110409759E+01 Bohr
            acell7     1.3960299017E+01  1.3960299017E+01  1.3960299017E+01 Bohr
            acell8     1.3810188275E+01  1.3810188275E+01  1.3810188275E+01 Bohr
            acell9     1.3660077533E+01  1.3660077533E+01  1.3660077533E+01 Bohr
            acell10    1.3509966791E+01  1.3509966791E+01  1.3509966791E+01 Bohr
              amu      1.32905430E+02  7.99040000E+01  9.12240000E+01
           diemac      1.20000000E+01
             ecut      1.60000000E+01 Hartree
-          fftalg         112
           istwfk        2    0    0    0    0    0    3    0    0    0
                         0    0    0    0    0    0    0    0    0    0
                         0    0    0    0    0    0    0    0    0    0
                         0    0    0    0    0    0    0    0    0    0
                         0    0    7    0    0    0    0    0    0    0
                       outvar_i_n : Printing only first  50 k-points.
              ixc     -101130
           jdtset        1    2    3    4    5    6    7    8    9   10
              kpt      0.00000000E+00  0.00000000E+00  0.00000000E+00
                       8.33333333E-02  0.00000000E+00  0.00000000E+00
                       1.66666667E-01  0.00000000E+00  0.00000000E+00
                       2.50000000E-01  0.00000000E+00  0.00000000E+00
                       3.33333333E-01  0.00000000E+00  0.00000000E+00
                       4.16666667E-01  0.00000000E+00  0.00000000E+00
                       5.00000000E-01  0.00000000E+00  0.00000000E+00
                       8.33333333E-02  8.33333333E-02  0.00000000E+00
                       1.66666667E-01  8.33333333E-02  0.00000000E+00
                       2.50000000E-01  8.33333333E-02  0.00000000E+00
                       3.33333333E-01  8.33333333E-02  0.00000000E+00
                       4.16666667E-01  8.33333333E-02  0.00000000E+00
                       5.00000000E-01  8.33333333E-02  0.00000000E+00
                      -4.16666667E-01  8.33333333E-02  0.00000000E+00
                      -3.33333333E-01  8.33333333E-02  0.00000000E+00
                      -2.50000000E-01  8.33333333E-02  0.00000000E+00
                      -1.66666667E-01  8.33333333E-02  0.00000000E+00
                      -8.33333333E-02  8.33333333E-02  0.00000000E+00
                       1.66666667E-01  1.66666667E-01  0.00000000E+00
                       2.50000000E-01  1.66666667E-01  0.00000000E+00
                       3.33333333E-01  1.66666667E-01  0.00000000E+00
                       4.16666667E-01  1.66666667E-01  0.00000000E+00
                       5.00000000E-01  1.66666667E-01  0.00000000E+00
                      -4.16666667E-01  1.66666667E-01  0.00000000E+00
                      -3.33333333E-01  1.66666667E-01  0.00000000E+00
                      -2.50000000E-01  1.66666667E-01  0.00000000E+00
                      -1.66666667E-01  1.66666667E-01  0.00000000E+00
                       2.50000000E-01  2.50000000E-01  0.00000000E+00
                       3.33333333E-01  2.50000000E-01  0.00000000E+00
                       4.16666667E-01  2.50000000E-01  0.00000000E+00
                       5.00000000E-01  2.50000000E-01  0.00000000E+00
                      -4.16666667E-01  2.50000000E-01  0.00000000E+00
                      -3.33333333E-01  2.50000000E-01  0.00000000E+00
                      -2.50000000E-01  2.50000000E-01  0.00000000E+00
                       3.33333333E-01  3.33333333E-01  0.00000000E+00
                       4.16666667E-01  3.33333333E-01  0.00000000E+00
                       5.00000000E-01  3.33333333E-01  0.00000000E+00
                      -4.16666667E-01  3.33333333E-01  0.00000000E+00
                      -3.33333333E-01  3.33333333E-01  0.00000000E+00
                       4.16666667E-01  4.16666667E-01  0.00000000E+00
                       5.00000000E-01  4.16666667E-01  0.00000000E+00
                      -4.16666667E-01  4.16666667E-01  0.00000000E+00
                       5.00000000E-01  5.00000000E-01  0.00000000E+00
                       2.50000000E-01  1.66666667E-01  8.33333333E-02
                       3.33333333E-01  1.66666667E-01  8.33333333E-02
                       4.16666667E-01  1.66666667E-01  8.33333333E-02
                       5.00000000E-01  1.66666667E-01  8.33333333E-02
                      -4.16666667E-01  1.66666667E-01  8.33333333E-02
                       3.33333333E-01  2.50000000E-01  8.33333333E-02
                       4.16666667E-01  2.50000000E-01  8.33333333E-02
                       outvar_i_n : Printing only first  50 k-points.
         kptrlatt       12    0    0      0   12    0      0    0   12
          kptrlen1     1.78331562E+02
          kptrlen2     1.76530233E+02
          kptrlen3     1.74728904E+02
          kptrlen4     1.72927575E+02
          kptrlen5     1.71126246E+02
          kptrlen6     1.69324917E+02
          kptrlen7     1.67523588E+02
          kptrlen8     1.65722259E+02
          kptrlen9     1.63920930E+02
          kptrlen10    1.62119601E+02
P           mkmem          12
            natom           9
            nband          42
           ndtset          10
            ngfft1         54      54      54
            ngfft2         54      54      54
            ngfft3         54      54      54
            ngfft4         54      54      54
            ngfft5         54      54      54
            ngfft6         54      54      54
            ngfft7         54      54      54
            ngfft8         50      50      50
            ngfft9         50      50      50
            ngfft10        50      50      50
          ngfftdg1         90      90      90
          ngfftdg2         90      90      90
          ngfftdg3         90      90      90
          ngfftdg4         90      90      90
          ngfftdg5         90      90      90
          ngfftdg6         90      90      90
          ngfftdg7         80      80      80
          ngfftdg8         80      80      80
          ngfftdg9         80      80      80
          ngfftdg10        80      80      80
             nkpt          72
            nstep        2500
             nsym          48
           ntypat           3
              occ      2.000000  2.000000  2.000000  2.000000  2.000000  2.000000
                       2.000000  2.000000  2.000000  2.000000  2.000000  2.000000
                       2.000000  2.000000  2.000000  2.000000  2.000000  2.000000
                       2.000000  2.000000  2.000000  2.000000  2.000000  2.000000
                       2.000000  2.000000  2.000000  2.000000  2.000000  2.000000
                       2.000000  2.000000  2.000000  2.000000  2.000000  2.000000
                       0.000000  0.000000  0.000000  0.000000  0.000000  0.000000
        pawecutdg      4.00000000E+01 Hartree
            prtwf           0
            rprim      0.0000000000E+00  7.0710678119E-01  7.0710678119E-01
                       7.0710678119E-01  0.0000000000E+00  7.0710678119E-01
                       7.0710678119E-01  7.0710678119E-01  0.0000000000E+00
          spgroup         225
           symrel      1  0  0   0  1  0   0  0  1      -1  0  0   0 -1  0   0  0 -1
                       0 -1  1   0 -1  0   1 -1  0       0  1 -1   0  1  0  -1  1  0
                      -1  0  0  -1  0  1  -1  1  0       1  0  0   1  0 -1   1 -1  0
                       0  1 -1   1  0 -1   0  0 -1       0 -1  1  -1  0  1   0  0  1
                      -1  0  0  -1  1  0  -1  0  1       1  0  0   1 -1  0   1  0 -1
                       0 -1  1   1 -1  0   0 -1  0       0  1 -1  -1  1  0   0  1  0
                       1  0  0   0  0  1   0  1  0      -1  0  0   0  0 -1   0 -1  0
                       0  1 -1   0  0 -1   1  0 -1       0 -1  1   0  0  1  -1  0  1
                      -1  0  1  -1  1  0  -1  0  0       1  0 -1   1 -1  0   1  0  0
                       0 -1  0   1 -1  0   0 -1  1       0  1  0  -1  1  0   0  1 -1
                       1  0 -1   0  0 -1   0  1 -1      -1  0  1   0  0  1   0 -1  1
                       0  1  0   0  0  1   1  0  0       0 -1  0   0  0 -1  -1  0  0
                       1  0 -1   0  1 -1   0  0 -1      -1  0  1   0 -1  1   0  0  1
                       0 -1  0   0 -1  1   1 -1  0       0  1  0   0  1 -1  -1  1  0
                      -1  0  1  -1  0  0  -1  1  0       1  0 -1   1  0  0   1 -1  0
                       0  1  0   1  0  0   0  0  1       0 -1  0  -1  0  0   0  0 -1
                       0  0 -1   0  1 -1   1  0 -1       0  0  1   0 -1  1  -1  0  1
                       1 -1  0   0 -1  1   0 -1  0      -1  1  0   0  1 -1   0  1  0
                       0  0  1   1  0  0   0  1  0       0  0 -1  -1  0  0   0 -1  0
                      -1  1  0  -1  0  0  -1  0  1       1 -1  0   1  0  0   1  0 -1
                       0  0  1   0  1  0   1  0  0       0  0 -1   0 -1  0  -1  0  0
                       1 -1  0   0 -1  0   0 -1  1      -1  1  0   0  1  0   0  1 -1
                       0  0 -1   1  0 -1   0  1 -1       0  0  1  -1  0  1   0 -1  1
                      -1  1  0  -1  0  1  -1  0  0       1 -1  0   1  0 -1   1  0  0
           toldfe      1.00000000E-08 Hartree
            typat      1  1  2  2  2  2  2  2  3
           useylm           1
              wtk        0.00058    0.00463    0.00463    0.00463    0.00463    0.00463
                         0.00231    0.00347    0.01389    0.01389    0.01389    0.01389
                         0.01389    0.01389    0.01389    0.01389    0.01389    0.00694
                         0.00347    0.01389    0.01389    0.01389    0.01389    0.01389
                         0.01389    0.01389    0.00694    0.00347    0.01389    0.01389
                         0.01389    0.01389    0.01389    0.00694    0.00347    0.01389
                         0.01389    0.01389    0.00694    0.00347    0.01389    0.00694
                         0.00174    0.01389    0.02778    0.02778    0.02778    0.01389
                         0.01389    0.02778
                       outvars : Printing only first  50 k-points.
           xangst1     2.7803732673E+00  2.7803732673E+00  2.7803732673E+00
                       8.3411198018E+00  8.3411198018E+00  8.3411198018E+00
                       5.5607465345E+00  5.5607465345E+00  2.6453690110E+00
                       5.5607465345E+00  5.5607465345E+00  8.4761240580E+00
                       8.4761240580E+00  5.5607465345E+00  5.5607465345E+00
                       5.5607465345E+00  8.4761240580E+00  5.5607465345E+00
                       5.5607465345E+00  2.6453690110E+00  5.5607465345E+00
                       2.6453690110E+00  5.5607465345E+00  5.5607465345E+00
                       5.2162468993E-20  4.0618652631E-20 -5.6324452544E-20
           xangst2     2.7522886888E+00  2.7522886888E+00  2.7522886888E+00
                       8.2568660665E+00  8.2568660665E+00  8.2568660665E+00
                       5.5045773777E+00  5.5045773777E+00  2.6424071930E+00
                       5.5045773777E+00  5.5045773777E+00  8.3667475623E+00
                       8.3667475623E+00  5.5045773777E+00  5.5045773777E+00
                       5.5045773777E+00  8.3667475623E+00  5.5045773777E+00
                       5.5045773777E+00  2.6424071930E+00  5.5045773777E+00
                       2.6424071930E+00  5.5045773777E+00  5.5045773777E+00
                       1.0175807100E-18  1.3741713536E-18 -1.6722380574E-18
           xangst3     2.7242041104E+00  2.7242041104E+00  2.7242041104E+00
                       8.1726123312E+00  8.1726123312E+00  8.1726123312E+00
                       5.4484082208E+00  5.4484082208E+00  2.6385605900E+00
                       5.4484082208E+00  5.4484082208E+00  8.2582558516E+00
                       8.2582558516E+00  5.4484082208E+00  5.4484082208E+00
                       5.4484082208E+00  8.2582558516E+00  5.4484082208E+00
                       5.4484082208E+00  2.6385605900E+00  5.4484082208E+00
                       2.6385605900E+00  5.4484082208E+00  5.4484082208E+00
                       1.8679573582E-18  4.5535672196E-19 -9.1760963067E-19
           xangst4     2.6961195320E+00  2.6961195320E+00  2.6961195320E+00
                       8.0883585959E+00  8.0883585959E+00  8.0883585959E+00
                       5.3922390639E+00  5.3922390639E+00  2.6343115766E+00
                       5.3922390639E+00  5.3922390639E+00  8.1501665512E+00
                       8.1501665512E+00  5.3922390639E+00  5.3922390639E+00
                       5.3922390639E+00  8.1501665512E+00  5.3922390639E+00
                       5.3922390639E+00  2.6343115766E+00  5.3922390639E+00
                       2.6343115766E+00  5.3922390639E+00  5.3922390639E+00
                      -1.1500457992E-20  2.2405246475E-20 -2.0650585890E-20
           xangst5     2.6680349533E+00  2.6680349533E+00  2.6680349533E+00
                       8.0041048600E+00  8.0041048600E+00  8.0041048600E+00
                       5.3360699067E+00  5.3360699067E+00  2.6293451677E+00
                       5.3360699067E+00  5.3360699067E+00  8.0427946456E+00
                       8.0427946456E+00  5.3360699067E+00  5.3360699067E+00
                       5.3360699067E+00  8.0427946456E+00  5.3360699067E+00
                       5.3360699067E+00  2.6293451677E+00  5.3360699067E+00
                       2.6293451677E+00  5.3360699067E+00  5.3360699067E+00
                      -1.6031814916E-19 -5.9225798882E-20 -1.7708364705E-19
           xangst6     2.6399503749E+00  2.6399503749E+00  2.6399503749E+00
                       7.9198511247E+00  7.9198511247E+00  7.9198511247E+00
                       5.2799007498E+00  5.2799007498E+00  2.6231505943E+00
                       5.2799007498E+00  5.2799007498E+00  7.9366509053E+00
                       7.9366509053E+00  5.2799007498E+00  5.2799007498E+00
                       5.2799007498E+00  7.9366509053E+00  5.2799007498E+00
                       5.2799007498E+00  2.6231505943E+00  5.2799007498E+00
                       2.6231505943E+00  5.2799007498E+00  5.2799007498E+00
                       4.6483728675E-20  3.9498776790E-20 -5.9408811443E-20
           xangst7     2.6118657965E+00  2.6118657965E+00  2.6118657965E+00
                       7.8355973894E+00  7.8355973894E+00  7.8355973894E+00
                       5.2237315929E+00  5.2237315929E+00  2.6161860161E+00
                       5.2237315929E+00  5.2237315929E+00  7.8312771698E+00
                       7.8312771698E+00  5.2237315929E+00  5.2237315929E+00
                       5.2237315929E+00  7.8312771698E+00  5.2237315929E+00
                       5.2237315929E+00  2.6161860161E+00  5.2237315929E+00
                       2.6161860161E+00  5.2237315929E+00  5.2237315929E+00
                       4.9001107234E-20  3.8156916107E-20 -5.2910849359E-20
           xangst8     2.5837812180E+00  2.5837812180E+00  2.5837812180E+00
                       7.7513436541E+00  7.7513436541E+00  7.7513436541E+00
                       5.1675624361E+00  5.1675624361E+00  2.6082247699E+00
                       5.1675624361E+00  5.1675624361E+00  7.7269001023E+00
                       7.7269001023E+00  5.1675624361E+00  5.1675624361E+00
                       5.1675624361E+00  7.7269001023E+00  5.1675624361E+00
                       5.1675624361E+00  2.6082247699E+00  5.1675624361E+00
                       2.6082247699E+00  5.1675624361E+00  5.1675624361E+00
                       4.8474213609E-20  3.7746626687E-20 -5.2341915495E-20
           xangst9     2.5556966396E+00  2.5556966396E+00  2.5556966396E+00
                       7.6670899188E+00  7.6670899188E+00  7.6670899188E+00
                       5.1113932792E+00  5.1113932792E+00  2.5987961580E+00
                       5.1113932792E+00  5.1113932792E+00  7.6239904004E+00
                       7.6239904004E+00  5.1113932792E+00  5.1113932792E+00
                       5.1113932792E+00  7.6239904004E+00  5.1113932792E+00
                       5.1113932792E+00  2.5987961580E+00  5.1113932792E+00
                       2.5987961580E+00  5.1113932792E+00  5.1113932792E+00
                       7.4962979562E-20 -4.2977831643E-19 -1.2535746566E-19
           xangst10    2.5276120612E+00  2.5276120612E+00  2.5276120612E+00
                       7.5828361835E+00  7.5828361835E+00  7.5828361835E+00
                       5.0552241223E+00  5.0552241223E+00  2.5885093875E+00
                       5.0552241223E+00  5.0552241223E+00  7.5219388571E+00
                       7.5219388571E+00  5.0552241223E+00  5.0552241223E+00
                       5.0552241223E+00  7.5219388571E+00  5.0552241223E+00
                       5.0552241223E+00  2.5885093875E+00  5.0552241223E+00
                       2.5885093875E+00  5.0552241223E+00  5.0552241223E+00
                       4.6431498882E-20  4.5493296262E-20 -5.0878860990E-20
            xcart1     5.2541440223E+00  5.2541440223E+00  5.2541440223E+00
                       1.5762432067E+01  1.5762432067E+01  1.5762432067E+01
                       1.0508288045E+01  1.0508288045E+01  4.9990229513E+00
                       1.0508288045E+01  1.0508288045E+01  1.6017553138E+01
                       1.6017553138E+01  1.0508288045E+01  1.0508288045E+01
                       1.0508288045E+01  1.6017553138E+01  1.0508288045E+01
                       1.0508288045E+01  4.9990229513E+00  1.0508288045E+01
                       4.9990229513E+00  1.0508288045E+01  1.0508288045E+01
                       9.8572780811E-20  7.6758129360E-20 -1.0643778989E-19
            xcart2     5.2010718605E+00  5.2010718605E+00  5.2010718605E+00
                       1.5603215582E+01  1.5603215582E+01  1.5603215582E+01
                       1.0402143721E+01  1.0402143721E+01  4.9934259263E+00
                       1.0402143721E+01  1.0402143721E+01  1.5810861516E+01
                       1.5810861516E+01  1.0402143721E+01  1.0402143721E+01
                       1.0402143721E+01  1.5810861516E+01  1.0402143721E+01
                       1.0402143721E+01  4.9934259263E+00  1.0402143721E+01
                       4.9934259263E+00  1.0402143721E+01  1.0402143721E+01
                       1.9229488601E-18  2.5968075180E-18 -3.1600719576E-18
            xcart3     5.1479996987E+00  5.1479996987E+00  5.1479996987E+00
                       1.5443999096E+01  1.5443999096E+01  1.5443999096E+01
                       1.0295999397E+01  1.0295999397E+01  4.9861569001E+00
                       1.0295999397E+01  1.0295999397E+01  1.5605841895E+01
                       1.5605841895E+01  1.0295999397E+01  1.0295999397E+01
                       1.0295999397E+01  1.5605841895E+01  1.0295999397E+01
                       1.0295999397E+01  4.9861569001E+00  1.0295999397E+01
                       4.9861569001E+00  1.0295999397E+01  1.0295999397E+01
                       3.5299278349E-18  8.6049949728E-19 -1.7340308989E-18
            xcart4     5.0949275369E+00  5.0949275369E+00  5.0949275369E+00
                       1.5284782611E+01  1.5284782611E+01  1.5284782611E+01
                       1.0189855074E+01  1.0189855074E+01  4.9781274285E+00
                       1.0189855074E+01  1.0189855074E+01  1.5401582719E+01
                       1.5401582719E+01  1.0189855074E+01  1.0189855074E+01
                       1.0189855074E+01  1.5401582719E+01  1.0189855074E+01
                       1.0189855074E+01  4.9781274285E+00  1.0189855074E+01
                       4.9781274285E+00  1.0189855074E+01  1.0189855074E+01
                      -2.1732716008E-20  4.2339779778E-20 -3.9023951816E-20
            xcart5     5.0418553748E+00  5.0418553748E+00  5.0418553748E+00
                       1.5125566124E+01  1.5125566124E+01  1.5125566124E+01
                       1.0083710750E+01  1.0083710750E+01  4.9687422758E+00
                       1.0083710750E+01  1.0083710750E+01  1.5198679223E+01
                       1.5198679223E+01  1.0083710750E+01  1.0083710750E+01
                       1.0083710750E+01  1.5198679223E+01  1.0083710750E+01
                       1.0083710750E+01  4.9687422758E+00  1.0083710750E+01
                       4.9687422758E+00  1.0083710750E+01  1.0083710750E+01
                      -3.0295739605E-19 -1.1192053989E-19 -3.3463959554E-19
            xcart6     4.9887832130E+00  4.9887832130E+00  4.9887832130E+00
                       1.4966349639E+01  1.4966349639E+01  1.4966349639E+01
                       9.9775664260E+00  9.9775664260E+00  4.9570362285E+00
                       9.9775664260E+00  9.9775664260E+00  1.4998096623E+01
                       1.4998096623E+01  9.9775664260E+00  9.9775664260E+00
                       9.9775664260E+00  1.4998096623E+01  9.9775664260E+00
                       9.9775664260E+00  4.9570362285E+00  9.9775664260E+00
                       4.9570362285E+00  9.9775664260E+00  9.9775664260E+00
                       8.7841516832E-20  7.4641870717E-20 -1.1226638351E-19
            xcart7     4.9357110512E+00  4.9357110512E+00  4.9357110512E+00
                       1.4807133154E+01  1.4807133154E+01  1.4807133154E+01
                       9.8714221024E+00  9.8714221024E+00  4.9438750831E+00
                       9.8714221024E+00  9.8714221024E+00  1.4798969122E+01
                       1.4798969122E+01  9.8714221024E+00  9.8714221024E+00
                       9.8714221024E+00  1.4798969122E+01  9.8714221024E+00
                       9.8714221024E+00  4.9438750831E+00  9.8714221024E+00
                       4.9438750831E+00  9.8714221024E+00  9.8714221024E+00
                       9.2598672881E-20  7.2106121519E-20 -9.9987014746E-20
            xcart8     4.8826388894E+00  4.8826388894E+00  4.8826388894E+00
                       1.4647916668E+01  1.4647916668E+01  1.4647916668E+01
                       9.7652777788E+00  9.7652777788E+00  4.9288305081E+00
                       9.7652777788E+00  9.7652777788E+00  1.4601725049E+01
                       1.4601725049E+01  9.7652777788E+00  9.7652777788E+00
                       9.7652777788E+00  1.4601725049E+01  9.7652777788E+00
                       9.7652777788E+00  4.9288305081E+00  9.7652777788E+00
                       4.9288305081E+00  9.7652777788E+00  9.7652777788E+00
                       9.1602988227E-20  7.1330786879E-20 -9.8911885556E-20
            xcart9     4.8295667276E+00  4.8295667276E+00  4.8295667276E+00
                       1.4488700183E+01  1.4488700183E+01  1.4488700183E+01
                       9.6591334552E+00  9.6591334552E+00  4.9110130138E+00
                       9.6591334552E+00  9.6591334552E+00  1.4407253897E+01
                       1.4407253897E+01  9.6591334552E+00  9.6591334552E+00
                       9.6591334552E+00  1.4407253897E+01  9.6591334552E+00
                       9.6591334552E+00  4.9110130138E+00  9.6591334552E+00
                       4.9110130138E+00  9.6591334552E+00  9.6591334552E+00
                       1.4165950148E-19 -8.1216331591E-19 -2.3689127881E-19
            xcart10    4.7764945658E+00  4.7764945658E+00  4.7764945658E+00
                       1.4329483697E+01  1.4329483697E+01  1.4329483697E+01
                       9.5529891316E+00  9.5529891316E+00  4.8915738349E+00
                       9.5529891316E+00  9.5529891316E+00  1.4214404428E+01
                       1.4214404428E+01  9.5529891316E+00  9.5529891316E+00
                       9.5529891316E+00  1.4214404428E+01  9.5529891316E+00
                       9.5529891316E+00  4.8915738349E+00  9.5529891316E+00
                       4.8915738349E+00  9.5529891316E+00  9.5529891316E+00
                       8.7742816826E-20  8.5969870818E-20 -9.6147113225E-20
             xred1     2.5000000000E-01  2.5000000000E-01  2.5000000000E-01
                       7.5000000000E-01  7.5000000000E-01  7.5000000000E-01
                       2.3786095937E-01  2.3786095937E-01  7.6213904063E-01
                       7.6213904063E-01  7.6213904063E-01  2.3786095937E-01
                       2.3786095937E-01  7.6213904063E-01  7.6213904063E-01
                       7.6213904063E-01  2.3786095937E-01  7.6213904063E-01
                       2.3786095937E-01  7.6213904063E-01  2.3786095937E-01
                       7.6213904063E-01  2.3786095937E-01  2.3786095937E-01
                      -6.1024422246E-21 -4.0264949953E-21  1.3406974517E-20
             xred2     2.5000000000E-01  2.5000000000E-01  2.5000000000E-01
                       7.5000000000E-01  7.5000000000E-01  7.5000000000E-01
                       2.4001907973E-01  2.4001907973E-01  7.5998092027E-01
                       7.5998092027E-01  7.5998092027E-01  2.4001907973E-01
                       2.4001907973E-01  7.5998092027E-01  7.5998092027E-01
                       7.5998092027E-01  2.4001907973E-01  7.5998092027E-01
                       2.4001907973E-01  7.5998092027E-01  2.4001907973E-01
                       7.5998092027E-01  2.4001907973E-01  2.4001907973E-01
                      -1.1950485238E-19 -1.8428560104E-19  3.6914642508E-19
             xred3     2.5000000000E-01  2.5000000000E-01  2.5000000000E-01
                       7.5000000000E-01  7.5000000000E-01  7.5000000000E-01
                       2.4214050077E-01  2.4214050077E-01  7.5785949923E-01
                       7.5785949923E-01  7.5785949923E-01  2.4214050077E-01
                       2.4214050077E-01  7.5785949923E-01  7.5785949923E-01
                       7.5785949923E-01  2.4214050077E-01  7.5785949923E-01
                       2.4214050077E-01  7.5785949923E-01  2.4214050077E-01
                       7.5785949923E-01  2.4214050077E-01  2.4214050077E-01
                      -2.1384321553E-19  4.5425286203E-20  2.9741931767E-19
             xred4     2.5000000000E-01  2.5000000000E-01  2.5000000000E-01
                       7.5000000000E-01  7.5000000000E-01  7.5000000000E-01
                       2.4426880424E-01  2.4426880424E-01  7.5573119576E-01
                       7.5573119576E-01  7.5573119576E-01  2.4426880424E-01
                       2.4426880424E-01  7.5573119576E-01  7.5573119576E-01
                       7.5573119576E-01  2.4426880424E-01  7.5573119576E-01
                       2.4426880424E-01  7.5573119576E-01  2.4426880424E-01
                       7.5573119576E-01  2.4426880424E-01  2.4426880424E-01
                       1.2290922583E-21 -5.0587788960E-21  2.9259991999E-21
             xred5     2.5000000000E-01  2.5000000000E-01  2.5000000000E-01
                       7.5000000000E-01  7.5000000000E-01  7.5000000000E-01
                       2.4637469277E-01  2.4637469277E-01  7.5362530723E-01
                       7.5362530723E-01  7.5362530723E-01  2.4637469277E-01
                       2.4637469277E-01  7.5362530723E-01  7.5362530723E-01
                       7.5362530723E-01  2.4637469277E-01  7.5362530723E-01
                       2.4637469277E-01  7.5362530723E-01  2.4637469277E-01
                       7.5362530723E-01  2.4637469277E-01  2.4637469277E-01
                      -7.1205304749E-21 -2.6065625282E-20 -3.9786117624E-21
             xred6     2.5000000000E-01  2.5000000000E-01  2.5000000000E-01
                       7.5000000000E-01  7.5000000000E-01  7.5000000000E-01
                       2.4840908178E-01  2.4840908178E-01  7.5159091822E-01
                       7.5159091822E-01  7.5159091822E-01  2.4840908178E-01
                       2.4840908178E-01  7.5159091822E-01  7.5159091822E-01
                       7.5159091822E-01  2.4840908178E-01  7.5159091822E-01
                       2.4840908178E-01  7.5159091822E-01  2.4840908178E-01
                       7.5159091822E-01  2.4840908178E-01  2.4840908178E-01
                      -6.2874063808E-21 -4.9644739591E-21  1.3768375941E-20
             xred7     2.5000000000E-01  2.5000000000E-01  2.5000000000E-01
                       7.5000000000E-01  7.5000000000E-01  7.5000000000E-01
                       2.5041351853E-01  2.5041351853E-01  7.4958648147E-01
                       7.4958648147E-01  7.4958648147E-01  2.5041351853E-01
                       2.5041351853E-01  7.4958648147E-01  7.4958648147E-01
                       7.4958648147E-01  2.5041351853E-01  7.4958648147E-01
                       2.5041351853E-01  7.4958648147E-01  2.5041351853E-01
                       7.4958648147E-01  2.5041351853E-01  2.5041351853E-01
                      -6.1024422246E-21 -4.0264949953E-21  1.3406974517E-20
             xred8     2.5000000000E-01  2.5000000000E-01  2.5000000000E-01
                       7.5000000000E-01  7.5000000000E-01  7.5000000000E-01
                       2.5236509497E-01  2.5236509497E-01  7.4763490503E-01
                       7.4763490503E-01  7.4763490503E-01  2.5236509497E-01
                       2.5236509497E-01  7.4763490503E-01  7.4763490503E-01
                       7.4763490503E-01  2.5236509497E-01  7.4763490503E-01
                       2.5236509497E-01  7.4763490503E-01  2.5236509497E-01
                       7.4763490503E-01  2.5236509497E-01  2.5236509497E-01
                      -6.1024422246E-21 -4.0264949953E-21  1.3406974517E-20
             xred9     2.5000000000E-01  2.5000000000E-01  2.5000000000E-01
                       7.5000000000E-01  7.5000000000E-01  7.5000000000E-01
                       2.5421602448E-01  2.5421602448E-01  7.4578397552E-01
                       7.4578397552E-01  7.4578397552E-01  2.5421602448E-01
                       2.5421602448E-01  7.4578397552E-01  7.4578397552E-01
                       7.4578397552E-01  2.5421602448E-01  7.4578397552E-01
                       2.5421602448E-01  7.4578397552E-01  2.5421602448E-01
                       7.4578397552E-01  2.5421602448E-01  2.5421602448E-01
                      -6.1636693484E-20  3.7111586764E-20 -2.2445726505E-20
             xred10    2.5000000000E-01  2.5000000000E-01  2.5000000000E-01
                       7.5000000000E-01  7.5000000000E-01  7.5000000000E-01
                       2.5602320737E-01  2.5602320737E-01  7.4397679263E-01
                       7.4397679263E-01  7.4397679263E-01  2.5602320737E-01
                       2.5602320737E-01  7.4397679263E-01  7.4397679263E-01
                       7.4397679263E-01  2.5602320737E-01  7.4397679263E-01
                       2.5602320737E-01  7.4397679263E-01  2.5602320737E-01
                       7.4397679263E-01  2.5602320737E-01  2.5602320737E-01
                      -5.1251005253E-21 -4.9395098182E-21  1.4124364487E-20
            znucl       55.00000   35.00000   40.00000

================================================================================

 chkinp: Checking input parameters for consistency, jdtset=   1.

 chkinp: Checking input parameters for consistency, jdtset=   2.

 chkinp: Checking input parameters for consistency, jdtset=   3.

 chkinp: Checking input parameters for consistency, jdtset=   4.

 chkinp: Checking input parameters for consistency, jdtset=   5.

 chkinp: Checking input parameters for consistency, jdtset=   6.

 chkinp: Checking input parameters for consistency, jdtset=   7.

 chkinp: Checking input parameters for consistency, jdtset=   8.

 chkinp: Checking input parameters for consistency, jdtset=   9.

 chkinp: Checking input parameters for consistency, jdtset=  10.

================================================================================
== DATASET  1 ==================================================================
-   mpi_nproc: 6, omp_nthreads: -1 (-1 if OMP is not activated)


--- !DatasetInfo
iteration_state: {dtset: 1, }
dimensions: {natom: 9, nkpt: 72, mband: 42, nsppol: 1, nspinor: 1, nspden: 1, mpw: 7150, }
cutoff_energies: {ecut:  16.0, pawecutdg:  40.0, }
electrons: {nelect:   7.20000000E+01, charge:   0.00000000E+00, occopt:   1.00000000E+00, tsmear:   1.00000000E-02, }
meta: {optdriver: 0, ionmov: 0, optcell: 0, iscf: 17, paral_kgb: 0, }
...

 Real(R)+Recip(G) space primitive vectors, cartesian coordinates (Bohr,Bohr^-1):
 R(1)=  0.0000000 10.5082880 10.5082880  G(1)= -0.0475815  0.0475815  0.0475815
 R(2)= 10.5082880  0.0000000 10.5082880  G(2)=  0.0475815 -0.0475815  0.0475815
 R(3)= 10.5082880 10.5082880  0.0000000  G(3)=  0.0475815  0.0475815 -0.0475815
 Unit cell volume ucvol=  2.3207369E+03 bohr^3
 Angles (23,13,12)=  6.00000000E+01  6.00000000E+01  6.00000000E+01 degrees

 Coarse grid specifications (used for wave-functions):

 getcut: wavevector=  0.0000  0.0000  0.0000  ngfft=  54  54  54
         ecut(hartree)=     16.000   => boxcut(ratio)=   2.01869

 Fine grid specifications (used for densities):

 getcut: wavevector=  0.0000  0.0000  0.0000  ngfft=  90  90  90
         ecut(hartree)=     40.000   => boxcut(ratio)=   2.12742

--- Pseudopotential description ------------------------------------------------
- pspini: atom type   1  psp file is ../../../Psps_for_tests/ATOMICDATA/Cs.GGA_PBE-JTH.xml
- pspatm: opening atomic psp file    ../../../Psps_for_tests/ATOMICDATA/Cs.GGA_PBE-JTH.xml
- pspatm : Reading pseudopotential header in XML form from ../../../Psps_for_tests/ATOMICDATA/Cs.GGA_PBE-JTH.xml
 Pseudopotential format is: paw10
 basis_size (lnmax)=  6 (lmn_size= 18), orbitals=   0   0   1   1   2   2
 Spheres core radius: rc_sph= 2.20660278
 1 radial meshes are used:
  - mesh 1: r(i)=AA*[exp(BB*(i-1))-1], size=1500 , AA= 0.15922E-03 BB= 0.87573E-02
 Shapefunction is SIN type: shapef(r)=[sin(pi*r/rshp)/(pi*r/rshp)]**2
 Radius for shape functions =  2.00394208
 mmax= 1500
 Radial grid used for partial waves is grid 1
 Radial grid used for projectors is grid 1
 Radial grid used for (t)core density is grid 1
 Radial grid used for Vloc is grid 1
 Radial grid used for pseudo valence density is grid 1
 Mesh size for Vloc has been set to 1341 to avoid numerical noise.
 Compensation charge density is not taken into account in XC energy/potential
 pspatm: atomic psp has been read  and splines computed

- pspini: atom type   2  psp file is ../../../Psps_for_tests/ATOMICDATA/Br.GGA_PBE-JTH.xml
- pspatm: opening atomic psp file    ../../../Psps_for_tests/ATOMICDATA/Br.GGA_PBE-JTH.xml
- pspatm : Reading pseudopotential header in XML form from ../../../Psps_for_tests/ATOMICDATA/Br.GGA_PBE-JTH.xml
 Pseudopotential format is: paw10
 basis_size (lnmax)=  4 (lmn_size=  8), orbitals=   0   0   1   1
 Spheres core radius: rc_sph= 2.20000000
 1 radial meshes are used:
  - mesh 1: r(i)=AA*[exp(BB*(i-1))-1], size= 927 , AA= 0.40483E-03 BB= 0.14169E-01
 Shapefunction is BESSEL type: shapef(r,l)=aa(1,l)*jl(q(1,l)*r)+aa(2,l)*jl(q(2,l)*r)
 Radius for shape functions =  2.02066386
 mmax=  927
 Radial grid used for partial waves is grid 1
 Radial grid used for projectors is grid 1
 Radial grid used for (t)core density is grid 1
 Radial grid used for Vloc is grid 1
 Radial grid used for pseudo valence density is grid 1
 Mesh size for Vloc has been set to  763 to avoid numerical noise.
 Compensation charge density is not taken into account in XC energy/potential
 pspatm: atomic psp has been read  and splines computed

- pspini: atom type   3  psp file is ../../../Psps_for_tests/ATOMICDATA/Zr.GGA_PBE-JTH.xml
- pspatm: opening atomic psp file    ../../../Psps_for_tests/ATOMICDATA/Zr.GGA_PBE-JTH.xml
- pspatm : Reading pseudopotential header in XML form from ../../../Psps_for_tests/ATOMICDATA/Zr.GGA_PBE-JTH.xml
 Pseudopotential format is: paw10
 basis_size (lnmax)=  6 (lmn_size= 18), orbitals=   0   0   1   1   2   2
 Spheres core radius: rc_sph= 2.21000000
 1 radial meshes are used:
  - mesh 1: r(i)=AA*[exp(BB*(i-1))-1], size= 941 , AA= 0.35256E-03 BB= 0.14102E-01
 Shapefunction is BESSEL type: shapef(r,l)=aa(1,l)*jl(q(1,l)*r)+aa(2,l)*jl(q(2,l)*r)
 Radius for shape functions =  2.21000000
 mmax=  941
 Radial grid used for partial waves is grid 1
 Radial grid used for projectors is grid 1
 Radial grid used for (t)core density is grid 1
 Radial grid used for Vloc is grid 1
 Radial grid used for pseudo valence density is grid 1
 Mesh size for Vloc has been set to  777 to avoid numerical noise.
 Compensation charge density is not taken into account in XC energy/potential
 pspatm: atomic psp has been read  and splines computed

   2.16235664E+04                                ecore*ucvol(ha*bohr**3)
--------------------------------------------------------------------------------

_setup2: Arith. and geom. avg. npw (full set) are    7093.652    7093.641

================================================================================

--- !BeginCycle
iteration_state: {dtset: 1, }
solver: {iscf: 17, nstep: 2500, nline: 4, wfoptalg: 10, }
tolerances: {toldfe: 1.00E-08, }
...

     iter   Etot(hartree)      deltaE(h)  residm     nres2
 ETOT  1  -170.44625936665    -1.704E+02 2.010E-01 1.959E+01
 ETOT  2  -170.58358031352    -1.373E-01 1.573E-02 4.559E+00
 ETOT  3  -170.58092051380     2.660E-03 1.069E-02 1.023E+00
 ETOT  4  -170.58154411467    -6.236E-04 4.568E-03 4.561E-02
 ETOT  5  -170.58137492208     1.692E-04 1.249E-03 6.969E-03
 ETOT  6  -170.58142064858    -4.573E-05 1.085E-03 4.652E-04
 ETOT  7  -170.58142226713    -1.619E-06 4.856E-04 1.481E-04
 ETOT  8  -170.58142388947    -1.622E-06 8.152E-04 1.527E-05
 ETOT  9  -170.58142392337    -3.390E-08 1.360E-03 1.722E-06
 ETOT 10  -170.58142393712    -1.375E-08 5.518E-04 1.167E-07
 ETOT 11  -170.58142393866    -1.533E-09 5.553E-04 1.193E-08
 ETOT 12  -170.58142393891    -2.493E-10 2.442E-04 2.694E-09

 At SCF step   12, etot is converged : 
  for the second time, diff in etot=  2.493E-10 < toldfe=  1.000E-08

 Cartesian components of stress tensor (hartree/bohr^3)
  sigma(1 1)= -5.55730432E-06  sigma(3 2)=  0.00000000E+00
  sigma(2 2)= -5.55730432E-06  sigma(3 1)=  0.00000000E+00
  sigma(3 3)= -5.55730432E-06  sigma(2 1)=  0.00000000E+00


--- !ResultsGS
iteration_state: {dtset: 1, }
comment   : Summary of ground state results
lattice_vectors:
- [  0.0000000,  10.5082880,  10.5082880, ]
- [ 10.5082880,   0.0000000,  10.5082880, ]
- [ 10.5082880,  10.5082880,   0.0000000, ]
lattice_lengths: [  14.86096,   14.86096,   14.86096, ]
lattice_angles: [ 60.000,  60.000,  60.000, ] # degrees, (23, 13, 12)
lattice_volume:   2.3207369E+03
convergence: {deltae: -2.493E-10, res2:  2.694E-09, residm:  2.442E-04, diffor: null, }
etotal    :  -1.70581424E+02
entropy   :   0.00000000E+00
fermie    :  -4.69571631E-02
cartesian_stress_tensor: # hartree/bohr^3
- [ -5.55730432E-06,   0.00000000E+00,   0.00000000E+00, ]
- [  0.00000000E+00,  -5.55730432E-06,   0.00000000E+00, ]
- [  0.00000000E+00,   0.00000000E+00,  -5.55730432E-06, ]
pressure_GPa:   1.6350E-01
xred      :
- [  2.5000E-01,   2.5000E-01,   2.5000E-01, Cs]
- [  7.5000E-01,   7.5000E-01,   7.5000E-01, Cs]
- [  2.3786E-01,   2.3786E-01,   7.6214E-01, Br]
- [  7.6214E-01,   7.6214E-01,   2.3786E-01, Br]
- [  2.3786E-01,   7.6214E-01,   7.6214E-01, Br]
- [  7.6214E-01,   2.3786E-01,   7.6214E-01, Br]
- [  2.3786E-01,   7.6214E-01,   2.3786E-01, Br]
- [  7.6214E-01,   2.3786E-01,   2.3786E-01, Br]
- [ -6.1024E-21,  -4.0265E-21,   1.3407E-20, Zr]
cartesian_forces: # hartree/bohr
- [ -1.88229542E-22,   6.82513499E-23,  -1.88229542E-22, ]
- [ -1.88229543E-22,   6.82513491E-23,  -1.88229541E-22, ]
- [  2.51614571E-24,  -1.22494338E-22,   4.90861252E-06, ]
- [  1.45632998E-22,  -2.65611190E-22,  -4.90861252E-06, ]
- [ -4.90861252E-06,   2.58997041E-22,  -3.78975233E-22, ]
- [  3.24940862E-22,  -4.90861252E-06,  -7.01399949E-22, ]
- [ -2.77883476E-22,   4.90861252E-06,  -9.85756119E-23, ]
- [  4.90861252E-06,  -5.46010812E-22,   4.26032619E-22, ]
- [ -1.88229544E-22,   6.82513515E-23,  -1.88229544E-22, ]
force_length_stats: {min:   2.74807147E-22, max:   4.90861252E-06, mean:   3.27240835E-06, }
...

 Integrated electronic density in atomic spheres:
 ------------------------------------------------
 Atom  Sphere_radius  Integrated_density
    1        2.20660          5.37322538
    2        2.20660          5.37322538
    3        2.20000          4.92874451
    4        2.20000          4.92874451
    5        2.20000          4.92874451
    6        2.20000          4.92874451
    7        2.20000          4.92874451
    8        2.20000          4.92874451
    9        2.21000          8.81567173

 PAW TEST:
 ==== Compensation charge inside spheres ============
 The following values must be close to each other ...
 Compensation charge over spherical meshes =     -4.887020339038276
 Compensation charge over fine fft grid    =     -4.887020865379053

 ==== Results concerning PAW augmentation regions ====

 Total pseudopotential strength Dij (hartree):
 Atom #  1
   0.42265  -0.14006   0.00000   0.00000   0.00000   0.00000   0.00000   0.00000   0.00000   0.00000   0.00000   0.00000 ...
  -0.14006   0.04208   0.00000   0.00000   0.00000   0.00000   0.00000   0.00000   0.00000   0.00000   0.00000   0.00000 ...
   0.00000   0.00000  -0.09144   0.00000   0.00000  -0.16782   0.00000   0.00000   0.00000   0.00000   0.00000  -0.00000 ...
   0.00000   0.00000   0.00000  -0.09144   0.00000   0.00000  -0.16782   0.00000  -0.00000   0.00000   0.00000   0.00000 ...
   0.00000   0.00000   0.00000   0.00000  -0.09144   0.00000   0.00000  -0.16782   0.00000  -0.00000   0.00000   0.00000 ...
   0.00000   0.00000  -0.16782   0.00000   0.00000   0.39864   0.00000   0.00000   0.00000   0.00000   0.00000   0.00000 ...
   0.00000   0.00000   0.00000  -0.16782   0.00000   0.00000   0.39864   0.00000   0.00000   0.00000   0.00000   0.00000 ...
   0.00000   0.00000   0.00000   0.00000  -0.16782   0.00000   0.00000   0.39864   0.00000   0.00000   0.00000   0.00000 ...
   0.00000   0.00000   0.00000  -0.00000   0.00000   0.00000   0.00000   0.00000   0.00553   0.00000   0.00000   0.00000 ...
   0.00000   0.00000   0.00000   0.00000  -0.00000   0.00000   0.00000   0.00000   0.00000   0.00553   0.00000   0.00000 ...
   0.00000   0.00000   0.00000   0.00000   0.00000   0.00000   0.00000   0.00000   0.00000   0.00000   0.00553   0.00000 ...
   0.00000   0.00000  -0.00000   0.00000   0.00000   0.00000   0.00000   0.00000   0.00000   0.00000   0.00000   0.00553 ...
   ...  only 12  components have been written...
 Atom #  9
   3.06117  -0.89123   0.00000   0.00000   0.00000   0.00000   0.00000   0.00000   0.00000   0.00000   0.00000   0.00000 ...
  -0.89123   0.26624   0.00000   0.00000   0.00000   0.00000   0.00000   0.00000   0.00000   0.00000   0.00000   0.00000 ...
   0.00000   0.00000   0.27482   0.00000   0.00000  -0.05608   0.00000   0.00000   0.00000   0.00000   0.00000   0.00000 ...
   0.00000   0.00000   0.00000   0.27482   0.00000   0.00000  -0.05608   0.00000   0.00000   0.00000   0.00000   0.00000 ...
   0.00000   0.00000   0.00000   0.00000   0.27482   0.00000   0.00000  -0.05608   0.00000   0.00000   0.00000   0.00000 ...
   0.00000   0.00000  -0.05608   0.00000   0.00000   0.01530   0.00000   0.00000   0.00000   0.00000   0.00000   0.00000 ...
   0.00000   0.00000   0.00000  -0.05608   0.00000   0.00000   0.01530   0.00000   0.00000   0.00000   0.00000   0.00000 ...
   0.00000   0.00000   0.00000   0.00000  -0.05608   0.00000   0.00000   0.01530   0.00000   0.00000   0.00000   0.00000 ...
   0.00000   0.00000   0.00000   0.00000   0.00000   0.00000   0.00000   0.00000  -0.00791   0.00000   0.00000   0.00000 ...
   0.00000   0.00000   0.00000   0.00000   0.00000   0.00000   0.00000   0.00000   0.00000  -0.00791   0.00000   0.00000 ...
   0.00000   0.00000   0.00000   0.00000   0.00000   0.00000   0.00000   0.00000   0.00000   0.00000  -0.00781   0.00000 ...
   0.00000   0.00000   0.00000   0.00000   0.00000   0.00000   0.00000   0.00000   0.00000   0.00000   0.00000  -0.00791 ...
   ...  only 12  components have been written...


 Augmentation waves occupancies Rhoij:
 Atom #  1
   1.99749  -0.01548   0.00000   0.00000   0.00000   0.00000   0.00000   0.00000   0.00000   0.00000   0.00000   0.00000 ...
  -0.01548   0.12224   0.00000   0.00000   0.00000   0.00000   0.00000   0.00000   0.00000   0.00000   0.00000   0.00000 ...
   0.00000   0.00000   2.00962   0.00000   0.00000  -0.00495   0.00000   0.00000   0.00000   0.00000   0.00000   0.00105 ...
   0.00000   0.00000   0.00000   2.00962   0.00000   0.00000  -0.00495   0.00000   0.00105   0.00000   0.00000   0.00000 ...
   0.00000   0.00000   0.00000   0.00000   2.00962   0.00000   0.00000  -0.00495   0.00000   0.00105   0.00000   0.00000 ...
   0.00000   0.00000  -0.00495   0.00000   0.00000   0.00009   0.00000   0.00000   0.00000   0.00000   0.00000  -0.00009 ...
   0.00000   0.00000   0.00000  -0.00495   0.00000   0.00000   0.00009   0.00000  -0.00009   0.00000   0.00000   0.00000 ...
   0.00000   0.00000   0.00000   0.00000  -0.00495   0.00000   0.00000   0.00009   0.00000  -0.00009   0.00000   0.00000 ...
   0.00000   0.00000   0.00000   0.00105   0.00000   0.00000  -0.00009   0.00000   0.03891   0.00000   0.00000   0.00000 ...
   0.00000   0.00000   0.00000   0.00000   0.00105   0.00000   0.00000  -0.00009   0.00000   0.03891   0.00000   0.00000 ...
   0.00000   0.00000   0.00000   0.00000   0.00000   0.00000   0.00000   0.00000   0.00000   0.00000   0.02445   0.00000 ...
   0.00000   0.00000   0.00105   0.00000   0.00000  -0.00009   0.00000   0.00000   0.00000   0.00000   0.00000   0.03891 ...
   ...  only 12  components have been written...
 Atom #  9
   1.99247  -0.06895   0.00000   0.00000   0.00000   0.00000   0.00000   0.00000   0.00000   0.00000   0.00000   0.00000 ...
  -0.06895   1.05923   0.00000   0.00000   0.00000   0.00000   0.00000   0.00000   0.00000   0.00000   0.00000   0.00000 ...
   0.00000   0.00000   1.96555   0.00000   0.00000  -0.20874   0.00000   0.00000   0.00000   0.00000   0.00000   0.00000 ...
   0.00000   0.00000   0.00000   1.96555   0.00000   0.00000  -0.20874   0.00000   0.00000   0.00000   0.00000   0.00000 ...
   0.00000   0.00000   0.00000   0.00000   1.96555   0.00000   0.00000  -0.20874   0.00000   0.00000   0.00000   0.00000 ...
   0.00000   0.00000  -0.20874   0.00000   0.00000   1.64368   0.00000   0.00000   0.00000   0.00000   0.00000   0.00000 ...
   0.00000   0.00000   0.00000  -0.20874   0.00000   0.00000   1.64368   0.00000   0.00000   0.00000   0.00000   0.00000 ...
   0.00000   0.00000   0.00000   0.00000  -0.20874   0.00000   0.00000   1.64368   0.00000   0.00000   0.00000   0.00000 ...
   0.00000   0.00000   0.00000   0.00000   0.00000   0.00000   0.00000   0.00000   0.47379   0.00000   0.00000   0.00000 ...
   0.00000   0.00000   0.00000   0.00000   0.00000   0.00000   0.00000   0.00000   0.00000   0.47379   0.00000   0.00000 ...
   0.00000   0.00000   0.00000   0.00000   0.00000   0.00000   0.00000   0.00000   0.00000   0.00000   1.40771   0.00000 ...
   0.00000   0.00000   0.00000   0.00000   0.00000   0.00000   0.00000   0.00000   0.00000   0.00000   0.00000   0.47379 ...
   ...  only 12  components have been written...


================================================================================

 ----iterations are completed or convergence reached----

 Mean square residual over all n,k,spin=   43.202E-08; max=  24.423E-05
 reduced coordinates (array xred) for    9 atoms
       0.250000000000      0.250000000000      0.250000000000
       0.750000000000      0.750000000000      0.750000000000
       0.237860959370      0.237860959370      0.762139040630
       0.762139040630      0.762139040630      0.237860959370
       0.237860959370      0.762139040630      0.762139040630
       0.762139040630      0.237860959370      0.762139040630
       0.237860959370      0.762139040630      0.237860959370
       0.762139040630      0.237860959370      0.237860959370
      -0.000000000000     -0.000000000000      0.000000000000
 rms dE/dt=  3.4387E-05; max dE/dt=  5.1581E-05; dE/dt below (all hartree)
    1       0.000000000000     -0.000000000000      0.000000000000
    2       0.000000000000     -0.000000000000      0.000000000000
    3      -0.000051581114     -0.000051581114      0.000000000000
    4       0.000051581114      0.000051581114      0.000000000000
    5      -0.000000000000      0.000051581114      0.000051581114
    6       0.000051581114      0.000000000000      0.000051581114
    7      -0.000051581114      0.000000000000     -0.000051581114
    8       0.000000000000     -0.000051581114     -0.000051581114
    9       0.000000000000      0.000000000000      0.000000000000

 cartesian coordinates (angstrom) at end:
    1      2.78037326726480     2.78037326726480     2.78037326726480
    2      8.34111980179441     8.34111980179441     8.34111980179441
    3      5.56074653452960     5.56074653452960     2.64536901103323
    4      5.56074653452960     5.56074653452960     8.47612405802598
    5      8.47612405802598     5.56074653452960     5.56074653452960
    6      5.56074653452960     8.47612405802598     5.56074653452960
    7      5.56074653452960     2.64536901103323     5.56074653452960
    8      2.64536901103323     5.56074653452960     5.56074653452961
    9      0.00000000000000     0.00000000000000    -0.00000000000000

 cartesian forces (hartree/bohr) at end:
    1     -0.00000000000000     0.00000000000000    -0.00000000000000
    2     -0.00000000000000     0.00000000000000    -0.00000000000000
    3      0.00000000000000    -0.00000000000000     0.00000490861252
    4      0.00000000000000    -0.00000000000000    -0.00000490861252
    5     -0.00000490861252     0.00000000000000    -0.00000000000000
    6      0.00000000000000    -0.00000490861252    -0.00000000000000
    7     -0.00000000000000     0.00000490861252    -0.00000000000000
    8      0.00000490861252    -0.00000000000000     0.00000000000000
    9     -0.00000000000000     0.00000000000000    -0.00000000000000
 frms,max,avg= 2.3139421E-06 4.9086125E-06   0.000E+00  0.000E+00  0.000E+00 h/b

 cartesian forces (eV/Angstrom) at end:
    1     -0.00000000000000     0.00000000000000    -0.00000000000000
    2     -0.00000000000000     0.00000000000000    -0.00000000000000
    3      0.00000000000000    -0.00000000000000     0.00025241098343
    4      0.00000000000000    -0.00000000000000    -0.00025241098343
    5     -0.00025241098343     0.00000000000000    -0.00000000000000
    6      0.00000000000000    -0.00025241098343    -0.00000000000000
    7     -0.00000000000000     0.00025241098343    -0.00000000000000
    8      0.00025241098343    -0.00000000000000     0.00000000000000
    9     -0.00000000000000     0.00000000000000    -0.00000000000000
 frms,max,avg= 1.1898768E-04 2.5241098E-04   0.000E+00  0.000E+00  0.000E+00 e/A
 length scales= 14.860963470000 14.860963470000 14.860963470000 bohr
              =  7.864083166013  7.864083166013  7.864083166013 angstroms
 prteigrs : about to open file Cs2TiI6o_DS1_EIG
 Fermi (or HOMO) energy (hartree) =  -0.04696   Average Vxc (hartree)=  -0.29194
 Eigenvalues (hartree) for nkpt=  72  k points:
 kpt#   1, nband= 42, wtk=  0.00058, kpt=  0.0000  0.0000  0.0000 (reduced coord)
  -1.83886   -1.02955   -1.02955   -1.02955   -0.76859   -0.76832   -0.53669   -0.52117
  -0.52117   -0.52070   -0.52070   -0.52070   -0.28735   -0.28735   -0.28735   -0.28437
  -0.28437   -0.28437   -0.16057   -0.11919   -0.11919   -0.11917   -0.11917   -0.11917
  -0.11489   -0.11489   -0.11489   -0.07195   -0.07195   -0.07195   -0.05494   -0.05494
  -0.05494   -0.04696   -0.04696   -0.04696    0.05778    0.05778    0.05778    0.13079
   0.15744    0.16139
 prteigrs : prtvol=0 or 1, do not print more k-points.


--- !EnergyTerms
iteration_state     : {dtset: 1, }
comment             : Components of total free energy in Hartree
kinetic             :  5.15013569761350E+01
hartree             :  4.05129579246749E+01
xc                  : -6.76268951349231E+01
Ewald energy        : -1.20832099003196E+02
psp_core            :  9.31754337155500E+00
local_psp           : -1.24999817586786E+02
spherical_terms     :  4.15455288960008E+01
total_energy        : -1.70581424556540E+02
total_energy_eV     : -4.64175662299364E+03
...


--- !EnergyTermsDC
iteration_state     : {dtset: 1, }
comment             : '"Double-counting" decomposition of free energy'
band_energy         : -2.60006481867857E+01
Ewald energy        : -1.20832099003196E+02
psp_core            :  9.31754337155500E+00
xc_dc               : -6.35785483571928E+01
spherical_terms     :  3.05123282367132E+01
total_energy_dc     : -1.70581423938906E+02
total_energy_dc_eV  : -4.64175660618698E+03
...


 Cartesian components of stress tensor (hartree/bohr^3)
  sigma(1 1)= -5.55730432E-06  sigma(3 2)=  0.00000000E+00
  sigma(2 2)= -5.55730432E-06  sigma(3 1)=  0.00000000E+00
  sigma(3 3)= -5.55730432E-06  sigma(2 1)=  0.00000000E+00

-Cartesian components of stress tensor (GPa)         [Pressure=  1.6350E-01 GPa]
- sigma(1 1)= -1.63501510E-01  sigma(3 2)=  0.00000000E+00
- sigma(2 2)= -1.63501510E-01  sigma(3 1)=  0.00000000E+00
- sigma(3 3)= -1.63501510E-01  sigma(2 1)=  0.00000000E+00

================================================================================
== DATASET  2 ==================================================================
-   mpi_nproc: 6, omp_nthreads: -1 (-1 if OMP is not activated)


--- !DatasetInfo
iteration_state: {dtset: 2, }
dimensions: {natom: 9, nkpt: 72, mband: 42, nsppol: 1, nspinor: 1, nspden: 1, mpw: 6903, }
cutoff_energies: {ecut:  16.0, pawecutdg:  40.0, }
electrons: {nelect:   7.20000000E+01, charge:   0.00000000E+00, occopt:   1.00000000E+00, tsmear:   1.00000000E-02, }
meta: {optdriver: 0, ionmov: 0, optcell: 0, iscf: 17, paral_kgb: 0, }
...

 Real(R)+Recip(G) space primitive vectors, cartesian coordinates (Bohr,Bohr^-1):
 R(1)=  0.0000000 10.4021437 10.4021437  G(1)= -0.0480670  0.0480670  0.0480670
 R(2)= 10.4021437  0.0000000 10.4021437  G(2)=  0.0480670 -0.0480670  0.0480670
 R(3)= 10.4021437 10.4021437  0.0000000  G(3)=  0.0480670  0.0480670 -0.0480670
 Unit cell volume ucvol=  2.2511195E+03 bohr^3
 Angles (23,13,12)=  6.00000000E+01  6.00000000E+01  6.00000000E+01 degrees

 Coarse grid specifications (used for wave-functions):

 getcut: wavevector=  0.0000  0.0000  0.0000  ngfft=  54  54  54
         ecut(hartree)=     16.000   => boxcut(ratio)=   2.03929

 Fine grid specifications (used for densities):

 getcut: wavevector=  0.0000  0.0000  0.0000  ngfft=  90  90  90
         ecut(hartree)=     40.000   => boxcut(ratio)=   2.14913

--- Pseudopotential description ------------------------------------------------
- pspini: atom type   1  psp file is ../../../Psps_for_tests/ATOMICDATA/Cs.GGA_PBE-JTH.xml
- pspatm: opening atomic psp file    ../../../Psps_for_tests/ATOMICDATA/Cs.GGA_PBE-JTH.xml
- pspatm : Reading pseudopotential header in XML form from ../../../Psps_for_tests/ATOMICDATA/Cs.GGA_PBE-JTH.xml
 Pseudopotential format is: paw10
 basis_size (lnmax)=  6 (lmn_size= 18), orbitals=   0   0   1   1   2   2
 Spheres core radius: rc_sph= 2.20660278
 1 radial meshes are used:
  - mesh 1: r(i)=AA*[exp(BB*(i-1))-1], size=1500 , AA= 0.15922E-03 BB= 0.87573E-02
 Shapefunction is SIN type: shapef(r)=[sin(pi*r/rshp)/(pi*r/rshp)]**2
 Radius for shape functions =  2.00394208
 mmax= 1500
 Radial grid used for partial waves is grid 1
 Radial grid used for projectors is grid 1
 Radial grid used for (t)core density is grid 1
 Radial grid used for Vloc is grid 1
 Radial grid used for pseudo valence density is grid 1
 Mesh size for Vloc has been set to 1341 to avoid numerical noise.
 Compensation charge density is not taken into account in XC energy/potential
 pspatm: atomic psp has been read  and splines computed

- pspini: atom type   2  psp file is ../../../Psps_for_tests/ATOMICDATA/Br.GGA_PBE-JTH.xml
- pspatm: opening atomic psp file    ../../../Psps_for_tests/ATOMICDATA/Br.GGA_PBE-JTH.xml
- pspatm : Reading pseudopotential header in XML form from ../../../Psps_for_tests/ATOMICDATA/Br.GGA_PBE-JTH.xml
 Pseudopotential format is: paw10
 basis_size (lnmax)=  4 (lmn_size=  8), orbitals=   0   0   1   1
 Spheres core radius: rc_sph= 2.20000000
 1 radial meshes are used:
  - mesh 1: r(i)=AA*[exp(BB*(i-1))-1], size= 927 , AA= 0.40483E-03 BB= 0.14169E-01
 Shapefunction is BESSEL type: shapef(r,l)=aa(1,l)*jl(q(1,l)*r)+aa(2,l)*jl(q(2,l)*r)
 Radius for shape functions =  2.02066386
 mmax=  927
 Radial grid used for partial waves is grid 1
 Radial grid used for projectors is grid 1
 Radial grid used for (t)core density is grid 1
 Radial grid used for Vloc is grid 1
 Radial grid used for pseudo valence density is grid 1
 Mesh size for Vloc has been set to  763 to avoid numerical noise.
 Compensation charge density is not taken into account in XC energy/potential
 pspatm: atomic psp has been read  and splines computed

- pspini: atom type   3  psp file is ../../../Psps_for_tests/ATOMICDATA/Zr.GGA_PBE-JTH.xml
- pspatm: opening atomic psp file    ../../../Psps_for_tests/ATOMICDATA/Zr.GGA_PBE-JTH.xml
- pspatm : Reading pseudopotential header in XML form from ../../../Psps_for_tests/ATOMICDATA/Zr.GGA_PBE-JTH.xml
 Pseudopotential format is: paw10
 basis_size (lnmax)=  6 (lmn_size= 18), orbitals=   0   0   1   1   2   2
 Spheres core radius: rc_sph= 2.21000000
 1 radial meshes are used:
  - mesh 1: r(i)=AA*[exp(BB*(i-1))-1], size= 941 , AA= 0.35256E-03 BB= 0.14102E-01
 Shapefunction is BESSEL type: shapef(r,l)=aa(1,l)*jl(q(1,l)*r)+aa(2,l)*jl(q(2,l)*r)
 Radius for shape functions =  2.21000000
 mmax=  941
 Radial grid used for partial waves is grid 1
 Radial grid used for projectors is grid 1
 Radial grid used for (t)core density is grid 1
 Radial grid used for Vloc is grid 1
 Radial grid used for pseudo valence density is grid 1
 Mesh size for Vloc has been set to  777 to avoid numerical noise.
 Compensation charge density is not taken into account in XC energy/potential
 pspatm: atomic psp has been read  and splines computed

--------------------------------------------------------------------------------

_setup2: Arith. and geom. avg. npw (full set) are    6881.313    6881.305

================================================================================

--- !BeginCycle
iteration_state: {dtset: 2, }
solver: {iscf: 17, nstep: 2500, nline: 4, wfoptalg: 10, }
tolerances: {toldfe: 1.00E-08, }
...

     iter   Etot(hartree)      deltaE(h)  residm     nres2
 ETOT  1  -170.44266715845    -1.704E+02 2.228E-01 1.985E+01
 ETOT  2  -170.58231262285    -1.396E-01 1.876E-02 4.517E+00
 ETOT  3  -170.57981183531     2.501E-03 5.949E-03 1.002E+00
 ETOT  4  -170.58045057225    -6.387E-04 4.381E-03 4.312E-02
 ETOT  5  -170.58029406955     1.565E-04 1.083E-03 6.437E-03
 ETOT  6  -170.58033964674    -4.558E-05 9.051E-04 4.128E-04
 ETOT  7  -170.58034142096    -1.774E-06 4.957E-04 1.282E-04
 ETOT  8  -170.58034332489    -1.904E-06 5.423E-04 1.412E-05
 ETOT  9  -170.58034338232    -5.743E-08 2.124E-04 1.615E-06
 ETOT 10  -170.58034340659    -2.427E-08 2.651E-04 1.196E-07
 ETOT 11  -170.58034340860    -2.008E-09 1.196E-04 1.848E-08
 ETOT 12  -170.58034340905    -4.500E-10 1.881E-04 5.041E-09

 At SCF step   12, etot is converged : 
  for the second time, diff in etot=  4.500E-10 < toldfe=  1.000E-08

 Cartesian components of stress tensor (hartree/bohr^3)
  sigma(1 1)= -1.62187112E-05  sigma(3 2)=  0.00000000E+00
  sigma(2 2)= -1.62187112E-05  sigma(3 1)=  0.00000000E+00
  sigma(3 3)= -1.62187112E-05  sigma(2 1)=  0.00000000E+00


--- !ResultsGS
iteration_state: {dtset: 2, }
comment   : Summary of ground state results
lattice_vectors:
- [  0.0000000,  10.4021437,  10.4021437, ]
- [ 10.4021437,   0.0000000,  10.4021437, ]
- [ 10.4021437,  10.4021437,   0.0000000, ]
lattice_lengths: [  14.71085,   14.71085,   14.71085, ]
lattice_angles: [ 60.000,  60.000,  60.000, ] # degrees, (23, 13, 12)
lattice_volume:   2.2511195E+03
convergence: {deltae: -4.500E-10, res2:  5.041E-09, residm:  1.881E-04, diffor: null, }
etotal    :  -1.70580343E+02
entropy   :   0.00000000E+00
fermie    :  -4.09918885E-02
cartesian_stress_tensor: # hartree/bohr^3
- [ -1.62187112E-05,   0.00000000E+00,   0.00000000E+00, ]
- [  0.00000000E+00,  -1.62187112E-05,   0.00000000E+00, ]
- [  0.00000000E+00,   0.00000000E+00,  -1.62187112E-05, ]
pressure_GPa:   4.7717E-01
xred      :
- [  2.5000E-01,   2.5000E-01,   2.5000E-01, Cs]
- [  7.5000E-01,   7.5000E-01,   7.5000E-01, Cs]
- [  2.4002E-01,   2.4002E-01,   7.5998E-01, Br]
- [  7.5998E-01,   7.5998E-01,   2.4002E-01, Br]
- [  2.4002E-01,   7.5998E-01,   7.5998E-01, Br]
- [  7.5998E-01,   2.4002E-01,   7.5998E-01, Br]
- [  2.4002E-01,   7.5998E-01,   2.4002E-01, Br]
- [  7.5998E-01,   2.4002E-01,   2.4002E-01, Br]
- [ -1.1950E-19,  -1.8429E-19,   3.6915E-19, Zr]
cartesian_forces: # hartree/bohr
- [ -1.61784273E-30,  -3.86354832E-24,   3.61905310E-23, ]
- [  1.13248991E-29,  -3.86354185E-24,   3.61905051E-23, ]
- [ -6.70815562E-23,   6.32180094E-23,   5.78125742E-06, ]
- [  6.70815562E-23,  -7.09451029E-23,  -5.78125742E-06, ]
- [ -5.78125742E-06,   2.87079297E-22,  -2.54752314E-22, ]
- [ -1.64883266E-22,  -5.78125742E-06,   2.01073795E-22, ]
- [  1.64883266E-22,   5.78125742E-06,  -1.28692736E-22, ]
- [  5.78125742E-06,   3.09083736E-23,   1.41860902E-24, ]
- [ -0.00000000E+00,  -3.86354670E-24,   3.61905294E-23, ]
force_length_stats: {min:   3.63961483E-23, max:   5.78125742E-06, mean:   3.85417161E-06, }
...

 Integrated electronic density in atomic spheres:
 ------------------------------------------------
 Atom  Sphere_radius  Integrated_density
    1        2.20660          5.33286816
    2        2.20660          5.33286816
    3        2.20000          4.92238533
    4        2.20000          4.92238533
    5        2.20000          4.92238533
    6        2.20000          4.92238533
    7        2.20000          4.92238533
    8        2.20000          4.92238533
    9        2.21000          8.81299295

 PAW TEST:
 ==== Compensation charge inside spheres ============
 The following values must be close to each other ...
 Compensation charge over spherical meshes =     -4.888057844467512
 Compensation charge over fine fft grid    =     -4.888052760407008

 ==== Results concerning PAW augmentation regions ====

 Total pseudopotential strength Dij (hartree):
 Atom #  1
   0.42071  -0.13943   0.00000   0.00000   0.00000   0.00000   0.00000   0.00000   0.00000   0.00000   0.00000   0.00000 ...
  -0.13943   0.04187   0.00000   0.00000   0.00000   0.00000   0.00000   0.00000   0.00000   0.00000   0.00000   0.00000 ...
   0.00000   0.00000  -0.09120   0.00000   0.00000  -0.16797   0.00000   0.00000   0.00000   0.00000   0.00000  -0.00000 ...
   0.00000   0.00000   0.00000  -0.09120   0.00000   0.00000  -0.16797   0.00000  -0.00000   0.00000   0.00000   0.00000 ...
   0.00000   0.00000   0.00000   0.00000  -0.09120   0.00000   0.00000  -0.16797   0.00000  -0.00000   0.00000   0.00000 ...
   0.00000   0.00000  -0.16797   0.00000   0.00000   0.39806   0.00000   0.00000   0.00000   0.00000   0.00000   0.00000 ...
   0.00000   0.00000   0.00000  -0.16797   0.00000   0.00000   0.39806   0.00000   0.00000   0.00000   0.00000   0.00000 ...
   0.00000   0.00000   0.00000   0.00000  -0.16797   0.00000   0.00000   0.39806   0.00000   0.00000   0.00000   0.00000 ...
   0.00000   0.00000   0.00000  -0.00000   0.00000   0.00000   0.00000   0.00000   0.00556   0.00000   0.00000   0.00000 ...
   0.00000   0.00000   0.00000   0.00000  -0.00000   0.00000   0.00000   0.00000   0.00000   0.00556   0.00000   0.00000 ...
   0.00000   0.00000   0.00000   0.00000   0.00000   0.00000   0.00000   0.00000   0.00000   0.00000   0.00556   0.00000 ...
   0.00000   0.00000  -0.00000   0.00000   0.00000   0.00000   0.00000   0.00000   0.00000   0.00000   0.00000   0.00556 ...
   ...  only 12  components have been written...
 Atom #  9
   3.05883  -0.89051   0.00000   0.00000   0.00000   0.00000   0.00000   0.00000   0.00000   0.00000   0.00000   0.00000 ...
  -0.89051   0.26601   0.00000   0.00000   0.00000   0.00000   0.00000   0.00000   0.00000   0.00000   0.00000   0.00000 ...
   0.00000   0.00000   0.27556   0.00000   0.00000  -0.05625   0.00000   0.00000   0.00000   0.00000   0.00000   0.00000 ...
   0.00000   0.00000   0.00000   0.27556   0.00000   0.00000  -0.05625   0.00000   0.00000   0.00000   0.00000   0.00000 ...
   0.00000   0.00000   0.00000   0.00000   0.27556   0.00000   0.00000  -0.05625   0.00000   0.00000   0.00000   0.00000 ...
   0.00000   0.00000  -0.05625   0.00000   0.00000   0.01534   0.00000   0.00000   0.00000   0.00000   0.00000   0.00000 ...
   0.00000   0.00000   0.00000  -0.05625   0.00000   0.00000   0.01534   0.00000   0.00000   0.00000   0.00000   0.00000 ...
   0.00000   0.00000   0.00000   0.00000  -0.05625   0.00000   0.00000   0.01534   0.00000   0.00000   0.00000   0.00000 ...
   0.00000   0.00000   0.00000   0.00000   0.00000   0.00000   0.00000   0.00000  -0.00706   0.00000   0.00000   0.00000 ...
   0.00000   0.00000   0.00000   0.00000   0.00000   0.00000   0.00000   0.00000   0.00000  -0.00706   0.00000   0.00000 ...
[...]
                       5.1113932792E+00  2.5987961580E+00  5.1113932792E+00
                       2.5987961580E+00  5.1113932792E+00  5.1113932792E+00
                       7.4962979562E-20 -4.2977831643E-19 -1.2535746566E-19
           xangst10    2.5276120612E+00  2.5276120612E+00  2.5276120612E+00
                       7.5828361835E+00  7.5828361835E+00  7.5828361835E+00
                       5.0552241223E+00  5.0552241223E+00  2.5885093875E+00
                       5.0552241223E+00  5.0552241223E+00  7.5219388571E+00
                       7.5219388571E+00  5.0552241223E+00  5.0552241223E+00
                       5.0552241223E+00  7.5219388571E+00  5.0552241223E+00
                       5.0552241223E+00  2.5885093875E+00  5.0552241223E+00
                       2.5885093875E+00  5.0552241223E+00  5.0552241223E+00
                       4.6431498882E-20  4.5493296262E-20 -5.0878860990E-20
            xcart1     5.2541440223E+00  5.2541440223E+00  5.2541440223E+00
                       1.5762432067E+01  1.5762432067E+01  1.5762432067E+01
                       1.0508288045E+01  1.0508288045E+01  4.9990229513E+00
                       1.0508288045E+01  1.0508288045E+01  1.6017553138E+01
                       1.6017553138E+01  1.0508288045E+01  1.0508288045E+01
                       1.0508288045E+01  1.6017553138E+01  1.0508288045E+01
                       1.0508288045E+01  4.9990229513E+00  1.0508288045E+01
                       4.9990229513E+00  1.0508288045E+01  1.0508288045E+01
                       9.8572780811E-20  7.6758129360E-20 -1.0643778989E-19
            xcart2     5.2010718605E+00  5.2010718605E+00  5.2010718605E+00
                       1.5603215582E+01  1.5603215582E+01  1.5603215582E+01
                       1.0402143721E+01  1.0402143721E+01  4.9934259263E+00
                       1.0402143721E+01  1.0402143721E+01  1.5810861516E+01
                       1.5810861516E+01  1.0402143721E+01  1.0402143721E+01
                       1.0402143721E+01  1.5810861516E+01  1.0402143721E+01
                       1.0402143721E+01  4.9934259263E+00  1.0402143721E+01
                       4.9934259263E+00  1.0402143721E+01  1.0402143721E+01
                       1.9229488601E-18  2.5968075180E-18 -3.1600719576E-18
            xcart3     5.1479996987E+00  5.1479996987E+00  5.1479996987E+00
                       1.5443999096E+01  1.5443999096E+01  1.5443999096E+01
                       1.0295999397E+01  1.0295999397E+01  4.9861569001E+00
                       1.0295999397E+01  1.0295999397E+01  1.5605841895E+01
                       1.5605841895E+01  1.0295999397E+01  1.0295999397E+01
                       1.0295999397E+01  1.5605841895E+01  1.0295999397E+01
                       1.0295999397E+01  4.9861569001E+00  1.0295999397E+01
                       4.9861569001E+00  1.0295999397E+01  1.0295999397E+01
                       3.5299278349E-18  8.6049949728E-19 -1.7340308989E-18
            xcart4     5.0949275369E+00  5.0949275369E+00  5.0949275369E+00
                       1.5284782611E+01  1.5284782611E+01  1.5284782611E+01
                       1.0189855074E+01  1.0189855074E+01  4.9781274285E+00
                       1.0189855074E+01  1.0189855074E+01  1.5401582719E+01
                       1.5401582719E+01  1.0189855074E+01  1.0189855074E+01
                       1.0189855074E+01  1.5401582719E+01  1.0189855074E+01
                       1.0189855074E+01  4.9781274285E+00  1.0189855074E+01
                       4.9781274285E+00  1.0189855074E+01  1.0189855074E+01
                      -2.1732716008E-20  4.2339779778E-20 -3.9023951816E-20
            xcart5     5.0418553748E+00  5.0418553748E+00  5.0418553748E+00
                       1.5125566124E+01  1.5125566124E+01  1.5125566124E+01
                       1.0083710750E+01  1.0083710750E+01  4.9687422758E+00
                       1.0083710750E+01  1.0083710750E+01  1.5198679223E+01
                       1.5198679223E+01  1.0083710750E+01  1.0083710750E+01
                       1.0083710750E+01  1.5198679223E+01  1.0083710750E+01
                       1.0083710750E+01  4.9687422758E+00  1.0083710750E+01
                       4.9687422758E+00  1.0083710750E+01  1.0083710750E+01
                      -3.0295739605E-19 -1.1192053989E-19 -3.3463959554E-19
            xcart6     4.9887832130E+00  4.9887832130E+00  4.9887832130E+00
                       1.4966349639E+01  1.4966349639E+01  1.4966349639E+01
                       9.9775664260E+00  9.9775664260E+00  4.9570362285E+00
                       9.9775664260E+00  9.9775664260E+00  1.4998096623E+01
                       1.4998096623E+01  9.9775664260E+00  9.9775664260E+00
                       9.9775664260E+00  1.4998096623E+01  9.9775664260E+00
                       9.9775664260E+00  4.9570362285E+00  9.9775664260E+00
                       4.9570362285E+00  9.9775664260E+00  9.9775664260E+00
                       8.7841516832E-20  7.4641870717E-20 -1.1226638351E-19
            xcart7     4.9357110512E+00  4.9357110512E+00  4.9357110512E+00
                       1.4807133154E+01  1.4807133154E+01  1.4807133154E+01
                       9.8714221024E+00  9.8714221024E+00  4.9438750831E+00
                       9.8714221024E+00  9.8714221024E+00  1.4798969122E+01
                       1.4798969122E+01  9.8714221024E+00  9.8714221024E+00
                       9.8714221024E+00  1.4798969122E+01  9.8714221024E+00
                       9.8714221024E+00  4.9438750831E+00  9.8714221024E+00
                       4.9438750831E+00  9.8714221024E+00  9.8714221024E+00
                       9.2598672881E-20  7.2106121519E-20 -9.9987014746E-20
            xcart8     4.8826388894E+00  4.8826388894E+00  4.8826388894E+00
                       1.4647916668E+01  1.4647916668E+01  1.4647916668E+01
                       9.7652777788E+00  9.7652777788E+00  4.9288305081E+00
                       9.7652777788E+00  9.7652777788E+00  1.4601725049E+01
                       1.4601725049E+01  9.7652777788E+00  9.7652777788E+00
                       9.7652777788E+00  1.4601725049E+01  9.7652777788E+00
                       9.7652777788E+00  4.9288305081E+00  9.7652777788E+00
                       4.9288305081E+00  9.7652777788E+00  9.7652777788E+00
                       9.1602988227E-20  7.1330786879E-20 -9.8911885556E-20
            xcart9     4.8295667276E+00  4.8295667276E+00  4.8295667276E+00
                       1.4488700183E+01  1.4488700183E+01  1.4488700183E+01
                       9.6591334552E+00  9.6591334552E+00  4.9110130138E+00
                       9.6591334552E+00  9.6591334552E+00  1.4407253897E+01
                       1.4407253897E+01  9.6591334552E+00  9.6591334552E+00
                       9.6591334552E+00  1.4407253897E+01  9.6591334552E+00
                       9.6591334552E+00  4.9110130138E+00  9.6591334552E+00
                       4.9110130138E+00  9.6591334552E+00  9.6591334552E+00
                       1.4165950148E-19 -8.1216331591E-19 -2.3689127881E-19
            xcart10    4.7764945658E+00  4.7764945658E+00  4.7764945658E+00
                       1.4329483697E+01  1.4329483697E+01  1.4329483697E+01
                       9.5529891316E+00  9.5529891316E+00  4.8915738349E+00
                       9.5529891316E+00  9.5529891316E+00  1.4214404428E+01
                       1.4214404428E+01  9.5529891316E+00  9.5529891316E+00
                       9.5529891316E+00  1.4214404428E+01  9.5529891316E+00
                       9.5529891316E+00  4.8915738349E+00  9.5529891316E+00
                       4.8915738349E+00  9.5529891316E+00  9.5529891316E+00
                       8.7742816826E-20  8.5969870818E-20 -9.6147113225E-20
             xred1     2.5000000000E-01  2.5000000000E-01  2.5000000000E-01
                       7.5000000000E-01  7.5000000000E-01  7.5000000000E-01
                       2.3786095937E-01  2.3786095937E-01  7.6213904063E-01
                       7.6213904063E-01  7.6213904063E-01  2.3786095937E-01
                       2.3786095937E-01  7.6213904063E-01  7.6213904063E-01
                       7.6213904063E-01  2.3786095937E-01  7.6213904063E-01
                       2.3786095937E-01  7.6213904063E-01  2.3786095937E-01
                       7.6213904063E-01  2.3786095937E-01  2.3786095937E-01
                      -6.1024422246E-21 -4.0264949953E-21  1.3406974517E-20
             xred2     2.5000000000E-01  2.5000000000E-01  2.5000000000E-01
                       7.5000000000E-01  7.5000000000E-01  7.5000000000E-01
                       2.4001907973E-01  2.4001907973E-01  7.5998092027E-01
                       7.5998092027E-01  7.5998092027E-01  2.4001907973E-01
                       2.4001907973E-01  7.5998092027E-01  7.5998092027E-01
                       7.5998092027E-01  2.4001907973E-01  7.5998092027E-01
                       2.4001907973E-01  7.5998092027E-01  2.4001907973E-01
                       7.5998092027E-01  2.4001907973E-01  2.4001907973E-01
                      -1.1950485238E-19 -1.8428560104E-19  3.6914642508E-19
             xred3     2.5000000000E-01  2.5000000000E-01  2.5000000000E-01
                       7.5000000000E-01  7.5000000000E-01  7.5000000000E-01
                       2.4214050077E-01  2.4214050077E-01  7.5785949923E-01
                       7.5785949923E-01  7.5785949923E-01  2.4214050077E-01
                       2.4214050077E-01  7.5785949923E-01  7.5785949923E-01
                       7.5785949923E-01  2.4214050077E-01  7.5785949923E-01
                       2.4214050077E-01  7.5785949923E-01  2.4214050077E-01
                       7.5785949923E-01  2.4214050077E-01  2.4214050077E-01
                      -2.1384321553E-19  4.5425286203E-20  2.9741931767E-19
             xred4     2.5000000000E-01  2.5000000000E-01  2.5000000000E-01
                       7.5000000000E-01  7.5000000000E-01  7.5000000000E-01
                       2.4426880424E-01  2.4426880424E-01  7.5573119576E-01
                       7.5573119576E-01  7.5573119576E-01  2.4426880424E-01
                       2.4426880424E-01  7.5573119576E-01  7.5573119576E-01
                       7.5573119576E-01  2.4426880424E-01  7.5573119576E-01
                       2.4426880424E-01  7.5573119576E-01  2.4426880424E-01
                       7.5573119576E-01  2.4426880424E-01  2.4426880424E-01
                       1.2290922583E-21 -5.0587788960E-21  2.9259991999E-21
             xred5     2.5000000000E-01  2.5000000000E-01  2.5000000000E-01
                       7.5000000000E-01  7.5000000000E-01  7.5000000000E-01
                       2.4637469277E-01  2.4637469277E-01  7.5362530723E-01
                       7.5362530723E-01  7.5362530723E-01  2.4637469277E-01
                       2.4637469277E-01  7.5362530723E-01  7.5362530723E-01
                       7.5362530723E-01  2.4637469277E-01  7.5362530723E-01
                       2.4637469277E-01  7.5362530723E-01  2.4637469277E-01
                       7.5362530723E-01  2.4637469277E-01  2.4637469277E-01
                      -7.1205304749E-21 -2.6065625282E-20 -3.9786117624E-21
             xred6     2.5000000000E-01  2.5000000000E-01  2.5000000000E-01
                       7.5000000000E-01  7.5000000000E-01  7.5000000000E-01
                       2.4840908178E-01  2.4840908178E-01  7.5159091822E-01
                       7.5159091822E-01  7.5159091822E-01  2.4840908178E-01
                       2.4840908178E-01  7.5159091822E-01  7.5159091822E-01
                       7.5159091822E-01  2.4840908178E-01  7.5159091822E-01
                       2.4840908178E-01  7.5159091822E-01  2.4840908178E-01
                       7.5159091822E-01  2.4840908178E-01  2.4840908178E-01
                      -6.2874063808E-21 -4.9644739591E-21  1.3768375941E-20
             xred7     2.5000000000E-01  2.5000000000E-01  2.5000000000E-01
                       7.5000000000E-01  7.5000000000E-01  7.5000000000E-01
                       2.5041351853E-01  2.5041351853E-01  7.4958648147E-01
                       7.4958648147E-01  7.4958648147E-01  2.5041351853E-01
                       2.5041351853E-01  7.4958648147E-01  7.4958648147E-01
                       7.4958648147E-01  2.5041351853E-01  7.4958648147E-01
                       2.5041351853E-01  7.4958648147E-01  2.5041351853E-01
                       7.4958648147E-01  2.5041351853E-01  2.5041351853E-01
                      -6.1024422246E-21 -4.0264949953E-21  1.3406974517E-20
             xred8     2.5000000000E-01  2.5000000000E-01  2.5000000000E-01
                       7.5000000000E-01  7.5000000000E-01  7.5000000000E-01
                       2.5236509497E-01  2.5236509497E-01  7.4763490503E-01
                       7.4763490503E-01  7.4763490503E-01  2.5236509497E-01
                       2.5236509497E-01  7.4763490503E-01  7.4763490503E-01
                       7.4763490503E-01  2.5236509497E-01  7.4763490503E-01
                       2.5236509497E-01  7.4763490503E-01  2.5236509497E-01
                       7.4763490503E-01  2.5236509497E-01  2.5236509497E-01
                      -6.1024422246E-21 -4.0264949953E-21  1.3406974517E-20
             xred9     2.5000000000E-01  2.5000000000E-01  2.5000000000E-01
                       7.5000000000E-01  7.5000000000E-01  7.5000000000E-01
                       2.5421602448E-01  2.5421602448E-01  7.4578397552E-01
                       7.4578397552E-01  7.4578397552E-01  2.5421602448E-01
                       2.5421602448E-01  7.4578397552E-01  7.4578397552E-01
                       7.4578397552E-01  2.5421602448E-01  7.4578397552E-01
                       2.5421602448E-01  7.4578397552E-01  2.5421602448E-01
                       7.4578397552E-01  2.5421602448E-01  2.5421602448E-01
                      -6.1636693484E-20  3.7111586764E-20 -2.2445726505E-20
             xred10    2.5000000000E-01  2.5000000000E-01  2.5000000000E-01
                       7.5000000000E-01  7.5000000000E-01  7.5000000000E-01
                       2.5602320737E-01  2.5602320737E-01  7.4397679263E-01
                       7.4397679263E-01  7.4397679263E-01  2.5602320737E-01
                       2.5602320737E-01  7.4397679263E-01  7.4397679263E-01
                       7.4397679263E-01  2.5602320737E-01  7.4397679263E-01
                       2.5602320737E-01  7.4397679263E-01  2.5602320737E-01
                       7.4397679263E-01  2.5602320737E-01  2.5602320737E-01
                      -5.1251005253E-21 -4.9395098182E-21  1.4124364487E-20
            znucl       55.00000   35.00000   40.00000

================================================================================


- Timing analysis has been suppressed with timopt=0



================================================================================

 Suggested references for the acknowledgment of ABINIT usage.

 The users of ABINIT have little formal obligations with respect to the ABINIT group
 (those specified in the GNU General Public License, http://www.gnu.org/copyleft/gpl.txt).
 However, it is common practice in the scientific literature,
 to acknowledge the efforts of people that have made the research possible.
 In this spirit, please find below suggested citations of work written by ABINIT developers,
 corresponding to implementations inside of ABINIT that you have used in the present run.
 Note also that it will be of great value to readers of publications presenting these results,
 to read papers enabling them to understand the theoretical formalism and details
 of the ABINIT implementation.
 For information on why they are suggested, see also https://docs.abinit.org/theory/acknowledgments.
-
- [1] Implementation of the Projector Augmented-Wave Method in the ABINIT code.
- M. Torrent, F. Jollet, F. Bottin, G. Zerah, and X. Gonze Comput. Mat. Science 42, 337, (2008).
- Comment: PAW calculations. Strong suggestion to cite this paper.
- DOI and bibtex: see https://docs.abinit.org/theory/bibliography/#torrent2008
-
- [2] Libxc: A library of exchange and correlation functionals for density functional theory.
- M.A.L. Marques, M.J.T. Oliveira, T. Burnus, Computer Physics Communications 183, 2227 (2012).
- Comment: to be cited when LibXC is used (negative value of ixc)
- Strong suggestion to cite this paper.
- DOI and bibtex: see https://docs.abinit.org/theory/bibliography/#marques2012
-
- [3] The Abinit project: Impact, environment and recent developments.
- Computer Phys. Comm. 248, 107042 (2020).
- X.Gonze, B. Amadon, G. Antonius, F.Arnardi, L.Baguet, J.-M.Beuken,
- J.Bieder, F.Bottin, J.Bouchet, E.Bousquet, N.Brouwer, F.Bruneval,
- G.Brunin, T.Cavignac, J.-B. Charraud, Wei Chen, M.Cote, S.Cottenier,
- J.Denier, G.Geneste, Ph.Ghosez, M.Giantomassi, Y.Gillet, O.Gingras,
- D.R.Hamann, G.Hautier, Xu He, N.Helbig, N.Holzwarth, Y.Jia, F.Jollet,
- W.Lafargue-Dit-Hauret, K.Lejaeghere, M.A.L.Marques, A.Martin, C.Martins,
- H.P.C. Miranda, F.Naccarato, K. Persson, G.Petretto, V.Planes, Y.Pouillon,
- S.Prokhorenko, F.Ricci, G.-M.Rignanese, A.H.Romero, M.M.Schmitt, M.Torrent,
- M.J.van Setten, B.Van Troeye, M.J.Verstraete, G.Zerah and J.W.Zwanzig
- Comment: the fifth generic paper describing the ABINIT project.
- Note that a version of this paper, that is not formatted for Computer Phys. Comm. 
- is available at https://www.abinit.org/sites/default/files/ABINIT20.pdf .
- The licence allows the authors to put it on the Web.
- DOI and bibtex: see https://docs.abinit.org/theory/bibliography/#gonze2020
-
- [4] ABINIT: Overview, and focus on selected capabilities
- J. Chem. Phys. 152, 124102 (2020).
- A. Romero, D.C. Allan, B. Amadon, G. Antonius, T. Applencourt, L.Baguet,
- J.Bieder, F.Bottin, J.Bouchet, E.Bousquet, F.Bruneval,
- G.Brunin, D.Caliste, M.Cote,
- J.Denier, C. Dreyer, Ph.Ghosez, M.Giantomassi, Y.Gillet, O.Gingras,
- D.R.Hamann, G.Hautier, F.Jollet, G. Jomard,
- A.Martin, 
- H.P.C. Miranda, F.Naccarato, G.Petretto, N.A. Pike, V.Planes,
- S.Prokhorenko, T. Rangel, F.Ricci, G.-M.Rignanese, M.Royo, M.Stengel, M.Torrent,
- M.J.van Setten, B.Van Troeye, M.J.Verstraete, J.Wiktor, J.W.Zwanziger, and X.Gonze.
- Comment: a global overview of ABINIT, with focus on selected capabilities .
- Note that a version of this paper, that is not formatted for J. Chem. Phys 
- is available at https://www.abinit.org/sites/default/files/ABINIT20_JPC.pdf .
- The licence allows the authors to put it on the Web.
- DOI and bibtex: see https://docs.abinit.org/theory/bibliography/#romero2020
-
- [5] Recent developments in the ABINIT software package.
- Computer Phys. Comm. 205, 106 (2016).
- X.Gonze, F.Jollet, F.Abreu Araujo, D.Adams, B.Amadon, T.Applencourt,
- C.Audouze, J.-M.Beuken, J.Bieder, A.Bokhanchuk, E.Bousquet, F.Bruneval
- D.Caliste, M.Cote, F.Dahm, F.Da Pieve, M.Delaveau, M.Di Gennaro,
- B.Dorado, C.Espejo, G.Geneste, L.Genovese, A.Gerossier, M.Giantomassi,
- Y.Gillet, D.R.Hamann, L.He, G.Jomard, J.Laflamme Janssen, S.Le Roux,
- A.Levitt, A.Lherbier, F.Liu, I.Lukacevic, A.Martin, C.Martins,
- M.J.T.Oliveira, S.Ponce, Y.Pouillon, T.Rangel, G.-M.Rignanese,
- A.H.Romero, B.Rousseau, O.Rubel, A.A.Shukri, M.Stankovski, M.Torrent,
- M.J.Van Setten, B.Van Troeye, M.J.Verstraete, D.Waroquier, J.Wiktor,
- B.Xu, A.Zhou, J.W.Zwanziger.
- Comment: the fourth generic paper describing the ABINIT project.
- Note that a version of this paper, that is not formatted for Computer Phys. Comm. 
- is available at https://www.abinit.org/sites/default/files/ABINIT16.pdf .
- The licence allows the authors to put it on the Web.
- DOI and bibtex: see https://docs.abinit.org/theory/bibliography/#gonze2016
-
- Proc.   0 individual time (sec): cpu=       4994.8  wall=       5016.0

================================================================================

 Calculation completed.
.Delivered   0 WARNINGs and   4 COMMENTs to log file.
+Overall time at end (sec) : cpu=      29960.4  wall=      30096.1
