
.Version 9.2.2 of ABINIT 
.(MPI version, prepared for a x86_64_linux_gnu9.3 computer) 

.Copyright (C) 1998-2020 ABINIT group . 
 ABINIT comes with ABSOLUTELY NO WARRANTY.
 It is free software, and you are welcome to redistribute it
 under certain conditions (GNU General Public License,
 see ~abinit/COPYING or http://www.gnu.org/copyleft/gpl.txt).

 ABINIT is a project of the Universite Catholique de Louvain,
 Corning Inc. and other collaborators, see ~abinit/doc/developers/contributors.txt .
 Please read https://docs.abinit.org/theory/acknowledgments for suggested
 acknowledgments of the ABINIT effort.
 For more information, see https://www.abinit.org .

.Starting date : Thu 15 Dec 2022.
- ( at 07h30 )
  
- The starting date is more than 2 years after the initial release
- of this version of ABINIT, namely Nov 2020.
- Note that the use beyond 3 years after the release will not be supported.
- Action: please, switch to a more recent version of ABINIT.

- input  file    -> Cs2TiI6.in
- output file    -> Cs2TiI6.out
- root for input  files -> Cs2TiI6i
- root for output files -> Cs2TiI6o

- inpspheads : Reading pseudopotential header in XML form from 
-   ../../../Psps_for_tests/ATOMICDATA/Cs.GGA_PBE-JTH.xml
- inpspheads : Reading pseudopotential header in XML form from 
-   ../../../Psps_for_tests/ATOMICDATA/I.GGA_PBE-JTH.xml
- inpspheads : Reading pseudopotential header in XML form from 
-   ../../../Psps_for_tests/ATOMICDATA/Zr.GGA_PBE-JTH.xml
- inpspheads : Reading pseudopotential header in XML form from 
-   ../../../Psps_for_tests/ATOMICDATA/Cl.GGA_PBE-JTH.xml

 DATASET    1 : space group I4 m m (#107); Bravais tI (body-center tetrag.)
================================================================================
 Values of the parameters that define the memory need for DATASET  1.
     intxc =       0    ionmov =       0      iscf =      17    lmnmax =      18
     lnmax =       6     mgfft =      54  mpssoang =       3    mqgrid =    3396
     natom =       9  nloc_mem =       2    nspden =       1   nspinor =       1
    nsppol =       1      nsym =       8    n1xccc =       1    ntypat =       4
    occopt =       1   xclevel =       2
-    mband =          42        mffmem =           1         mkmem =          41
       mpw =        6806          nfft =      157464          nkpt =         163
Pmy_natom=         3
 PAW method is used; the additional fine FFT grid is defined by:
   mgfftf=        90    nfftf =    729000
================================================================================
P This job should need less than                     404.324 Mbytes of memory.
  Rough estimation (10% accuracy) of disk space for files :
_ WF disk file :    710.968 Mbytes ; DEN or POT disk file :      5.564 Mbytes.
================================================================================


 DATASET    2 : space group I4 m m (#107); Bravais tI (body-center tetrag.)
================================================================================
 Values of the parameters that define the memory need for DATASET  2.
     intxc =       0    ionmov =       0      iscf =      17    lmnmax =      18
     lnmax =       6     mgfft =      54  mpssoang =       3    mqgrid =    3393
     natom =       9  nloc_mem =       2    nspden =       1   nspinor =       1
    nsppol =       1      nsym =       8    n1xccc =       1    ntypat =       4
    occopt =       1   xclevel =       2
-    mband =          42        mffmem =           1         mkmem =          41
       mpw =        6786          nfft =      157464          nkpt =         163
Pmy_natom=         3
 PAW method is used; the additional fine FFT grid is defined by:
   mgfftf=        90    nfftf =    729000
================================================================================
P This job should need less than                     403.746 Mbytes of memory.
  Rough estimation (10% accuracy) of disk space for files :
_ WF disk file :    708.879 Mbytes ; DEN or POT disk file :      5.564 Mbytes.
================================================================================


 DATASET    3 : space group I4 m m (#107); Bravais tI (body-center tetrag.)
================================================================================
 Values of the parameters that define the memory need for DATASET  3.
     intxc =       0    ionmov =       0      iscf =      17    lmnmax =      18
     lnmax =       6     mgfft =      54  mpssoang =       3    mqgrid =    3390
     natom =       9  nloc_mem =       2    nspden =       1   nspinor =       1
    nsppol =       1      nsym =       8    n1xccc =       1    ntypat =       4
    occopt =       1   xclevel =       2
-    mband =          42        mffmem =           1         mkmem =          41
       mpw =        6754          nfft =      157464          nkpt =         163
Pmy_natom=         3
 PAW method is used; the additional fine FFT grid is defined by:
   mgfftf=        90    nfftf =    729000
================================================================================
P This job should need less than                     402.814 Mbytes of memory.
  Rough estimation (10% accuracy) of disk space for files :
_ WF disk file :    705.536 Mbytes ; DEN or POT disk file :      5.564 Mbytes.
================================================================================


 DATASET    4 : space group I4 m m (#107); Bravais tI (body-center tetrag.)
================================================================================
 Values of the parameters that define the memory need for DATASET  4.
     intxc =       0    ionmov =       0      iscf =      17    lmnmax =      18
     lnmax =       6     mgfft =      54  mpssoang =       3    mqgrid =    3386
     natom =       9  nloc_mem =       2    nspden =       1   nspinor =       1
    nsppol =       1      nsym =       8    n1xccc =       1    ntypat =       4
    occopt =       1   xclevel =       2
-    mband =          42        mffmem =           1         mkmem =          41
       mpw =        6730          nfft =      157464          nkpt =         163
Pmy_natom=         3
 PAW method is used; the additional fine FFT grid is defined by:
   mgfftf=        90    nfftf =    729000
================================================================================
P This job should need less than                     402.118 Mbytes of memory.
  Rough estimation (10% accuracy) of disk space for files :
_ WF disk file :    703.029 Mbytes ; DEN or POT disk file :      5.564 Mbytes.
================================================================================


 DATASET    5 : space group I4 m m (#107); Bravais tI (body-center tetrag.)
================================================================================
 Values of the parameters that define the memory need for DATASET  5.
     intxc =       0    ionmov =       0      iscf =      17    lmnmax =      18
     lnmax =       6     mgfft =      54  mpssoang =       3    mqgrid =    3383
     natom =       9  nloc_mem =       2    nspden =       1   nspinor =       1
    nsppol =       1      nsym =       8    n1xccc =       1    ntypat =       4
    occopt =       1   xclevel =       2
-    mband =          42        mffmem =           1         mkmem =          41
       mpw =        6710          nfft =      157464          nkpt =         163
Pmy_natom=         3
 PAW method is used; the additional fine FFT grid is defined by:
   mgfftf=        90    nfftf =    729000
================================================================================
P This job should need less than                     401.541 Mbytes of memory.
  Rough estimation (10% accuracy) of disk space for files :
_ WF disk file :    700.940 Mbytes ; DEN or POT disk file :      5.564 Mbytes.
================================================================================


 DATASET    6 : space group I4 m m (#107); Bravais tI (body-center tetrag.)
================================================================================
 Values of the parameters that define the memory need for DATASET  6.
     intxc =       0    ionmov =       0      iscf =      17    lmnmax =      18
     lnmax =       6     mgfft =      54  mpssoang =       3    mqgrid =    3379
     natom =       9  nloc_mem =       2    nspden =       1   nspinor =       1
    nsppol =       1      nsym =       8    n1xccc =       1    ntypat =       4
    occopt =       1   xclevel =       2
-    mband =          42        mffmem =           1         mkmem =          41
       mpw =        6674          nfft =      157464          nkpt =         163
Pmy_natom=         3
 PAW method is used; the additional fine FFT grid is defined by:
   mgfftf=        90    nfftf =    729000
================================================================================
P This job should need less than                     400.491 Mbytes of memory.
  Rough estimation (10% accuracy) of disk space for files :
_ WF disk file :    697.179 Mbytes ; DEN or POT disk file :      5.564 Mbytes.
================================================================================


 DATASET    7 : space group I4 m m (#107); Bravais tI (body-center tetrag.)
================================================================================
 Values of the parameters that define the memory need for DATASET  7.
     intxc =       0    ionmov =       0      iscf =      17    lmnmax =      18
     lnmax =       6     mgfft =      54  mpssoang =       3    mqgrid =    3376
     natom =       9  nloc_mem =       2    nspden =       1   nspinor =       1
    nsppol =       1      nsym =       8    n1xccc =       1    ntypat =       4
    occopt =       1   xclevel =       2
-    mband =          42        mffmem =           1         mkmem =          41
       mpw =        6658          nfft =      157464          nkpt =         163
Pmy_natom=         3
 PAW method is used; the additional fine FFT grid is defined by:
   mgfftf=        90    nfftf =    729000
================================================================================
P This job should need less than                     400.032 Mbytes of memory.
  Rough estimation (10% accuracy) of disk space for files :
_ WF disk file :    695.508 Mbytes ; DEN or POT disk file :      5.564 Mbytes.
================================================================================


 DATASET    8 : space group I4 m m (#107); Bravais tI (body-center tetrag.)
================================================================================
 Values of the parameters that define the memory need for DATASET  8.
     intxc =       0    ionmov =       0      iscf =      17    lmnmax =      18
     lnmax =       6     mgfft =      54  mpssoang =       3    mqgrid =    3373
     natom =       9  nloc_mem =       2    nspden =       1   nspinor =       1
    nsppol =       1      nsym =       8    n1xccc =       1    ntypat =       4
    occopt =       1   xclevel =       2
-    mband =          42        mffmem =           1         mkmem =          41
       mpw =        6630          nfft =      157464          nkpt =         163
Pmy_natom=         3
 PAW method is used; the additional fine FFT grid is defined by:
   mgfftf=        90    nfftf =    729000
================================================================================
P This job should need less than                     399.218 Mbytes of memory.
  Rough estimation (10% accuracy) of disk space for files :
_ WF disk file :    692.583 Mbytes ; DEN or POT disk file :      5.564 Mbytes.
================================================================================


 DATASET    9 : space group I4 m m (#107); Bravais tI (body-center tetrag.)
================================================================================
 Values of the parameters that define the memory need for DATASET  9.
     intxc =       0    ionmov =       0      iscf =      17    lmnmax =      18
     lnmax =       6     mgfft =      54  mpssoang =       3    mqgrid =    3369
     natom =       9  nloc_mem =       2    nspden =       1   nspinor =       1
    nsppol =       1      nsym =       8    n1xccc =       1    ntypat =       4
    occopt =       1   xclevel =       2
-    mband =          42        mffmem =           1         mkmem =          41
       mpw =        6618          nfft =      157464          nkpt =         163
Pmy_natom=         3
 PAW method is used; the additional fine FFT grid is defined by:
   mgfftf=        90    nfftf =    729000
================================================================================
P This job should need less than                     398.878 Mbytes of memory.
  Rough estimation (10% accuracy) of disk space for files :
_ WF disk file :    691.329 Mbytes ; DEN or POT disk file :      5.564 Mbytes.
================================================================================


 DATASET   10 : space group I4 m m (#107); Bravais tI (body-center tetrag.)
================================================================================
 Values of the parameters that define the memory need for DATASET 10.
     intxc =       0    ionmov =       0      iscf =      17    lmnmax =      18
     lnmax =       6     mgfft =      54  mpssoang =       3    mqgrid =    3366
     natom =       9  nloc_mem =       2    nspden =       1   nspinor =       1
    nsppol =       1      nsym =       8    n1xccc =       1    ntypat =       4
    occopt =       1   xclevel =       2
-    mband =          42        mffmem =           1         mkmem =          41
       mpw =        6604          nfft =      157464          nkpt =         163
Pmy_natom=         3
 PAW method is used; the additional fine FFT grid is defined by:
   mgfftf=        90    nfftf =    729000
================================================================================
P This job should need less than                     398.478 Mbytes of memory.
  Rough estimation (10% accuracy) of disk space for files :
_ WF disk file :    689.867 Mbytes ; DEN or POT disk file :      5.564 Mbytes.
================================================================================

--------------------------------------------------------------------------------
------------- Echo of variables that govern the present computation ------------
--------------------------------------------------------------------------------
-
- outvars: echo of selected default values                                      
-   iomode0 =  0 , fftalg0 =112 , wfoptalg0 = 10
-
- outvars: echo of global parameters not present in the input file              
-  max_nthreads =    0
-
 -outvars: echo values of preprocessed input variables --------
            acell1     1.4535283150E+01  1.4535283150E+01  1.4774817479E+01 Bohr
            acell2     1.4520209134E+01  1.4520209134E+01  1.4761212057E+01 Bohr
            acell3     1.4505352458E+01  1.4505352458E+01  1.4747116147E+01 Bohr
            acell4     1.4490466905E+01  1.4490466905E+01  1.4733085950E+01 Bohr
            acell5     1.4475212856E+01  1.4475212856E+01  1.4719890767E+01 Bohr
            acell6     1.4460324493E+01  1.4460324493E+01  1.4705868346E+01 Bohr
            acell7     1.4445357386E+01  1.4445357386E+01  1.4692025011E+01 Bohr
            acell8     1.4430367813E+01  1.4430367813E+01  1.4678233389E+01 Bohr
            acell9     1.4414253210E+01  1.4414253210E+01  1.4667001341E+01 Bohr
            acell10    1.4399124687E+01  1.4399124687E+01  1.4653529970E+01 Bohr
              amu      1.32905430E+02  1.26904470E+02  9.12240000E+01
                       3.54527000E+01
           diemac      1.20000000E+01
             ecut      1.60000000E+01 Hartree
-          fftalg         112
           istwfk        2    0    0    0    0    0    3    0    0    0
                         0    0    0    0    0    0    0    0    0    0
                         0    0    0    0    0    0    0    0    0    0
                         0    0    0    0    0    0    0    0    0    0
                         0    0    7    0    0    0    0    0    0    0
                       outvar_i_n : Printing only first  50 k-points.
              ixc     -101130
           jdtset        1    2    3    4    5    6    7    8    9   10
              kpt      0.00000000E+00  0.00000000E+00  0.00000000E+00
                       8.33333333E-02  0.00000000E+00  0.00000000E+00
                       1.66666667E-01  0.00000000E+00  0.00000000E+00
                       2.50000000E-01  0.00000000E+00  0.00000000E+00
                       3.33333333E-01  0.00000000E+00  0.00000000E+00
                       4.16666667E-01  0.00000000E+00  0.00000000E+00
                       5.00000000E-01  0.00000000E+00  0.00000000E+00
                       8.33333333E-02  8.33333333E-02  0.00000000E+00
                       1.66666667E-01  8.33333333E-02  0.00000000E+00
                       2.50000000E-01  8.33333333E-02  0.00000000E+00
                       3.33333333E-01  8.33333333E-02  0.00000000E+00
                       4.16666667E-01  8.33333333E-02  0.00000000E+00
                       5.00000000E-01  8.33333333E-02  0.00000000E+00
                      -4.16666667E-01  8.33333333E-02  0.00000000E+00
                      -3.33333333E-01  8.33333333E-02  0.00000000E+00
                      -2.50000000E-01  8.33333333E-02  0.00000000E+00
                      -1.66666667E-01  8.33333333E-02  0.00000000E+00
                      -8.33333333E-02  8.33333333E-02  0.00000000E+00
                       1.66666667E-01  1.66666667E-01  0.00000000E+00
                       2.50000000E-01  1.66666667E-01  0.00000000E+00
                       3.33333333E-01  1.66666667E-01  0.00000000E+00
                       4.16666667E-01  1.66666667E-01  0.00000000E+00
                       5.00000000E-01  1.66666667E-01  0.00000000E+00
                      -4.16666667E-01  1.66666667E-01  0.00000000E+00
                      -3.33333333E-01  1.66666667E-01  0.00000000E+00
                      -2.50000000E-01  1.66666667E-01  0.00000000E+00
                      -1.66666667E-01  1.66666667E-01  0.00000000E+00
                       2.50000000E-01  2.50000000E-01  0.00000000E+00
                       3.33333333E-01  2.50000000E-01  0.00000000E+00
                       4.16666667E-01  2.50000000E-01  0.00000000E+00
                       5.00000000E-01  2.50000000E-01  0.00000000E+00
                      -4.16666667E-01  2.50000000E-01  0.00000000E+00
                      -3.33333333E-01  2.50000000E-01  0.00000000E+00
                      -2.50000000E-01  2.50000000E-01  0.00000000E+00
                       3.33333333E-01  3.33333333E-01  0.00000000E+00
                       4.16666667E-01  3.33333333E-01  0.00000000E+00
                       5.00000000E-01  3.33333333E-01  0.00000000E+00
                      -4.16666667E-01  3.33333333E-01  0.00000000E+00
                      -3.33333333E-01  3.33333333E-01  0.00000000E+00
                       4.16666667E-01  4.16666667E-01  0.00000000E+00
                       5.00000000E-01  4.16666667E-01  0.00000000E+00
                      -4.16666667E-01  4.16666667E-01  0.00000000E+00
                       5.00000000E-01  5.00000000E-01  0.00000000E+00
                       8.33333333E-02  0.00000000E+00  8.33333333E-02
                       1.66666667E-01  0.00000000E+00  8.33333333E-02
                       2.50000000E-01  0.00000000E+00  8.33333333E-02
                       3.33333333E-01  0.00000000E+00  8.33333333E-02
                       4.16666667E-01  0.00000000E+00  8.33333333E-02
                       5.00000000E-01  0.00000000E+00  8.33333333E-02
                      -4.16666667E-01  0.00000000E+00  8.33333333E-02
                       outvar_i_n : Printing only first  50 k-points.
         kptrlatt       12    0    0      0   12    0      0    0   12
          kptrlen1     1.74423398E+02
          kptrlen2     1.74242510E+02
          kptrlen3     1.74064229E+02
          kptrlen4     1.73885603E+02
          kptrlen5     1.73702554E+02
          kptrlen6     1.73523894E+02
          kptrlen7     1.73344289E+02
          kptrlen8     1.73164414E+02
          kptrlen9     1.72971039E+02
          kptrlen10    1.72789496E+02
P           mkmem          41
            natom           9
            nband          42
           ndtset          10
            ngfft          54      54      54
          ngfftdg          90      90      90
             nkpt         163
            nstep        2500
             nsym           8
           ntypat           4
              occ      2.000000  2.000000  2.000000  2.000000  2.000000  2.000000
                       2.000000  2.000000  2.000000  2.000000  2.000000  2.000000
                       2.000000  2.000000  2.000000  2.000000  2.000000  2.000000
                       2.000000  2.000000  2.000000  2.000000  2.000000  2.000000
                       2.000000  2.000000  2.000000  2.000000  2.000000  2.000000
                       2.000000  2.000000  2.000000  2.000000  2.000000  2.000000
                       0.000000  0.000000  0.000000  0.000000  0.000000  0.000000
        pawecutdg      4.00000000E+01 Hartree
            prtwf           0
            rprim1     0.0000000000E+00  7.1875955370E-01  6.9525873167E-01
                       7.1875955370E-01  0.0000000000E+00  6.9525873167E-01
                       7.0710678119E-01  7.0710678119E-01  0.0000000000E+00
            rprim2     0.0000000000E+00  7.1884316869E-01  6.9517227996E-01
                       7.1884316869E-01  0.0000000000E+00  6.9517227996E-01
                       7.0710678119E-01  7.0710678119E-01  0.0000000000E+00
            rprim3     0.0000000000E+00  7.1889227516E-01  6.9512149781E-01
                       7.1889227516E-01  0.0000000000E+00  6.9512149781E-01
                       7.0710678119E-01  7.0710678119E-01  0.0000000000E+00
            rprim4     0.0000000000E+00  7.1894612165E-01  6.9506580564E-01
                       7.1894612165E-01  0.0000000000E+00  6.9506580564E-01
                       7.0710678119E-01  7.0710678119E-01  0.0000000000E+00
            rprim5     0.0000000000E+00  7.1905917258E-01  6.9494885159E-01
                       7.1905917258E-01  0.0000000000E+00  6.9494885159E-01
                       7.0710678119E-01  7.0710678119E-01  0.0000000000E+00
            rprim6     0.0000000000E+00  7.1911382318E-01  6.9489230051E-01
                       7.1911382318E-01  0.0000000000E+00  6.9489230051E-01
                       7.0710678119E-01  7.0710678119E-01  0.0000000000E+00
            rprim7     0.0000000000E+00  7.1918127304E-01  6.9482249281E-01
                       7.1918127304E-01  0.0000000000E+00  6.9482249281E-01
                       7.0710678119E-01  7.0710678119E-01  0.0000000000E+00
            rprim8     0.0000000000E+00  7.1925251660E-01  6.9474874405E-01
                       7.1925251660E-01  0.0000000000E+00  6.9474874405E-01
                       7.0710678119E-01  7.0710678119E-01  0.0000000000E+00
            rprim9     0.0000000000E+00  7.1950561410E-01  6.9448662426E-01
                       7.1950561410E-01  0.0000000000E+00  6.9448662426E-01
                       7.0710678119E-01  7.0710678119E-01  0.0000000000E+00
            rprim10    0.0000000000E+00  7.1960001982E-01  6.9438880426E-01
                       7.1960001982E-01  0.0000000000E+00  6.9438880426E-01
                       7.0710678119E-01  7.0710678119E-01  0.0000000000E+00
          spgroup         107
           symrel      1  0  0   0  1  0   0  0  1       1  0 -1   0  1 -1   0  0 -1
                       0  1 -1   1  0 -1   0  0 -1       0  1  0   1  0  0   0  0  1
                       1  0  0   1  0 -1   1 -1  0       0  1  0   0  1 -1  -1  1  0
                       0  1 -1   0  1  0  -1  1  0       1  0 -1   1  0  0   1 -1  0
           toldfe      1.00000000E-08 Hartree
            typat      1  1  4  2  2  2  2  2  3
           useylm           1
              wtk        0.00058    0.00463    0.00463    0.00463    0.00463    0.00463
                         0.00231    0.00116    0.00463    0.00463    0.00463    0.00463
                         0.00463    0.00463    0.00463    0.00463    0.00463    0.00231
                         0.00116    0.00463    0.00463    0.00463    0.00463    0.00463
                         0.00463    0.00463    0.00231    0.00116    0.00463    0.00463
                         0.00463    0.00463    0.00463    0.00231    0.00116    0.00463
                         0.00463    0.00463    0.00231    0.00116    0.00463    0.00231
                         0.00058    0.00231    0.00926    0.00926    0.00926    0.00926
                         0.00926    0.00926
                       outvars : Printing only first  50 k-points.
           xangst1     2.7642560073E+00  2.7642560073E+00  2.6877631471E+00
                       8.2927680219E+00  8.2927680219E+00  8.0355129355E+00
                       5.5285120147E+00  5.5285120147E+00  2.5599644120E+00
                       5.5285120146E+00  5.5285120146E+00  7.9854242917E+00
                       8.2267357916E+00  5.5285120147E+00  5.3469134098E+00
                       5.5285120147E+00  8.2267357916E+00  5.3469134098E+00
                       5.5285120146E+00  2.8302882376E+00  5.3469134098E+00
                       2.8302882376E+00  5.5285120146E+00  5.3469134098E+00
                      -2.7876772342E-12 -2.7876772342E-12  1.2567988177E-01
           xangst2     2.7617105363E+00  2.7617105363E+00  2.6840187214E+00
                       8.2851316090E+00  8.2851316090E+00  8.0255582776E+00
                       5.5234210727E+00  5.5234210727E+00  2.5604177961E+00
                       5.5234210727E+00  5.5234210727E+00  7.9749182405E+00
                       8.2176920528E+00  5.5234210727E+00  5.3402226694E+00
                       5.5234210727E+00  8.2176920528E+00  5.3402226694E+00
                       5.5234210727E+00  2.8291500925E+00  5.3402226694E+00
                       2.8291500925E+00  5.5234210727E+00  5.3402226694E+00
                      -1.0167678347E-12 -1.0167678347E-12  1.2651273609E-01
           xangst3     2.7590732988E+00  2.7590732988E+00  2.6807023677E+00
                       8.2772198964E+00  8.2772198964E+00  8.0163868097E+00
                       5.5181465976E+00  5.5181465976E+00  2.5609233405E+00
                       5.5181465976E+00  5.5181465976E+00  7.9649018242E+00
                       8.2083432642E+00  5.5181465976E+00  5.3338255706E+00
                       5.5181465976E+00  8.2083432642E+00  5.3338255706E+00
                       5.5181465976E+00  2.8279499310E+00  5.3338255706E+00
                       2.8279499310E+00  5.5181465976E+00  5.3338255706E+00
                      -6.8960988071E-14 -6.8960988071E-14  1.2725891098E-01
           xangst4     2.7564483555E+00  2.7564483555E+00  2.6773270227E+00
                       8.2693450665E+00  8.2693450665E+00  8.0071088774E+00
                       5.5128967111E+00  5.5128967111E+00  2.5614014182E+00
                       5.5128967109E+00  5.5128967109E+00  7.9548369037E+00
                       8.1990488575E+00  5.5128967111E+00  5.3273888339E+00
                       5.5128967111E+00  8.1990488575E+00  5.3273888339E+00
                       5.5128967109E+00  2.8267445645E+00  5.3273888339E+00
                       2.8267445645E+00  5.5128967109E+00  5.3273888339E+00
                      -5.4193396782E-12 -5.4193396782E-12  1.2802527977E-01
           xangst5     2.7539796371E+00  2.7539796371E+00  2.6739892557E+00
                       8.2619389114E+00  8.2619389114E+00  7.9972646107E+00
                       5.5079592743E+00  5.5079592743E+00  2.5616189147E+00
                       5.5079592742E+00  5.5079592742E+00  7.9434657331E+00
                       8.1903745548E+00  5.5079592743E+00  5.3203082882E+00
                       5.5079592743E+00  8.1903745548E+00  5.3203082882E+00
                       5.5079592742E+00  2.8255439937E+00  5.3203082882E+00
                       2.8255439937E+00  5.5079592742E+00  5.3203082882E+00
                      -3.6253276299E-12 -3.6253276299E-12  1.2863117234E-01
           xangst6     2.7513561488E+00  2.7513561488E+00  2.6706701379E+00
                       8.2540684465E+00  8.2540684465E+00  7.9880375480E+00
                       5.5027122977E+00  5.5027122977E+00  2.5620276885E+00
                       5.5027122977E+00  5.5027122977E+00  7.9333969662E+00
                       8.1811060987E+00  5.5027122977E+00  5.3138534673E+00
                       5.5027122977E+00  8.1811060987E+00  5.3138534673E+00
                       5.5027122977E+00  2.8243184966E+00  5.3138534673E+00
                       2.8243184966E+00  5.5027122977E+00  5.3138534673E+00
                      -1.0259582594E-12 -1.0259582594E-12  1.2939307081E-01
           xangst7     2.7487661661E+00  2.7487661661E+00  2.6673022590E+00
                       8.2462984983E+00  8.2462984983E+00  7.9786323263E+00
                       5.4975323322E+00  5.4975323322E+00  2.5624754822E+00
                       5.4975323322E+00  5.4975323322E+00  7.9230591415E+00
                       8.1719831755E+00  5.4975323322E+00  5.3072577723E+00
                       5.4975323322E+00  8.1719831755E+00  5.3072577723E+00
                       5.4975323322E+00  2.8230814889E+00  5.3072577723E+00
                       2.8230814889E+00  5.4975323322E+00  5.3072577723E+00
                      -2.0093319626E-12 -2.0093319626E-12  1.3014023918E-01
           xangst8     2.7461858585E+00  2.7461858585E+00  2.6638019521E+00
                       8.2385575755E+00  8.2385575755E+00  7.9690574279E+00
                       5.4923717170E+00  5.4923717170E+00  2.5628951268E+00
                       5.4923717169E+00  5.4923717169E+00  7.9127636724E+00
                       8.1629076070E+00  5.4923717170E+00  5.3006422613E+00
                       5.4923717170E+00  8.1629076070E+00  5.3006422613E+00
                       5.4923717169E+00  2.8218358270E+00  5.3006422613E+00
                       2.8218358270E+00  5.4923717169E+00  5.3006422613E+00
                      -1.8776388988E-12 -1.8776388988E-12  1.3095658190E-01
           xangst9     2.7440844277E+00  2.7440844277E+00  2.6587928288E+00
                       8.2322532831E+00  8.2322532831E+00  7.9561244785E+00
                       5.4881688555E+00  5.4881688555E+00  2.5642490087E+00
                       5.4881688554E+00  5.4881688554E+00  7.8991560076E+00
                       8.1557651423E+00  5.4881688555E+00  5.2919916054E+00
                       5.4881688555E+00  8.1557651423E+00  5.2919916054E+00
                       5.4881688554E+00  2.8205725685E+00  5.2919916054E+00
                       2.8205725685E+00  5.4881688554E+00  5.2919916054E+00
                      -1.9171353201E-12 -1.9171353201E-12  1.3236445213E-01
           xangst10    2.7415640367E+00  2.7415640367E+00  2.6551329529E+00
                       8.2246921100E+00  8.2246921100E+00  7.9461594142E+00
                       5.4831280733E+00  5.4831280733E+00  2.5647458102E+00
                       5.4831280733E+00  5.4831280733E+00  7.8884465798E+00
                       8.1469376936E+00  5.4831280733E+00  5.2851232141E+00
                       5.4831280733E+00  8.1469376936E+00  5.2851232141E+00
                       5.4831280733E+00  2.8193184531E+00  5.2851232141E+00
                       2.8193184531E+00  5.4831280733E+00  5.2851232141E+00
                      -1.3634478489E-14 -1.3634478489E-14  1.3323407685E-01
            xcart1     5.2236868150E+00  5.2236868150E+00  5.0791362580E+00
                       1.5671060445E+01  1.5671060445E+01  1.5184918785E+01
                       1.0447373630E+01  1.0447373630E+01  4.8376316485E+00
                       1.0447373630E+01  1.0447373630E+01  1.5090264966E+01
                       1.5546277614E+01  1.0447373630E+01  1.0104202001E+01
                       1.0447373630E+01  1.5546277614E+01  1.0104202001E+01
                       1.0447373630E+01  5.3484696463E+00  1.0104202001E+01
                       5.3484696463E+00  1.0447373630E+01  1.0104202001E+01
                      -5.2679465195E-12 -5.2679465195E-12  2.3750055697E-01
            xcart2     5.2188765720E+00  5.2188765720E+00  5.0720603190E+00
                       1.5656629716E+01  1.5656629716E+01  1.5166107208E+01
                       1.0437753144E+01  1.0437753144E+01  4.8384884205E+00
                       1.0437753144E+01  1.0437753144E+01  1.5070411407E+01
                       1.5529187424E+01  1.0437753144E+01  1.0091558334E+01
                       1.0437753144E+01  1.5529187424E+01  1.0091558334E+01
                       1.0437753144E+01  5.3463188637E+00  1.0091558334E+01
                       5.3463188637E+00  1.0437753144E+01  1.0091558334E+01
                      -1.9214127482E-12 -1.9214127482E-12  2.3907442354E-01
            xcart3     5.2138929153E+00  5.2138929153E+00  5.0657933187E+00
                       1.5641678746E+01  1.5641678746E+01  1.5148775646E+01
                       1.0427785831E+01  1.0427785831E+01  4.8394437609E+00
                       1.0427785831E+01  1.0427785831E+01  1.5051483123E+01
                       1.5511520774E+01  1.0427785831E+01  1.0079469569E+01
                       1.0427785831E+01  1.5511520774E+01  1.0079469569E+01
                       1.0427785831E+01  5.3440508871E+00  1.0079469569E+01
                       5.3440508871E+00  1.0427785831E+01  1.0079469569E+01
                      -1.3031738131E-13 -1.3031738131E-13  2.4048448972E-01
            xcart4     5.2089324913E+00  5.2089324913E+00  5.0594148411E+00
                       1.5626797474E+01  1.5626797474E+01  1.5131242894E+01
                       1.0417864983E+01  1.0417864983E+01  4.8403471967E+00
                       1.0417864982E+01  1.0417864982E+01  1.5032463180E+01
                       1.5493956891E+01  1.0417864983E+01  1.0067305900E+01
                       1.0417864983E+01  1.5493956891E+01  1.0067305900E+01
                       1.0417864982E+01  5.3417730745E+00  1.0067305900E+01
                       5.3417730745E+00  1.0417864982E+01  1.0067305900E+01
                      -1.0241067813E-11 -1.0241067813E-11  2.4193271685E-01
            xcart5     5.2042672897E+00  5.2042672897E+00  5.0531073756E+00
                       1.5612801869E+01  1.5612801869E+01  1.5112639926E+01
                       1.0408534580E+01  1.0408534580E+01  4.8407582056E+00
                       1.0408534579E+01  1.0408534579E+01  1.5010974781E+01
                       1.5477564834E+01  1.0408534580E+01  1.0053925607E+01
                       1.0408534580E+01  1.5477564834E+01  1.0053925607E+01
                       1.0408534579E+01  5.3395043245E+00  1.0053925607E+01
                       5.3395043245E+00  1.0408534579E+01  1.0053925607E+01
                      -6.8508763625E-12 -6.8508763625E-12  2.4307768787E-01
            xcart6     5.1993096153E+00  5.1993096153E+00  5.0468351518E+00
                       1.5597928846E+01  1.5597928846E+01  1.5095203305E+01
                       1.0398619231E+01  1.0398619231E+01  4.8415306761E+00
                       1.0398619231E+01  1.0398619231E+01  1.4991947570E+01
                       1.5460049991E+01  1.0398619231E+01  1.0041727764E+01
                       1.0398619231E+01  1.5460049991E+01  1.0041727764E+01
                       1.0398619231E+01  5.3371884707E+00  1.0041727764E+01
                       5.3371884707E+00  1.0398619231E+01  1.0041727764E+01
                      -1.9387801340E-12 -1.9387801340E-12  2.4451746733E-01
            xcart7     5.1944152573E+00  5.1944152573E+00  5.0404707832E+00
                       1.5583245772E+01  1.5583245772E+01  1.5077430012E+01
                       1.0388830515E+01  1.0388830515E+01  4.8423768836E+00
                       1.0388830514E+01  1.0388830514E+01  1.4972411912E+01
                       1.5442810164E+01  1.0388830515E+01  1.0029263706E+01
                       1.0388830515E+01  1.5442810164E+01  1.0029263706E+01
                       1.0388830514E+01  5.3348508648E+00  1.0029263706E+01
                       5.3348508648E+00  1.0388830514E+01  1.0029263706E+01
                      -3.7970871194E-12 -3.7970871194E-12  2.4592941092E-01
            xcart8     5.1895391826E+00  5.1895391826E+00  5.0338561617E+00
                       1.5568617548E+01  1.5568617548E+01  1.5059336076E+01
                       1.0379078365E+01  1.0379078365E+01  4.8431698970E+00
                       1.0379078365E+01  1.0379078365E+01  1.4952956295E+01
                       1.5425659825E+01  1.0379078365E+01  1.0016762202E+01
                       1.0379078365E+01  1.5425659825E+01  1.0016762202E+01
                       1.0379078365E+01  5.3324969049E+00  1.0016762202E+01
                       5.3324969049E+00  1.0379078365E+01  1.0016762202E+01
                      -3.5482232951E-12 -3.5482232951E-12  2.4747207510E-01
            xcart9     5.1855680539E+00  5.1855680539E+00  5.0243902905E+00
                       1.5556704162E+01  1.5556704162E+01  1.5034896344E+01
                       1.0371136108E+01  1.0371136108E+01  4.8457283630E+00
                       1.0371136108E+01  1.0371136108E+01  1.4927241535E+01
                       1.5412162523E+01  1.0371136108E+01  1.0000414832E+01
                       1.0371136108E+01  1.5412162523E+01  1.0000414832E+01
                       1.0371136108E+01  5.3301096925E+00  1.0000414832E+01
                       5.3301096925E+00  1.0371136108E+01  1.0000414832E+01
                      -3.6228607147E-12 -3.6228607147E-12  2.5013256426E-01
            xcart10    5.1808052051E+00  5.1808052051E+00  5.0174741273E+00
                       1.5542415615E+01  1.5542415615E+01  1.5016065101E+01
                       1.0361610410E+01  1.0361610410E+01  4.8466671817E+00
                       1.0361610410E+01  1.0361610410E+01  1.4907003650E+01
                       1.5395481063E+01  1.0361610410E+01  9.9874354533E+00
                       1.0361610410E+01  1.5395481063E+01  9.9874354533E+00
                       1.0361610410E+01  5.3277397577E+00  9.9874354533E+00
                       5.3277397577E+00  1.0361610410E+01  9.9874354533E+00
                      -2.5765430309E-14 -2.5765430309E-14  2.5177591681E-01
             xred1     2.5129851371E-01  2.5129851371E-01  2.4870148629E-01
                       7.5129851371E-01  7.5129851371E-01  7.4870148629E-01
                       2.3934968101E-01  2.3934968101E-01  7.6065031899E-01
                       7.4661536231E-01  7.4661536231E-01  2.5338463769E-01
                       2.5589377220E-01  7.4394982957E-01  7.4410622780E-01
                       7.4394982957E-01  2.5589377220E-01  7.4410622780E-01
                       2.5589377220E-01  7.4394982957E-01  2.5605017043E-01
                       7.4394982957E-01  2.5589377220E-01  2.5605017043E-01
                       1.1750725702E-02  1.1750725702E-02 -1.1750725702E-02
             xred2     2.5124018021E-01  2.5124018021E-01  2.4875981979E-01
                       7.5124018021E-01  7.5124018021E-01  7.4875981979E-01
                       2.3967039551E-01  2.3967039551E-01  7.6032960449E-01
                       7.4649997034E-01  7.4649997034E-01  2.5350002966E-01
                       2.5598160343E-01  7.4377185963E-01  7.4401839657E-01
                       7.4377185963E-01  2.5598160343E-01  7.4401839657E-01
                       2.5598160343E-01  7.4377185963E-01  2.5622814037E-01
                       7.4377185963E-01  2.5598160343E-01  2.5622814037E-01
                       1.1842347582E-02  1.1842347582E-02 -1.1842347582E-02
             xred3     2.5120510750E-01  2.5120510750E-01  2.4879489250E-01
                       7.5120510750E-01  7.5120510750E-01  7.4879489250E-01
                       2.3998077176E-01  2.3998077176E-01  7.6001922824E-01
                       7.4638051695E-01  7.4638051695E-01  2.5361948305E-01
                       2.5606672844E-01  7.4358488676E-01  7.4393327156E-01
                       7.4358488676E-01  2.5606672844E-01  7.4393327156E-01
                       2.5606672844E-01  7.4358488676E-01  2.5641511324E-01
                       7.4358488676E-01  2.5606672844E-01  2.5641511324E-01
                       1.1925265855E-02  1.1925265855E-02 -1.1925265855E-02
             xred4     2.5116666082E-01  2.5116666082E-01  2.4883333918E-01
                       7.5116666082E-01  7.5116666082E-01  7.4883333918E-01
                       2.4029139353E-01  2.4029139353E-01  7.5970860647E-01
                       7.4626289786E-01  7.4626289786E-01  2.5373710214E-01
                       2.5615111936E-01  7.4339989026E-01  7.4384888064E-01
                       7.4339989026E-01  2.5615111936E-01  7.4384888064E-01
                       2.5615111936E-01  7.4339989026E-01  2.5660010974E-01
                       7.4339989026E-01  2.5615111936E-01  2.5660010974E-01
                       1.2010367709E-02  1.2010367709E-02 -1.2010367709E-02
             xred5     2.5116014835E-01  2.5116014835E-01  2.4883985165E-01
                       7.5116014835E-01  7.5116014835E-01  7.4883985165E-01
                       2.4060552422E-01  2.4060552422E-01  7.5939447578E-01
                       7.4610697394E-01  7.4610697394E-01  2.5389302606E-01
                       2.5621776124E-01  7.4322486260E-01  7.4378223876E-01
                       7.4322486260E-01  2.5621776124E-01  7.4378223876E-01
                       2.5621776124E-01  7.4322486260E-01  2.5677513740E-01
                       7.4322486260E-01  2.5621776124E-01  2.5677513740E-01
                       1.2081957419E-02  1.2081957419E-02 -1.2081957419E-02
             xred6     2.5112710218E-01  2.5112710218E-01  2.4887289782E-01
                       7.5112710218E-01  7.5112710218E-01  7.4887289782E-01
                       2.4091129039E-01  2.4091129039E-01  7.5908870961E-01
                       7.4598916666E-01  7.4598916666E-01  2.5401083334E-01
                       2.5629925003E-01  7.4303990739E-01  7.4370074997E-01
                       7.4303990739E-01  2.5629925003E-01  7.4370074997E-01
                       2.5629925003E-01  7.4303990739E-01  2.5696009261E-01
                       7.4303990739E-01  2.5629925003E-01  2.5696009261E-01
                       1.2167023720E-02  1.2167023720E-02 -1.2167023720E-02
             xred7     2.5109550953E-01  2.5109550953E-01  2.4890449047E-01
                       7.5109550953E-01  7.5109550953E-01  7.4890449047E-01
                       2.4122728674E-01  2.4122728674E-01  7.5877271326E-01
                       7.4586394003E-01  7.4586394003E-01  2.5413605997E-01
                       2.5637561172E-01  7.4285766980E-01  7.4362438828E-01
                       7.4285766980E-01  2.5637561172E-01  7.4362438828E-01
                       2.5637561172E-01  7.4285766980E-01  2.5714233020E-01
                       7.4285766980E-01  2.5637561172E-01  2.5714233020E-01
                       1.2251191089E-02  1.2251191089E-02 -1.2251191089E-02
             xred8     2.5105312687E-01  2.5105312687E-01  2.4894687313E-01
                       7.5105312687E-01  7.5105312687E-01  7.4894687313E-01
                       2.4154304524E-01  2.4154304524E-01  7.5845695476E-01
                       7.4574765612E-01  7.4574765612E-01  2.5425234388E-01
                       2.5645204382E-01  7.4267840060E-01  7.4354795618E-01
                       7.4267840060E-01  2.5645204382E-01  7.4354795618E-01
                       2.5645204382E-01  7.4267840060E-01  2.5732159940E-01
                       7.4267840060E-01  2.5645204382E-01  2.5732159940E-01
                       1.2342156047E-02  1.2342156047E-02 -1.2342156047E-02
             xred9     2.5095585897E-01  2.5095585897E-01  2.4904414103E-01
                       7.5095585897E-01  7.5095585897E-01  7.4904414103E-01
                       2.4203213790E-01  2.4203213790E-01  7.5796786210E-01
                       7.4557876776E-01  7.4557876776E-01  2.5442123224E-01
                       2.5646442579E-01  7.4252751116E-01  7.4353557421E-01
                       7.4252751116E-01  2.5646442579E-01  7.4353557421E-01
                       2.5646442579E-01  7.4252751116E-01  2.5747248884E-01
                       7.4252751116E-01  2.5646442579E-01  2.5747248884E-01
                       1.2493502473E-02  1.2493502473E-02 -1.2493502473E-02
             xred10    2.5090906011E-01  2.5090906011E-01  2.4909093989E-01
                       7.5090906011E-01  7.5090906011E-01  7.4909093989E-01
                       2.4236750930E-01  2.4236750930E-01  7.5763249070E-01
                       7.4545521908E-01  7.4545521908E-01  2.5454478092E-01
                       2.5653247915E-01  7.4235181159E-01  7.4346752085E-01
                       7.4235181159E-01  2.5653247915E-01  7.4346752085E-01
                       2.5653247915E-01  7.4235181159E-01  2.5764818841E-01
                       7.4235181159E-01  2.5653247915E-01  2.5764818841E-01
                       1.2590569885E-02  1.2590569885E-02 -1.2590569885E-02
            znucl       55.00000   53.00000   40.00000   17.00000

================================================================================

 chkinp: Checking input parameters for consistency, jdtset=   1.

 chkinp: Checking input parameters for consistency, jdtset=   2.

 chkinp: Checking input parameters for consistency, jdtset=   3.

 chkinp: Checking input parameters for consistency, jdtset=   4.

 chkinp: Checking input parameters for consistency, jdtset=   5.

 chkinp: Checking input parameters for consistency, jdtset=   6.

 chkinp: Checking input parameters for consistency, jdtset=   7.

 chkinp: Checking input parameters for consistency, jdtset=   8.

 chkinp: Checking input parameters for consistency, jdtset=   9.

 chkinp: Checking input parameters for consistency, jdtset=  10.

================================================================================
== DATASET  1 ==================================================================
-   mpi_nproc: 4, omp_nthreads: -1 (-1 if OMP is not activated)


--- !DatasetInfo
iteration_state: {dtset: 1, }
dimensions: {natom: 9, nkpt: 163, mband: 42, nsppol: 1, nspinor: 1, nspden: 1, mpw: 6806, }
cutoff_energies: {ecut:  16.0, pawecutdg:  40.0, }
electrons: {nelect:   7.20000000E+01, charge:   0.00000000E+00, occopt:   1.00000000E+00, tsmear:   1.00000000E-02, }
meta: {optdriver: 0, ionmov: 0, optcell: 0, iscf: 17, paral_kgb: 0, }
...

 Real(R)+Recip(G) space primitive vectors, cartesian coordinates (Bohr,Bohr^-1):
 R(1)=  0.0000000 10.4473736 10.1057825  G(1)= -0.0478589  0.0478589  0.0494766
 R(2)= 10.4473736  0.0000000 10.1057825  G(2)=  0.0478589 -0.0478589  0.0494766
 R(3)= 10.4473736 10.4473736  0.0000000  G(3)=  0.0478589  0.0478589 -0.0494766
 Unit cell volume ucvol=  2.2060441E+03 bohr^3
 Angles (23,13,12)=  5.94533484E+01  5.94533484E+01  6.10933033E+01 degrees

 Coarse grid specifications (used for wave-functions):

 getcut: wavevector=  0.0000  0.0000  0.0000  ngfft=  54  54  54
         ecut(hartree)=     16.000   => boxcut(ratio)=   2.03051

 Fine grid specifications (used for densities):

 getcut: wavevector=  0.0000  0.0000  0.0000  ngfft=  90  90  90
         ecut(hartree)=     40.000   => boxcut(ratio)=   2.13985

--- Pseudopotential description ------------------------------------------------
- pspini: atom type   1  psp file is ../../../Psps_for_tests/ATOMICDATA/Cs.GGA_PBE-JTH.xml
- pspatm: opening atomic psp file    ../../../Psps_for_tests/ATOMICDATA/Cs.GGA_PBE-JTH.xml
- pspatm : Reading pseudopotential header in XML form from ../../../Psps_for_tests/ATOMICDATA/Cs.GGA_PBE-JTH.xml
 Pseudopotential format is: paw10
 basis_size (lnmax)=  6 (lmn_size= 18), orbitals=   0   0   1   1   2   2
 Spheres core radius: rc_sph= 2.20660278
 1 radial meshes are used:
  - mesh 1: r(i)=AA*[exp(BB*(i-1))-1], size=1500 , AA= 0.15922E-03 BB= 0.87573E-02
 Shapefunction is SIN type: shapef(r)=[sin(pi*r/rshp)/(pi*r/rshp)]**2
 Radius for shape functions =  2.00394208
 mmax= 1500
 Radial grid used for partial waves is grid 1
 Radial grid used for projectors is grid 1
 Radial grid used for (t)core density is grid 1
 Radial grid used for Vloc is grid 1
 Radial grid used for pseudo valence density is grid 1
 Mesh size for Vloc has been set to 1341 to avoid numerical noise.
 Compensation charge density is not taken into account in XC energy/potential
 pspatm: atomic psp has been read  and splines computed

- pspini: atom type   2  psp file is ../../../Psps_for_tests/ATOMICDATA/I.GGA_PBE-JTH.xml
- pspatm: opening atomic psp file    ../../../Psps_for_tests/ATOMICDATA/I.GGA_PBE-JTH.xml
- pspatm : Reading pseudopotential header in XML form from ../../../Psps_for_tests/ATOMICDATA/I.GGA_PBE-JTH.xml
 Pseudopotential format is: paw10
 basis_size (lnmax)=  4 (lmn_size=  8), orbitals=   0   0   1   1
 Spheres core radius: rc_sph= 2.30022271
 1 radial meshes are used:
  - mesh 1: r(i)=AA*[exp(BB*(i-1))-1], size=2000 , AA= 0.12610E-03 BB= 0.66836E-02
 Shapefunction is SIN type: shapef(r)=[sin(pi*r/rshp)/(pi*r/rshp)]**2
 Radius for shape functions =  2.10879093
 mmax= 2000
 Radial grid used for partial waves is grid 1
 Radial grid used for projectors is grid 1
 Radial grid used for (t)core density is grid 1
 Radial grid used for Vloc is grid 1
 Radial grid used for pseudo valence density is grid 1
 Mesh size for Vloc has been set to 1792 to avoid numerical noise.
 Compensation charge density is not taken into account in XC energy/potential
 pspatm: atomic psp has been read  and splines computed

- pspini: atom type   3  psp file is ../../../Psps_for_tests/ATOMICDATA/Zr.GGA_PBE-JTH.xml
- pspatm: opening atomic psp file    ../../../Psps_for_tests/ATOMICDATA/Zr.GGA_PBE-JTH.xml
- pspatm : Reading pseudopotential header in XML form from ../../../Psps_for_tests/ATOMICDATA/Zr.GGA_PBE-JTH.xml
 Pseudopotential format is: paw10
 basis_size (lnmax)=  6 (lmn_size= 18), orbitals=   0   0   1   1   2   2
 Spheres core radius: rc_sph= 2.21000000
 1 radial meshes are used:
  - mesh 1: r(i)=AA*[exp(BB*(i-1))-1], size= 941 , AA= 0.35256E-03 BB= 0.14102E-01
 Shapefunction is BESSEL type: shapef(r,l)=aa(1,l)*jl(q(1,l)*r)+aa(2,l)*jl(q(2,l)*r)
 Radius for shape functions =  2.21000000
 mmax=  941
 Radial grid used for partial waves is grid 1
 Radial grid used for projectors is grid 1
 Radial grid used for (t)core density is grid 1
 Radial grid used for Vloc is grid 1
 Radial grid used for pseudo valence density is grid 1
 Mesh size for Vloc has been set to  777 to avoid numerical noise.
 Compensation charge density is not taken into account in XC energy/potential
 pspatm: atomic psp has been read  and splines computed

- pspini: atom type   4  psp file is ../../../Psps_for_tests/ATOMICDATA/Cl.GGA_PBE-JTH.xml
- pspatm: opening atomic psp file    ../../../Psps_for_tests/ATOMICDATA/Cl.GGA_PBE-JTH.xml
- pspatm : Reading pseudopotential header in XML form from ../../../Psps_for_tests/ATOMICDATA/Cl.GGA_PBE-JTH.xml
 Pseudopotential format is: paw10
 basis_size (lnmax)=  4 (lmn_size=  8), orbitals=   0   0   1   1
 Spheres core radius: rc_sph= 1.80315674
 1 radial meshes are used:
  - mesh 1: r(i)=AA*[exp(BB*(i-1))-1], size=1400 , AA= 0.50355E-03 BB= 0.85603E-02
 Shapefunction is SIN type: shapef(r)=[sin(pi*r/rshp)/(pi*r/rshp)]**2
 Radius for shape functions =  1.61320365
 mmax= 1400
 Radial grid used for partial waves is grid 1
 Radial grid used for projectors is grid 1
 Radial grid used for (t)core density is grid 1
 Radial grid used for Vloc is grid 1
 Radial grid used for pseudo valence density is grid 1
 Mesh size for Vloc has been set to 1238 to avoid numerical noise.
 Compensation charge density is not taken into account in XC energy/potential
 pspatm: atomic psp has been read  and splines computed

   3.89338138E+04                                ecore*ucvol(ha*bohr**3)
--------------------------------------------------------------------------------

_setup2: Arith. and geom. avg. npw (full set) are    6743.319    6743.310

================================================================================

--- !BeginCycle
iteration_state: {dtset: 1, }
solver: {iscf: 17, nstep: 2500, nline: 4, wfoptalg: 10, }
tolerances: {toldfe: 1.00E-08, }
...

     iter   Etot(hartree)      deltaE(h)  residm     nres2
 ETOT  1  -162.06020316377    -1.621E+02 2.805E-01 1.759E+01
 ETOT  2  -162.29643665877    -2.362E-01 1.895E-02 4.881E+00
 ETOT  3  -162.29184220291     4.594E-03 3.658E-03 9.759E-01
 ETOT  4  -162.29266763359    -8.254E-04 2.508E-03 1.012E-01
 ETOT  5  -162.29213322563     5.344E-04 9.676E-04 6.654E-03
 ETOT  6  -162.29219236839    -5.914E-05 1.698E-03 1.885E-03
 ETOT  7  -162.29219061111     1.757E-06 5.940E-04 8.665E-04
 ETOT  8  -162.29219065190    -4.079E-08 8.169E-04 9.292E-05
 ETOT  9  -162.29219114336    -4.915E-07 5.186E-04 8.725E-05
 ETOT 10  -162.29219099719     1.462E-07 5.003E-04 9.291E-06
 ETOT 11  -162.29219106534    -6.815E-08 4.673E-04 4.449E-06
 ETOT 12  -162.29219106027     5.068E-09 3.718E-04 1.423E-07
 ETOT 13  -162.29219106221    -1.940E-09 2.396E-04 9.753E-08

 At SCF step   13, etot is converged : 
  for the second time, diff in etot=  1.940E-09 < toldfe=  1.000E-08

 Cartesian components of stress tensor (hartree/bohr^3)
  sigma(1 1)= -1.33483989E-04  sigma(3 2)=  1.74489298E-13
  sigma(2 2)= -1.33483989E-04  sigma(3 1)=  1.74489305E-13
  sigma(3 3)= -1.33368551E-04  sigma(2 1)= -3.37568610E-13


--- !ResultsGS
iteration_state: {dtset: 1, }
comment   : Summary of ground state results
lattice_vectors:
- [  0.0000000,  10.4473736,  10.1057825, ]
- [ 10.4473736,   0.0000000,  10.1057825, ]
- [ 10.4473736,  10.4473736,   0.0000000, ]
lattice_lengths: [  14.53528,   14.53528,   14.77482, ]
lattice_angles: [ 59.453,  59.453,  61.093, ] # degrees, (23, 13, 12)
lattice_volume:   2.2060441E+03
convergence: {deltae: -1.940E-09, res2:  9.753E-08, residm:  2.396E-04, diffor: null, }
etotal    :  -1.62292191E+02
entropy   :   0.00000000E+00
fermie    :  -5.55116564E-02
cartesian_stress_tensor: # hartree/bohr^3
- [ -1.33483989E-04,  -3.37568610E-13,   1.74489305E-13, ]
- [ -3.37568610E-13,  -1.33483989E-04,   1.74489298E-13, ]
- [  1.74489305E-13,   1.74489298E-13,  -1.33368551E-04, ]
pressure_GPa:   3.9261E+00
xred      :
- [  2.5130E-01,   2.5130E-01,   2.4870E-01, Cs]
- [  7.5130E-01,   7.5130E-01,   7.4870E-01, Cs]
- [  2.3935E-01,   2.3935E-01,   7.6065E-01, Cl]
- [  7.4662E-01,   7.4662E-01,   2.5338E-01,  I]
- [  2.5589E-01,   7.4395E-01,   7.4411E-01,  I]
- [  7.4395E-01,   2.5589E-01,   7.4411E-01,  I]
- [  2.5589E-01,   7.4395E-01,   2.5605E-01,  I]
- [  7.4395E-01,   2.5589E-01,   2.5605E-01,  I]
- [  1.1751E-02,   1.1751E-02,  -1.1751E-02, Zr]
cartesian_forces: # hartree/bohr
- [  1.06162796E-22,  -1.67861535E-22,  -3.11972240E-06, ]
- [  1.62436000E-22,  -2.24134739E-22,  -3.11972240E-06, ]
- [ -4.57944997E-22,   3.96246258E-22,  -2.82902360E-05, ]
- [  3.03998826E-22,  -3.65697565E-22,   3.81483587E-06, ]
- [  1.17947326E-06,  -2.53062035E-17,   4.63838698E-06, ]
- [ -2.53063769E-17,   1.17947326E-06,   4.63838698E-06, ]
- [  2.53059863E-17,  -1.17947326E-06,   4.63838698E-06, ]
- [ -1.17947326E-06,   2.53063152E-17,   4.63838698E-06, ]
- [  1.92554612E-22,  -2.54253351E-22,   1.21612970E-05, ]
force_length_stats: {min:   3.11972240E-06, max:   2.82902360E-05, mean:   7.73886794E-06, }
...

 Integrated electronic density in atomic spheres:
 ------------------------------------------------
 Atom  Sphere_radius  Integrated_density
    1        2.20660          5.35587717
    2        2.20660          5.35587717
    3        1.80316          4.36100077
    4        2.30022          4.03351622
    5        2.30022          4.03768951
    6        2.30022          4.03768951
    7        2.30022          4.03768951
    8        2.30022          4.03768951
    9        2.21000          8.87065581

 PAW TEST:
 ==== Compensation charge inside spheres ============
 The following values must be close to each other ...
 Compensation charge over spherical meshes =     -5.353832959801604
 Compensation charge over fine fft grid    =     -5.353843720238552

 ==== Results concerning PAW augmentation regions ====

 Total pseudopotential strength Dij (hartree):
 Atom #  1
   0.43298  -0.14342   0.00000  -0.00000   0.00000   0.00000   0.00000   0.00000   0.00000   0.00000   0.00000   0.00000 ...
  -0.14342   0.04316   0.00000   0.00000   0.00000   0.00000  -0.00000   0.00000  -0.00000   0.00000  -0.00000   0.00000 ...
   0.00000   0.00000  -0.09266   0.00000   0.00000  -0.16713   0.00000  -0.00000   0.00000  -0.00000   0.00000  -0.00000 ...
  -0.00000   0.00000   0.00000  -0.09266   0.00000   0.00000  -0.16713   0.00000  -0.00000   0.00000  -0.00000   0.00000 ...
   0.00000   0.00000   0.00000   0.00000  -0.09266  -0.00000   0.00000  -0.16713   0.00000  -0.00000   0.00000  -0.00000 ...
   0.00000   0.00000  -0.16713   0.00000  -0.00000   0.40185   0.00000   0.00001   0.00000   0.00000   0.00000  -0.00000 ...
   0.00000  -0.00000   0.00000  -0.16713   0.00000   0.00000   0.40185   0.00000  -0.00000   0.00000   0.00000   0.00000 ...
   0.00000   0.00000  -0.00000   0.00000  -0.16713   0.00001   0.00000   0.40185   0.00000  -0.00000   0.00000   0.00000 ...
   0.00000  -0.00000   0.00000  -0.00000   0.00000   0.00000  -0.00000   0.00000   0.00535   0.00000  -0.00000   0.00000 ...
   0.00000   0.00000  -0.00000   0.00000  -0.00000   0.00000   0.00000  -0.00000   0.00000   0.00535   0.00000   0.00000 ...
   0.00000  -0.00000   0.00000  -0.00000   0.00000   0.00000   0.00000   0.00000  -0.00000   0.00000   0.00535   0.00000 ...
   0.00000   0.00000  -0.00000   0.00000  -0.00000  -0.00000   0.00000   0.00000   0.00000   0.00000   0.00000   0.00535 ...
   ...  only 12  components have been written...
 Atom #  9
   3.07306  -0.89499   0.00000  -0.00003   0.00000   0.00000  -0.00000   0.00000   0.00000   0.00000   0.00006   0.00000 ...
  -0.89499   0.26744   0.00000   0.00002   0.00000   0.00000  -0.00000   0.00000   0.00000   0.00000  -0.00001   0.00000 ...
   0.00000   0.00000   0.26944   0.00000   0.00000  -0.05484   0.00000   0.00000   0.00000   0.00011   0.00000   0.00000 ...
  -0.00003   0.00002   0.00000   0.26955   0.00000   0.00000  -0.05486   0.00000   0.00000   0.00000   0.00014   0.00000 ...
   0.00000   0.00000   0.00000   0.00000   0.26944   0.00000   0.00000  -0.05484   0.00000   0.00000   0.00000   0.00011 ...
   0.00000   0.00000  -0.05484   0.00000   0.00000   0.01503   0.00000   0.00000   0.00000  -0.00002   0.00000   0.00000 ...
  -0.00000  -0.00000   0.00000  -0.05486   0.00000   0.00000   0.01504   0.00000   0.00000   0.00000  -0.00002   0.00000 ...
   0.00000   0.00000   0.00000   0.00000  -0.05484   0.00000   0.00000   0.01503   0.00000   0.00000   0.00000  -0.00002 ...
   0.00000   0.00000   0.00000   0.00000   0.00000   0.00000   0.00000   0.00000  -0.01348   0.00000   0.00000   0.00000 ...
   0.00000   0.00000   0.00011   0.00000   0.00000  -0.00002   0.00000   0.00000   0.00000  -0.01343   0.00000   0.00000 ...
   0.00006  -0.00001   0.00000   0.00014   0.00000   0.00000  -0.00002   0.00000   0.00000   0.00000  -0.01334   0.00000 ...
   0.00000   0.00000   0.00000   0.00000   0.00011   0.00000   0.00000  -0.00002   0.00000   0.00000   0.00000  -0.01343 ...
   ...  only 12  components have been written...


 Augmentation waves occupancies Rhoij:
 Atom #  1
   1.99846  -0.01274   0.00000  -0.00003   0.00000   0.00000  -0.00001   0.00000   0.00338   0.00000  -0.00088   0.00000 ...
  -0.01274   0.21112   0.00000  -0.00108   0.00000   0.00000   0.00004   0.00000  -0.01860   0.00000   0.01743   0.00000 ...
   0.00000   0.00000   2.00670   0.00000  -0.00171  -0.00479   0.00000   0.00032   0.00000  -0.00073   0.00000  -0.00223 ...
  -0.00003  -0.00108   0.00000   2.00750   0.00000   0.00000  -0.00499   0.00000  -0.00197   0.00000  -0.00045   0.00000 ...
   0.00000   0.00000  -0.00171   0.00000   2.00670   0.00032   0.00000  -0.00479   0.00000  -0.00223   0.00000  -0.00073 ...
   0.00000   0.00000  -0.00479   0.00000   0.00032   0.00015   0.00000  -0.00002   0.00000   0.00002   0.00000   0.00009 ...
  -0.00001   0.00004   0.00000  -0.00499   0.00000   0.00000   0.00017   0.00000   0.00008   0.00000   0.00002   0.00000 ...
   0.00000   0.00000   0.00032   0.00000  -0.00479  -0.00002   0.00000   0.00015   0.00000   0.00009   0.00000   0.00002 ...
   0.00338  -0.01860   0.00000  -0.00197   0.00000   0.00000   0.00008   0.00000   0.05411   0.00000   0.01818   0.00000 ...
   0.00000   0.00000  -0.00073   0.00000  -0.00223   0.00002   0.00000   0.00009   0.00000   0.08881   0.00000  -0.00003 ...
  -0.00088   0.01743   0.00000  -0.00045   0.00000   0.00000   0.00002   0.00000   0.01818   0.00000   0.04257   0.00000 ...
   0.00000   0.00000  -0.00223   0.00000  -0.00073   0.00009   0.00000   0.00002   0.00000  -0.00003   0.00000   0.08881 ...
   ...  only 12  components have been written...
 Atom #  9
   1.99397  -0.06031   0.00000   0.00042   0.00000   0.00000   0.00106   0.00000   0.00000   0.00000  -0.00403   0.00000 ...
  -0.06031   1.06494   0.00000  -0.00311   0.00000   0.00000   0.03416   0.00000   0.00000   0.00000   0.03843   0.00000 ...
   0.00000   0.00000   1.97124   0.00000   0.00000  -0.17337   0.00000   0.00000   0.00000   0.00437   0.00000   0.00000 ...
   0.00042  -0.00311   0.00000   1.96929   0.00000   0.00000  -0.18572   0.00000   0.00000   0.00000  -0.00061   0.00000 ...
   0.00000   0.00000   0.00000   0.00000   1.97124   0.00000   0.00000  -0.17337   0.00000   0.00000   0.00000   0.00437 ...
   0.00000   0.00000  -0.17337   0.00000   0.00000   1.55776   0.00000   0.00000   0.00000  -0.07166   0.00000   0.00000 ...
   0.00106   0.03416   0.00000  -0.18572   0.00000   0.00000   1.76078   0.00000   0.00000   0.00000   0.16057   0.00000 ...
   0.00000   0.00000   0.00000   0.00000  -0.17337   0.00000   0.00000   1.55776   0.00000   0.00000   0.00000  -0.07166 ...
   0.00000   0.00000   0.00000   0.00000   0.00000   0.00000   0.00000   0.00000   0.48920   0.00000   0.00000   0.00000 ...
   0.00000   0.00000   0.00437   0.00000   0.00000  -0.07166   0.00000   0.00000   0.00000   0.51860   0.00000   0.00000 ...
  -0.00403   0.03843   0.00000  -0.00061   0.00000   0.00000   0.16057   0.00000   0.00000   0.00000   1.50625   0.00000 ...
   0.00000   0.00000   0.00000   0.00000   0.00437   0.00000   0.00000  -0.07166   0.00000   0.00000   0.00000   0.51860 ...
   ...  only 12  components have been written...


================================================================================

 ----iterations are completed or convergence reached----

 Mean square residual over all n,k,spin=   30.318E-08; max=  23.963E-05
 reduced coordinates (array xred) for    9 atoms
       0.251298513710      0.251298513710      0.248701486290
       0.751298513710      0.751298513710      0.748701486290
       0.239349681010      0.239349681010      0.760650318990
       0.746615362310      0.746615362310      0.253384637690
       0.255893772200      0.743949829570      0.744106227800
       0.743949829570      0.255893772200      0.744106227800
       0.255893772200      0.743949829570      0.256050170430
       0.743949829570      0.255893772200      0.256050170430
       0.011750725702      0.011750725702     -0.011750725702
 rms dE/dt=  9.1639E-05; max dE/dt=  2.6573E-04; dE/dt below (all hartree)
    1       0.000011366190      0.000011366190      0.000000000000
    2       0.000011366190      0.000011366190      0.000000000000
    3       0.000265733927      0.000265733927      0.000000000000
    4      -0.000058712947     -0.000058712947      0.000000000000
    5      -0.000067035576     -0.000079357974     -0.000012322398
    6      -0.000079357974     -0.000067035576     -0.000012322398
    7      -0.000054713178     -0.000067035576      0.000012322398
    8      -0.000067035576     -0.000054713178      0.000012322398
    9      -0.000143060468     -0.000143060468      0.000000000000

 cartesian coordinates (angstrom) at end:
    1      2.76425600731541     2.76425600731541     2.68776314705178
    2      8.29276802194685     8.29276802194685     8.03551293548362
    3      5.52851201469328     5.52851201469328     2.55996441196491
    4      5.52851201457293     5.52851201457293     7.98542429166653
    5      8.22673579161516     5.52851201468935     5.34691340983045
    6      5.52851201468935     8.22673579161516     5.34691340983045
    7      5.52851201457357     2.83028823764776     5.34691340983045
    8      2.83028823764776     5.52851201457357     5.34691340983045
    9     -0.00000000000279    -0.00000000000279     0.12567988177358

 cartesian forces (hartree/bohr) at end:
    1      0.00000000000000    -0.00000000000000    -0.00000311972240
    2      0.00000000000000    -0.00000000000000    -0.00000311972240
    3     -0.00000000000000     0.00000000000000    -0.00002829023598
    4      0.00000000000000    -0.00000000000000     0.00000381483587
    5      0.00000117947326    -0.00000000000000     0.00000463838698
    6     -0.00000000000000     0.00000117947326     0.00000463838698
    7      0.00000000000000    -0.00000117947326     0.00000463838698
    8     -0.00000117947326     0.00000000000000     0.00000463838698
    9      0.00000000000000    -0.00000000000000     0.00001216129699
 frms,max,avg= 6.3065987E-06 2.8290236E-05   0.000E+00  0.000E+00  1.995E-06 h/b

 cartesian forces (eV/Angstrom) at end:
    1      0.00000000000000    -0.00000000000000    -0.00016042256221
    2      0.00000000000000    -0.00000000000000    -0.00016042256221
    3     -0.00000000000000     0.00000000000000    -0.00145474230207
    4      0.00000000000000    -0.00000000000000     0.00019616673097
    5      0.00006065094836    -0.00000000000000     0.00023851542835
    6     -0.00000000000000     0.00006065094836     0.00023851542835
    7      0.00000000000000    -0.00006065094836     0.00023851542835
    8     -0.00006065094836     0.00000000000000     0.00023851542835
    9      0.00000000000000    -0.00000000000000     0.00062535898213
 frms,max,avg= 3.2429832E-04 1.4547423E-03   0.000E+00  0.000E+00  1.026E-04 e/A
 length scales= 14.535283150000 14.535283150000 14.774817479000 bohr
              =  7.691740563382  7.691740563382  7.818496670964 angstroms
 prteigrs : about to open file Cs2TiI6o_DS1_EIG
 Fermi (or HOMO) energy (hartree) =  -0.05551   Average Vxc (hartree)=  -0.32007
 Eigenvalues (hartree) for nkpt= 163  k points:
 kpt#   1, nband= 42, wtk=  0.00058, kpt=  0.0000  0.0000  0.0000 (reduced coord)
  -1.87765   -1.07037   -1.06915   -1.06915   -0.81197   -0.81152   -0.59709   -0.50853
  -0.48621   -0.48621   -0.47964   -0.47628   -0.33784   -0.33531   -0.33531   -0.33153
  -0.33132   -0.33132   -0.22445   -0.18072   -0.17814   -0.17814   -0.16446   -0.16446
  -0.15780   -0.14954   -0.13466   -0.11736   -0.11736   -0.09848   -0.07850   -0.07850
  -0.07217   -0.06048   -0.05551   -0.05551   -0.00548    0.00215    0.00215    0.08345
   0.09313    0.09714
 prteigrs : prtvol=0 or 1, do not print more k-points.


--- !EnergyTerms
iteration_state     : {dtset: 1, }
comment             : Components of total free energy in Hartree
kinetic             :  4.66794489779568E+01
hartree             :  3.08251384631933E+01
xc                  : -5.65643727983842E+01
Ewald energy        : -1.27720936629779E+02
psp_core            :  1.76487012004671E+01
local_psp           : -9.68987183353140E+01
spherical_terms     :  2.37385208007784E+01
total_energy        : -1.62292218321082E+02
total_energy_eV     : -4.41619585022588E+03
...


--- !EnergyTermsDC
iteration_state     : {dtset: 1, }
comment             : '"Double-counting" decomposition of free energy'
band_energy         : -2.82678495200924E+01
Ewald energy        : -1.27720936629779E+02
psp_core            :  1.76487012004671E+01
xc_dc               : -4.56374290800161E+01
spherical_terms     :  2.16853229672089E+01
total_energy_dc     : -1.62292191062212E+02
total_energy_dc_eV  : -4.41619510847431E+03
...


 Cartesian components of stress tensor (hartree/bohr^3)
  sigma(1 1)= -1.33483989E-04  sigma(3 2)=  1.74489298E-13
  sigma(2 2)= -1.33483989E-04  sigma(3 1)=  1.74489305E-13
  sigma(3 3)= -1.33368551E-04  sigma(2 1)= -3.37568610E-13

-Cartesian components of stress tensor (GPa)         [Pressure=  3.9261E+00 GPa]
- sigma(1 1)= -3.92723389E+00  sigma(3 2)=  5.13365153E-09
- sigma(2 2)= -3.92723389E+00  sigma(3 1)=  5.13365171E-09
- sigma(3 3)= -3.92383757E+00  sigma(2 1)= -9.93160971E-09

================================================================================
== DATASET  2 ==================================================================
-   mpi_nproc: 4, omp_nthreads: -1 (-1 if OMP is not activated)


--- !DatasetInfo
iteration_state: {dtset: 2, }
dimensions: {natom: 9, nkpt: 163, mband: 42, nsppol: 1, nspinor: 1, nspden: 1, mpw: 6786, }
cutoff_energies: {ecut:  16.0, pawecutdg:  40.0, }
electrons: {nelect:   7.20000000E+01, charge:   0.00000000E+00, occopt:   1.00000000E+00, tsmear:   1.00000000E-02, }
meta: {optdriver: 0, ionmov: 0, optcell: 0, iscf: 17, paral_kgb: 0, }
...

 Real(R)+Recip(G) space primitive vectors, cartesian coordinates (Bohr,Bohr^-1):
 R(1)=  0.0000000 10.4377531 10.0940469  G(1)= -0.0479030  0.0479030  0.0495341
 R(2)= 10.4377531  0.0000000 10.0940469  G(2)=  0.0479030 -0.0479030  0.0495341
 R(3)= 10.4377531 10.4377531  0.0000000  G(3)=  0.0479030  0.0479030 -0.0495341
 Unit cell volume ucvol=  2.1994260E+03 bohr^3
 Angles (23,13,12)=  5.94494148E+01  5.94494148E+01  6.11011705E+01 degrees

 Coarse grid specifications (used for wave-functions):

 getcut: wavevector=  0.0000  0.0000  0.0000  ngfft=  54  54  54
         ecut(hartree)=     16.000   => boxcut(ratio)=   2.03238

 Fine grid specifications (used for densities):

 getcut: wavevector=  0.0000  0.0000  0.0000  ngfft=  90  90  90
         ecut(hartree)=     40.000   => boxcut(ratio)=   2.14182

--- Pseudopotential description ------------------------------------------------
- pspini: atom type   1  psp file is ../../../Psps_for_tests/ATOMICDATA/Cs.GGA_PBE-JTH.xml
- pspatm: opening atomic psp file    ../../../Psps_for_tests/ATOMICDATA/Cs.GGA_PBE-JTH.xml
- pspatm : Reading pseudopotential header in XML form from ../../../Psps_for_tests/ATOMICDATA/Cs.GGA_PBE-JTH.xml
 Pseudopotential format is: paw10
 basis_size (lnmax)=  6 (lmn_size= 18), orbitals=   0   0   1   1   2   2
 Spheres core radius: rc_sph= 2.20660278
 1 radial meshes are used:
  - mesh 1: r(i)=AA*[exp(BB*(i-1))-1], size=1500 , AA= 0.15922E-03 BB= 0.87573E-02
 Shapefunction is SIN type: shapef(r)=[sin(pi*r/rshp)/(pi*r/rshp)]**2
 Radius for shape functions =  2.00394208
 mmax= 1500
 Radial grid used for partial waves is grid 1
 Radial grid used for projectors is grid 1
 Radial grid used for (t)core density is grid 1
 Radial grid used for Vloc is grid 1
 Radial grid used for pseudo valence density is grid 1
 Mesh size for Vloc has been set to 1341 to avoid numerical noise.
 Compensation charge density is not taken into account in XC energy/potential
 pspatm: atomic psp has been read  and splines computed

- pspini: atom type   2  psp file is ../../../Psps_for_tests/ATOMICDATA/I.GGA_PBE-JTH.xml
- pspatm: opening atomic psp file    ../../../Psps_for_tests/ATOMICDATA/I.GGA_PBE-JTH.xml
- pspatm : Reading pseudopotential header in XML form from ../../../Psps_for_tests/ATOMICDATA/I.GGA_PBE-JTH.xml
 Pseudopotential format is: paw10
 basis_size (lnmax)=  4 (lmn_size=  8), orbitals=   0   0   1   1
 Spheres core radius: rc_sph= 2.30022271
 1 radial meshes are used:
  - mesh 1: r(i)=AA*[exp(BB*(i-1))-1], size=2000 , AA= 0.12610E-03 BB= 0.66836E-02
 Shapefunction is SIN type: shapef(r)=[sin(pi*r/rshp)/(pi*r/rshp)]**2
 Radius for shape functions =  2.10879093
 mmax= 2000
 Radial grid used for partial waves is grid 1
 Radial grid used for projectors is grid 1
 Radial grid used for (t)core density is grid 1
 Radial grid used for Vloc is grid 1
 Radial grid used for pseudo valence density is grid 1
 Mesh size for Vloc has been set to 1792 to avoid numerical noise.
 Compensation charge density is not taken into account in XC energy/potential
 pspatm: atomic psp has been read  and splines computed

- pspini: atom type   3  psp file is ../../../Psps_for_tests/ATOMICDATA/Zr.GGA_PBE-JTH.xml
- pspatm: opening atomic psp file    ../../../Psps_for_tests/ATOMICDATA/Zr.GGA_PBE-JTH.xml
- pspatm : Reading pseudopotential header in XML form from ../../../Psps_for_tests/ATOMICDATA/Zr.GGA_PBE-JTH.xml
 Pseudopotential format is: paw10
 basis_size (lnmax)=  6 (lmn_size= 18), orbitals=   0   0   1   1   2   2
 Spheres core radius: rc_sph= 2.21000000
 1 radial meshes are used:
  - mesh 1: r(i)=AA*[exp(BB*(i-1))-1], size= 941 , AA= 0.35256E-03 BB= 0.14102E-01
 Shapefunction is BESSEL type: shapef(r,l)=aa(1,l)*jl(q(1,l)*r)+aa(2,l)*jl(q(2,l)*r)
 Radius for shape functions =  2.21000000
 mmax=  941
 Radial grid used for partial waves is grid 1
 Radial grid used for projectors is grid 1
 Radial grid used for (t)core density is grid 1
 Radial grid used for Vloc is grid 1
 Radial grid used for pseudo valence density is grid 1
 Mesh size for Vloc has been set to  777 to avoid numerical noise.
 Compensation charge density is not taken into account in XC energy/potential
 pspatm: atomic psp has been read  and splines computed

- pspini: atom type   4  psp file is ../../../Psps_for_tests/ATOMICDATA/Cl.GGA_PBE-JTH.xml
- pspatm: opening atomic psp file    ../../../Psps_for_tests/ATOMICDATA/Cl.GGA_PBE-JTH.xml
- pspatm : Reading pseudopotential header in XML form from ../../../Psps_for_tests/ATOMICDATA/Cl.GGA_PBE-JTH.xml
 Pseudopotential format is: paw10
 basis_size (lnmax)=  4 (lmn_size=  8), orbitals=   0   0   1   1
 Spheres core radius: rc_sph= 1.80315674
 1 radial meshes are used:
  - mesh 1: r(i)=AA*[exp(BB*(i-1))-1], size=1400 , AA= 0.50355E-03 BB= 0.85603E-02
 Shapefunction is SIN type: shapef(r)=[sin(pi*r/rshp)/(pi*r/rshp)]**2
 Radius for shape functions =  1.61320365
 mmax= 1400
 Radial grid used for partial waves is grid 1
 Radial grid used for projectors is grid 1
 Radial grid used for (t)core density is grid 1
 Radial grid used for Vloc is grid 1
 Radial grid used for pseudo valence density is grid 1
 Mesh size for Vloc has been set to 1238 to avoid numerical noise.
 Compensation charge density is not taken into account in XC energy/potential
 pspatm: atomic psp has been read  and splines computed

--------------------------------------------------------------------------------

_setup2: Arith. and geom. avg. npw (full set) are    6723.097    6723.088

================================================================================

--- !BeginCycle
iteration_state: {dtset: 2, }
solver: {iscf: 17, nstep: 2500, nline: 4, wfoptalg: 10, }
tolerances: {toldfe: 1.00E-08, }
...

     iter   Etot(hartree)      deltaE(h)  residm     nres2
 ETOT  1  -162.05562298011    -1.621E+02 2.745E-01 1.766E+01
 ETOT  2  -162.29553419647    -2.399E-01 1.566E-02 4.930E+00
 ETOT  3  -162.29093217264     4.602E-03 3.210E-03 9.870E-01
 ETOT  4  -162.29175471646    -8.225E-04 3.158E-03 1.021E-01
 ETOT  5  -162.29121448773     5.402E-04 1.138E-03 6.487E-03
 ETOT  6  -162.29127338854    -5.890E-05 1.618E-03 1.745E-03
 ETOT  7  -162.29127167097     1.718E-06 1.730E-03 7.557E-04
 ETOT  8  -162.29127190653    -2.356E-07 1.584E-03 8.872E-05
 ETOT  9  -162.29127232093    -4.144E-07 7.010E-04 8.265E-05
 ETOT 10  -162.29127218364     1.373E-07 6.041E-04 8.222E-06
 ETOT 11  -162.29127224915    -6.551E-08 2.301E-04 3.968E-06
 ETOT 12  -162.29127224420     4.955E-09 2.906E-04 1.708E-07
 ETOT 13  -162.29127224591    -1.714E-09 1.424E-04 8.526E-08

 At SCF step   13, etot is converged : 
  for the second time, diff in etot=  1.714E-09 < toldfe=  1.000E-08

 Cartesian components of stress tensor (hartree/bohr^3)
  sigma(1 1)= -1.36469460E-04  sigma(3 2)=  6.35871675E-14
  sigma(2 2)= -1.36469460E-04  sigma(3 1)=  6.35881735E-14
  sigma(3 3)= -1.36437641E-04  sigma(2 1)= -1.22984773E-13


--- !ResultsGS
iteration_state: {dtset: 2, }
comment   : Summary of ground state results
lattice_vectors:
- [  0.0000000,  10.4377531,  10.0940469, ]
- [ 10.4377531,   0.0000000,  10.0940469, ]
- [ 10.4377531,  10.4377531,   0.0000000, ]
lattice_lengths: [  14.52021,   14.52021,   14.76121, ]
lattice_angles: [ 59.449,  59.449,  61.101, ] # degrees, (23, 13, 12)
lattice_volume:   2.1994260E+03
convergence: {deltae: -1.714E-09, res2:  8.526E-08, residm:  1.424E-04, diffor: null, }
etotal    :  -1.62291272E+02
entropy   :   0.00000000E+00
fermie    :  -5.48595262E-02
cartesian_stress_tensor: # hartree/bohr^3
- [ -1.36469460E-04,  -1.22984773E-13,   6.35881735E-14, ]
- [ -1.22984773E-13,  -1.36469460E-04,   6.35871675E-14, ]
- [  6.35881735E-14,   6.35871675E-14,  -1.36437641E-04, ]
pressure_GPa:   4.0148E+00
xred      :
- [  2.5124E-01,   2.5124E-01,   2.4876E-01, Cs]
- [  7.5124E-01,   7.5124E-01,   7.4876E-01, Cs]
- [  2.3967E-01,   2.3967E-01,   7.6033E-01, Cl]
- [  7.4650E-01,   7.4650E-01,   2.5350E-01,  I]
- [  2.5598E-01,   7.4377E-01,   7.4402E-01,  I]
- [  7.4377E-01,   2.5598E-01,   7.4402E-01,  I]
- [  2.5598E-01,   7.4377E-01,   2.5623E-01,  I]
- [  7.4377E-01,   2.5598E-01,   2.5623E-01,  I]
- [  1.1842E-02,   1.1842E-02,  -1.1842E-02, Zr]
cartesian_forces: # hartree/bohr
- [  4.26916672E-22,  -3.83215103E-22,   9.59107921E-06, ]
- [  4.26916672E-22,  -3.83215103E-22,   9.59107921E-06, ]
- [ -8.49989312E-22,   8.93690881E-22,  -2.38796192E-05, ]
- [  1.28076170E-22,  -8.43746006E-23,  -5.15428764E-06, ]
- [  5.75925298E-07,  -4.47621849E-18,   1.23300593E-06, ]
- [ -4.47630467E-18,   5.75925298E-07,   1.23300593E-06, ]
- [  4.47623398E-18,  -5.75925298E-07,   1.23300593E-06, ]
- [ -5.75925298E-07,   4.47600253E-18,   1.23300593E-06, ]
- [ -1.47712925E-22,   1.91414494E-22,   4.91972470E-06, ]
force_length_stats: {min:   1.36087970E-06, max:   2.38796192E-05, mean:   6.50881209E-06, }
...

 Integrated electronic density in atomic spheres:
 ------------------------------------------------
 Atom  Sphere_radius  Integrated_density
    1        2.20660          5.35975337
    2        2.20660          5.35975337
    3        1.80316          4.36795226
    4        2.30022          4.03927667
    5        2.30022          4.03743851
    6        2.30022          4.03743851
    7        2.30022          4.03743851
    8        2.30022          4.03743851
    9        2.21000          8.87150265

 PAW TEST:
 ==== Compensation charge inside spheres ============
 The following values must be close to each other ...
 Compensation charge over spherical meshes =     -5.354083722958864
 Compensation charge over fine fft grid    =     -5.354091523506363

 ==== Results concerning PAW augmentation regions ====

 Total pseudopotential strength Dij (hartree):
 Atom #  1
   0.43284  -0.14337   0.00000  -0.00000   0.00000   0.00000   0.00000   0.00000   0.00000   0.00000   0.00000   0.00000 ...
  -0.14337   0.04315   0.00000   0.00000   0.00000   0.00000  -0.00000   0.00000  -0.00000   0.00000  -0.00000   0.00000 ...
   0.00000   0.00000  -0.09264   0.00000   0.00000  -0.16714   0.00000  -0.00000   0.00000  -0.00000   0.00000  -0.00000 ...
  -0.00000   0.00000   0.00000  -0.09264   0.00000   0.00000  -0.16714   0.00000  -0.00000   0.00000  -0.00000   0.00000 ...
   0.00000   0.00000   0.00000   0.00000  -0.09264  -0.00000   0.00000  -0.16714   0.00000  -0.00000   0.00000  -0.00000 ...
[...]
                       5.4881688554E+00  2.8205725685E+00  5.2919916054E+00
                       2.8205725685E+00  5.4881688554E+00  5.2919916054E+00
                      -1.9171353201E-12 -1.9171353201E-12  1.3236445213E-01
           xangst10    2.7415640367E+00  2.7415640367E+00  2.6551329529E+00
                       8.2246921100E+00  8.2246921100E+00  7.9461594142E+00
                       5.4831280733E+00  5.4831280733E+00  2.5647458102E+00
                       5.4831280733E+00  5.4831280733E+00  7.8884465798E+00
                       8.1469376936E+00  5.4831280733E+00  5.2851232141E+00
                       5.4831280733E+00  8.1469376936E+00  5.2851232141E+00
                       5.4831280733E+00  2.8193184531E+00  5.2851232141E+00
                       2.8193184531E+00  5.4831280733E+00  5.2851232141E+00
                      -1.3634478489E-14 -1.3634478489E-14  1.3323407685E-01
            xcart1     5.2236868150E+00  5.2236868150E+00  5.0791362580E+00
                       1.5671060445E+01  1.5671060445E+01  1.5184918785E+01
                       1.0447373630E+01  1.0447373630E+01  4.8376316485E+00
                       1.0447373630E+01  1.0447373630E+01  1.5090264966E+01
                       1.5546277614E+01  1.0447373630E+01  1.0104202001E+01
                       1.0447373630E+01  1.5546277614E+01  1.0104202001E+01
                       1.0447373630E+01  5.3484696463E+00  1.0104202001E+01
                       5.3484696463E+00  1.0447373630E+01  1.0104202001E+01
                      -5.2679465195E-12 -5.2679465195E-12  2.3750055697E-01
            xcart2     5.2188765720E+00  5.2188765720E+00  5.0720603190E+00
                       1.5656629716E+01  1.5656629716E+01  1.5166107208E+01
                       1.0437753144E+01  1.0437753144E+01  4.8384884205E+00
                       1.0437753144E+01  1.0437753144E+01  1.5070411407E+01
                       1.5529187424E+01  1.0437753144E+01  1.0091558334E+01
                       1.0437753144E+01  1.5529187424E+01  1.0091558334E+01
                       1.0437753144E+01  5.3463188637E+00  1.0091558334E+01
                       5.3463188637E+00  1.0437753144E+01  1.0091558334E+01
                      -1.9214127482E-12 -1.9214127482E-12  2.3907442354E-01
            xcart3     5.2138929153E+00  5.2138929153E+00  5.0657933187E+00
                       1.5641678746E+01  1.5641678746E+01  1.5148775646E+01
                       1.0427785831E+01  1.0427785831E+01  4.8394437609E+00
                       1.0427785831E+01  1.0427785831E+01  1.5051483123E+01
                       1.5511520774E+01  1.0427785831E+01  1.0079469569E+01
                       1.0427785831E+01  1.5511520774E+01  1.0079469569E+01
                       1.0427785831E+01  5.3440508871E+00  1.0079469569E+01
                       5.3440508871E+00  1.0427785831E+01  1.0079469569E+01
                      -1.3031738131E-13 -1.3031738131E-13  2.4048448972E-01
            xcart4     5.2089324913E+00  5.2089324913E+00  5.0594148411E+00
                       1.5626797474E+01  1.5626797474E+01  1.5131242894E+01
                       1.0417864983E+01  1.0417864983E+01  4.8403471967E+00
                       1.0417864982E+01  1.0417864982E+01  1.5032463180E+01
                       1.5493956891E+01  1.0417864983E+01  1.0067305900E+01
                       1.0417864983E+01  1.5493956891E+01  1.0067305900E+01
                       1.0417864982E+01  5.3417730745E+00  1.0067305900E+01
                       5.3417730745E+00  1.0417864982E+01  1.0067305900E+01
                      -1.0241067813E-11 -1.0241067813E-11  2.4193271685E-01
            xcart5     5.2042672897E+00  5.2042672897E+00  5.0531073756E+00
                       1.5612801869E+01  1.5612801869E+01  1.5112639926E+01
                       1.0408534580E+01  1.0408534580E+01  4.8407582056E+00
                       1.0408534579E+01  1.0408534579E+01  1.5010974781E+01
                       1.5477564834E+01  1.0408534580E+01  1.0053925607E+01
                       1.0408534580E+01  1.5477564834E+01  1.0053925607E+01
                       1.0408534579E+01  5.3395043245E+00  1.0053925607E+01
                       5.3395043245E+00  1.0408534579E+01  1.0053925607E+01
                      -6.8508763625E-12 -6.8508763625E-12  2.4307768787E-01
            xcart6     5.1993096153E+00  5.1993096153E+00  5.0468351518E+00
                       1.5597928846E+01  1.5597928846E+01  1.5095203305E+01
                       1.0398619231E+01  1.0398619231E+01  4.8415306761E+00
                       1.0398619231E+01  1.0398619231E+01  1.4991947570E+01
                       1.5460049991E+01  1.0398619231E+01  1.0041727764E+01
                       1.0398619231E+01  1.5460049991E+01  1.0041727764E+01
                       1.0398619231E+01  5.3371884707E+00  1.0041727764E+01
                       5.3371884707E+00  1.0398619231E+01  1.0041727764E+01
                      -1.9387801340E-12 -1.9387801340E-12  2.4451746733E-01
            xcart7     5.1944152573E+00  5.1944152573E+00  5.0404707832E+00
                       1.5583245772E+01  1.5583245772E+01  1.5077430012E+01
                       1.0388830515E+01  1.0388830515E+01  4.8423768836E+00
                       1.0388830514E+01  1.0388830514E+01  1.4972411912E+01
                       1.5442810164E+01  1.0388830515E+01  1.0029263706E+01
                       1.0388830515E+01  1.5442810164E+01  1.0029263706E+01
                       1.0388830514E+01  5.3348508648E+00  1.0029263706E+01
                       5.3348508648E+00  1.0388830514E+01  1.0029263706E+01
                      -3.7970871194E-12 -3.7970871194E-12  2.4592941092E-01
            xcart8     5.1895391826E+00  5.1895391826E+00  5.0338561617E+00
                       1.5568617548E+01  1.5568617548E+01  1.5059336076E+01
                       1.0379078365E+01  1.0379078365E+01  4.8431698970E+00
                       1.0379078365E+01  1.0379078365E+01  1.4952956295E+01
                       1.5425659825E+01  1.0379078365E+01  1.0016762202E+01
                       1.0379078365E+01  1.5425659825E+01  1.0016762202E+01
                       1.0379078365E+01  5.3324969049E+00  1.0016762202E+01
                       5.3324969049E+00  1.0379078365E+01  1.0016762202E+01
                      -3.5482232951E-12 -3.5482232951E-12  2.4747207510E-01
            xcart9     5.1855680539E+00  5.1855680539E+00  5.0243902905E+00
                       1.5556704162E+01  1.5556704162E+01  1.5034896344E+01
                       1.0371136108E+01  1.0371136108E+01  4.8457283630E+00
                       1.0371136108E+01  1.0371136108E+01  1.4927241535E+01
                       1.5412162523E+01  1.0371136108E+01  1.0000414832E+01
                       1.0371136108E+01  1.5412162523E+01  1.0000414832E+01
                       1.0371136108E+01  5.3301096925E+00  1.0000414832E+01
                       5.3301096925E+00  1.0371136108E+01  1.0000414832E+01
                      -3.6228607147E-12 -3.6228607147E-12  2.5013256426E-01
            xcart10    5.1808052051E+00  5.1808052051E+00  5.0174741273E+00
                       1.5542415615E+01  1.5542415615E+01  1.5016065101E+01
                       1.0361610410E+01  1.0361610410E+01  4.8466671817E+00
                       1.0361610410E+01  1.0361610410E+01  1.4907003650E+01
                       1.5395481063E+01  1.0361610410E+01  9.9874354533E+00
                       1.0361610410E+01  1.5395481063E+01  9.9874354533E+00
                       1.0361610410E+01  5.3277397577E+00  9.9874354533E+00
                       5.3277397577E+00  1.0361610410E+01  9.9874354533E+00
                      -2.5765430309E-14 -2.5765430309E-14  2.5177591681E-01
             xred1     2.5129851371E-01  2.5129851371E-01  2.4870148629E-01
                       7.5129851371E-01  7.5129851371E-01  7.4870148629E-01
                       2.3934968101E-01  2.3934968101E-01  7.6065031899E-01
                       7.4661536231E-01  7.4661536231E-01  2.5338463769E-01
                       2.5589377220E-01  7.4394982957E-01  7.4410622780E-01
                       7.4394982957E-01  2.5589377220E-01  7.4410622780E-01
                       2.5589377220E-01  7.4394982957E-01  2.5605017043E-01
                       7.4394982957E-01  2.5589377220E-01  2.5605017043E-01
                       1.1750725702E-02  1.1750725702E-02 -1.1750725702E-02
             xred2     2.5124018021E-01  2.5124018021E-01  2.4875981979E-01
                       7.5124018021E-01  7.5124018021E-01  7.4875981979E-01
                       2.3967039551E-01  2.3967039551E-01  7.6032960449E-01
                       7.4649997034E-01  7.4649997034E-01  2.5350002966E-01
                       2.5598160343E-01  7.4377185963E-01  7.4401839657E-01
                       7.4377185963E-01  2.5598160343E-01  7.4401839657E-01
                       2.5598160343E-01  7.4377185963E-01  2.5622814037E-01
                       7.4377185963E-01  2.5598160343E-01  2.5622814037E-01
                       1.1842347582E-02  1.1842347582E-02 -1.1842347582E-02
             xred3     2.5120510750E-01  2.5120510750E-01  2.4879489250E-01
                       7.5120510750E-01  7.5120510750E-01  7.4879489250E-01
                       2.3998077176E-01  2.3998077176E-01  7.6001922824E-01
                       7.4638051695E-01  7.4638051695E-01  2.5361948305E-01
                       2.5606672844E-01  7.4358488676E-01  7.4393327156E-01
                       7.4358488676E-01  2.5606672844E-01  7.4393327156E-01
                       2.5606672844E-01  7.4358488676E-01  2.5641511324E-01
                       7.4358488676E-01  2.5606672844E-01  2.5641511324E-01
                       1.1925265855E-02  1.1925265855E-02 -1.1925265855E-02
             xred4     2.5116666082E-01  2.5116666082E-01  2.4883333918E-01
                       7.5116666082E-01  7.5116666082E-01  7.4883333918E-01
                       2.4029139353E-01  2.4029139353E-01  7.5970860647E-01
                       7.4626289786E-01  7.4626289786E-01  2.5373710214E-01
                       2.5615111936E-01  7.4339989026E-01  7.4384888064E-01
                       7.4339989026E-01  2.5615111936E-01  7.4384888064E-01
                       2.5615111936E-01  7.4339989026E-01  2.5660010974E-01
                       7.4339989026E-01  2.5615111936E-01  2.5660010974E-01
                       1.2010367709E-02  1.2010367709E-02 -1.2010367709E-02
             xred5     2.5116014835E-01  2.5116014835E-01  2.4883985165E-01
                       7.5116014835E-01  7.5116014835E-01  7.4883985165E-01
                       2.4060552422E-01  2.4060552422E-01  7.5939447578E-01
                       7.4610697394E-01  7.4610697394E-01  2.5389302606E-01
                       2.5621776124E-01  7.4322486260E-01  7.4378223876E-01
                       7.4322486260E-01  2.5621776124E-01  7.4378223876E-01
                       2.5621776124E-01  7.4322486260E-01  2.5677513740E-01
                       7.4322486260E-01  2.5621776124E-01  2.5677513740E-01
                       1.2081957419E-02  1.2081957419E-02 -1.2081957419E-02
             xred6     2.5112710218E-01  2.5112710218E-01  2.4887289782E-01
                       7.5112710218E-01  7.5112710218E-01  7.4887289782E-01
                       2.4091129039E-01  2.4091129039E-01  7.5908870961E-01
                       7.4598916666E-01  7.4598916666E-01  2.5401083334E-01
                       2.5629925003E-01  7.4303990739E-01  7.4370074997E-01
                       7.4303990739E-01  2.5629925003E-01  7.4370074997E-01
                       2.5629925003E-01  7.4303990739E-01  2.5696009261E-01
                       7.4303990739E-01  2.5629925003E-01  2.5696009261E-01
                       1.2167023720E-02  1.2167023720E-02 -1.2167023720E-02
             xred7     2.5109550953E-01  2.5109550953E-01  2.4890449047E-01
                       7.5109550953E-01  7.5109550953E-01  7.4890449047E-01
                       2.4122728674E-01  2.4122728674E-01  7.5877271326E-01
                       7.4586394003E-01  7.4586394003E-01  2.5413605997E-01
                       2.5637561172E-01  7.4285766980E-01  7.4362438828E-01
                       7.4285766980E-01  2.5637561172E-01  7.4362438828E-01
                       2.5637561172E-01  7.4285766980E-01  2.5714233020E-01
                       7.4285766980E-01  2.5637561172E-01  2.5714233020E-01
                       1.2251191089E-02  1.2251191089E-02 -1.2251191089E-02
             xred8     2.5105312687E-01  2.5105312687E-01  2.4894687313E-01
                       7.5105312687E-01  7.5105312687E-01  7.4894687313E-01
                       2.4154304524E-01  2.4154304524E-01  7.5845695476E-01
                       7.4574765612E-01  7.4574765612E-01  2.5425234388E-01
                       2.5645204382E-01  7.4267840060E-01  7.4354795618E-01
                       7.4267840060E-01  2.5645204382E-01  7.4354795618E-01
                       2.5645204382E-01  7.4267840060E-01  2.5732159940E-01
                       7.4267840060E-01  2.5645204382E-01  2.5732159940E-01
                       1.2342156047E-02  1.2342156047E-02 -1.2342156047E-02
             xred9     2.5095585897E-01  2.5095585897E-01  2.4904414103E-01
                       7.5095585897E-01  7.5095585897E-01  7.4904414103E-01
                       2.4203213790E-01  2.4203213790E-01  7.5796786210E-01
                       7.4557876776E-01  7.4557876776E-01  2.5442123224E-01
                       2.5646442579E-01  7.4252751116E-01  7.4353557421E-01
                       7.4252751116E-01  2.5646442579E-01  7.4353557421E-01
                       2.5646442579E-01  7.4252751116E-01  2.5747248884E-01
                       7.4252751116E-01  2.5646442579E-01  2.5747248884E-01
                       1.2493502473E-02  1.2493502473E-02 -1.2493502473E-02
             xred10    2.5090906011E-01  2.5090906011E-01  2.4909093989E-01
                       7.5090906011E-01  7.5090906011E-01  7.4909093989E-01
                       2.4236750930E-01  2.4236750930E-01  7.5763249070E-01
                       7.4545521908E-01  7.4545521908E-01  2.5454478092E-01
                       2.5653247915E-01  7.4235181159E-01  7.4346752085E-01
                       7.4235181159E-01  2.5653247915E-01  7.4346752085E-01
                       2.5653247915E-01  7.4235181159E-01  2.5764818841E-01
                       7.4235181159E-01  2.5653247915E-01  2.5764818841E-01
                       1.2590569885E-02  1.2590569885E-02 -1.2590569885E-02
            znucl       55.00000   53.00000   40.00000   17.00000

================================================================================


- Timing analysis has been suppressed with timopt=0



================================================================================

 Suggested references for the acknowledgment of ABINIT usage.

 The users of ABINIT have little formal obligations with respect to the ABINIT group
 (those specified in the GNU General Public License, http://www.gnu.org/copyleft/gpl.txt).
 However, it is common practice in the scientific literature,
 to acknowledge the efforts of people that have made the research possible.
 In this spirit, please find below suggested citations of work written by ABINIT developers,
 corresponding to implementations inside of ABINIT that you have used in the present run.
 Note also that it will be of great value to readers of publications presenting these results,
 to read papers enabling them to understand the theoretical formalism and details
 of the ABINIT implementation.
 For information on why they are suggested, see also https://docs.abinit.org/theory/acknowledgments.
-
- [1] Implementation of the Projector Augmented-Wave Method in the ABINIT code.
- M. Torrent, F. Jollet, F. Bottin, G. Zerah, and X. Gonze Comput. Mat. Science 42, 337, (2008).
- Comment: PAW calculations. Strong suggestion to cite this paper.
- DOI and bibtex: see https://docs.abinit.org/theory/bibliography/#torrent2008
-
- [2] Libxc: A library of exchange and correlation functionals for density functional theory.
- M.A.L. Marques, M.J.T. Oliveira, T. Burnus, Computer Physics Communications 183, 2227 (2012).
- Comment: to be cited when LibXC is used (negative value of ixc)
- Strong suggestion to cite this paper.
- DOI and bibtex: see https://docs.abinit.org/theory/bibliography/#marques2012
-
- [3] The Abinit project: Impact, environment and recent developments.
- Computer Phys. Comm. 248, 107042 (2020).
- X.Gonze, B. Amadon, G. Antonius, F.Arnardi, L.Baguet, J.-M.Beuken,
- J.Bieder, F.Bottin, J.Bouchet, E.Bousquet, N.Brouwer, F.Bruneval,
- G.Brunin, T.Cavignac, J.-B. Charraud, Wei Chen, M.Cote, S.Cottenier,
- J.Denier, G.Geneste, Ph.Ghosez, M.Giantomassi, Y.Gillet, O.Gingras,
- D.R.Hamann, G.Hautier, Xu He, N.Helbig, N.Holzwarth, Y.Jia, F.Jollet,
- W.Lafargue-Dit-Hauret, K.Lejaeghere, M.A.L.Marques, A.Martin, C.Martins,
- H.P.C. Miranda, F.Naccarato, K. Persson, G.Petretto, V.Planes, Y.Pouillon,
- S.Prokhorenko, F.Ricci, G.-M.Rignanese, A.H.Romero, M.M.Schmitt, M.Torrent,
- M.J.van Setten, B.Van Troeye, M.J.Verstraete, G.Zerah and J.W.Zwanzig
- Comment: the fifth generic paper describing the ABINIT project.
- Note that a version of this paper, that is not formatted for Computer Phys. Comm. 
- is available at https://www.abinit.org/sites/default/files/ABINIT20.pdf .
- The licence allows the authors to put it on the Web.
- DOI and bibtex: see https://docs.abinit.org/theory/bibliography/#gonze2020
-
- [4] ABINIT: Overview, and focus on selected capabilities
- J. Chem. Phys. 152, 124102 (2020).
- A. Romero, D.C. Allan, B. Amadon, G. Antonius, T. Applencourt, L.Baguet,
- J.Bieder, F.Bottin, J.Bouchet, E.Bousquet, F.Bruneval,
- G.Brunin, D.Caliste, M.Cote,
- J.Denier, C. Dreyer, Ph.Ghosez, M.Giantomassi, Y.Gillet, O.Gingras,
- D.R.Hamann, G.Hautier, F.Jollet, G. Jomard,
- A.Martin, 
- H.P.C. Miranda, F.Naccarato, G.Petretto, N.A. Pike, V.Planes,
- S.Prokhorenko, T. Rangel, F.Ricci, G.-M.Rignanese, M.Royo, M.Stengel, M.Torrent,
- M.J.van Setten, B.Van Troeye, M.J.Verstraete, J.Wiktor, J.W.Zwanziger, and X.Gonze.
- Comment: a global overview of ABINIT, with focus on selected capabilities .
- Note that a version of this paper, that is not formatted for J. Chem. Phys 
- is available at https://www.abinit.org/sites/default/files/ABINIT20_JPC.pdf .
- The licence allows the authors to put it on the Web.
- DOI and bibtex: see https://docs.abinit.org/theory/bibliography/#romero2020
-
- [5] Recent developments in the ABINIT software package.
- Computer Phys. Comm. 205, 106 (2016).
- X.Gonze, F.Jollet, F.Abreu Araujo, D.Adams, B.Amadon, T.Applencourt,
- C.Audouze, J.-M.Beuken, J.Bieder, A.Bokhanchuk, E.Bousquet, F.Bruneval
- D.Caliste, M.Cote, F.Dahm, F.Da Pieve, M.Delaveau, M.Di Gennaro,
- B.Dorado, C.Espejo, G.Geneste, L.Genovese, A.Gerossier, M.Giantomassi,
- Y.Gillet, D.R.Hamann, L.He, G.Jomard, J.Laflamme Janssen, S.Le Roux,
- A.Levitt, A.Lherbier, F.Liu, I.Lukacevic, A.Martin, C.Martins,
- M.J.T.Oliveira, S.Ponce, Y.Pouillon, T.Rangel, G.-M.Rignanese,
- A.H.Romero, B.Rousseau, O.Rubel, A.A.Shukri, M.Stankovski, M.Torrent,
- M.J.Van Setten, B.Van Troeye, M.J.Verstraete, D.Waroquier, J.Wiktor,
- B.Xu, A.Zhou, J.W.Zwanziger.
- Comment: the fourth generic paper describing the ABINIT project.
- Note that a version of this paper, that is not formatted for Computer Phys. Comm. 
- is available at https://www.abinit.org/sites/default/files/ABINIT16.pdf .
- The licence allows the authors to put it on the Web.
- DOI and bibtex: see https://docs.abinit.org/theory/bibliography/#gonze2016
-
- Proc.   0 individual time (sec): cpu=       9828.3  wall=       9844.9

================================================================================

 Calculation completed.
.Delivered   0 WARNINGs and   0 COMMENTs to log file.
+Overall time at end (sec) : cpu=      39313.9  wall=      39379.5
