
.Version 9.2.2 of ABINIT 
.(MPI version, prepared for a x86_64_linux_gnu9.3 computer) 

.Copyright (C) 1998-2020 ABINIT group . 
 ABINIT comes with ABSOLUTELY NO WARRANTY.
 It is free software, and you are welcome to redistribute it
 under certain conditions (GNU General Public License,
 see ~abinit/COPYING or http://www.gnu.org/copyleft/gpl.txt).

 ABINIT is a project of the Universite Catholique de Louvain,
 Corning Inc. and other collaborators, see ~abinit/doc/developers/contributors.txt .
 Please read https://docs.abinit.org/theory/acknowledgments for suggested
 acknowledgments of the ABINIT effort.
 For more information, see https://www.abinit.org .

.Starting date : Sun 27 Nov 2022.
- ( at 18h22 )
  
- input  file    -> Cs2TiI6.in
- output file    -> Cs2TiI6.out
- root for input  files -> Cs2TiI6i
- root for output files -> Cs2TiI6o

- inpspheads : Reading pseudopotential header in XML form from 
-   ../../../Psps_for_tests/ATOMICDATA/Cs.GGA_PBE-JTH.xml
- inpspheads : Reading pseudopotential header in XML form from 
-   ../../../Psps_for_tests/ATOMICDATA/Br.GGA_PBE-JTH.xml
- inpspheads : Reading pseudopotential header in XML form from 
-   ../../../Psps_for_tests/ATOMICDATA/Zr.GGA_PBE-JTH.xml

 DATASET    1 : space group Fm -3 m (#225); Bravais cF (face-center cubic)
================================================================================
 Values of the parameters that define the memory need for DATASET  1.
     intxc =       0    ionmov =       0      iscf =      17    lmnmax =      18
     lnmax =       6     mgfft =      50  mpssoang =       3    mqgrid =    3209
     natom =       9  nloc_mem =       2    nspden =       1   nspinor =       1
    nsppol =       1      nsym =      48    n1xccc =       1    ntypat =       3
    occopt =       1   xclevel =       2
-    mband =          42        mffmem =           1         mkmem =          12
       mpw =        5734          nfft =      125000          nkpt =          72
Pmy_natom=         2
 PAW method is used; the additional fine FFT grid is defined by:
   mgfftf=        80    nfftf =    512000
================================================================================
P This job should need less than                     194.981 Mbytes of memory.
  Rough estimation (10% accuracy) of disk space for files :
_ WF disk file :    264.584 Mbytes ; DEN or POT disk file :      3.908 Mbytes.
================================================================================


 DATASET    2 : space group Fm -3 m (#225); Bravais cF (face-center cubic)
================================================================================
 Values of the parameters that define the memory need for DATASET  2.
     intxc =       0    ionmov =       0      iscf =      17    lmnmax =      18
     lnmax =       6     mgfft =      50  mpssoang =       3    mqgrid =    3208
     natom =       9  nloc_mem =       2    nspden =       1   nspinor =       1
    nsppol =       1      nsym =      48    n1xccc =       1    ntypat =       3
    occopt =       1   xclevel =       2
-    mband =          42        mffmem =           1         mkmem =          12
       mpw =        5720          nfft =      125000          nkpt =          72
Pmy_natom=         2
 PAW method is used; the additional fine FFT grid is defined by:
   mgfftf=        80    nfftf =    512000
================================================================================
P This job should need less than                     194.866 Mbytes of memory.
  Rough estimation (10% accuracy) of disk space for files :
_ WF disk file :    263.938 Mbytes ; DEN or POT disk file :      3.908 Mbytes.
================================================================================


 DATASET    3 : space group Fm -3 m (#225); Bravais cF (face-center cubic)
================================================================================
 Values of the parameters that define the memory need for DATASET  3.
     intxc =       0    ionmov =       0      iscf =      17    lmnmax =      18
     lnmax =       6     mgfft =      50  mpssoang =       3    mqgrid =    3206
     natom =       9  nloc_mem =       2    nspden =       1   nspinor =       1
    nsppol =       1      nsym =      48    n1xccc =       1    ntypat =       3
    occopt =       1   xclevel =       2
-    mband =          42        mffmem =           1         mkmem =          12
       mpw =        5711          nfft =      125000          nkpt =          72
Pmy_natom=         2
 PAW method is used; the additional fine FFT grid is defined by:
   mgfftf=        80    nfftf =    512000
================================================================================
P This job should need less than                     194.793 Mbytes of memory.
  Rough estimation (10% accuracy) of disk space for files :
_ WF disk file :    263.522 Mbytes ; DEN or POT disk file :      3.908 Mbytes.
================================================================================


 DATASET    4 : space group Fm -3 m (#225); Bravais cF (face-center cubic)
================================================================================
 Values of the parameters that define the memory need for DATASET  4.
     intxc =       0    ionmov =       0      iscf =      17    lmnmax =      18
     lnmax =       6     mgfft =      50  mpssoang =       3    mqgrid =    3204
     natom =       9  nloc_mem =       2    nspden =       1   nspinor =       1
    nsppol =       1      nsym =      48    n1xccc =       1    ntypat =       3
    occopt =       1   xclevel =       2
-    mband =          42        mffmem =           1         mkmem =          12
       mpw =        5709          nfft =      125000          nkpt =          72
Pmy_natom=         2
 PAW method is used; the additional fine FFT grid is defined by:
   mgfftf=        80    nfftf =    512000
================================================================================
P This job should need less than                     194.781 Mbytes of memory.
  Rough estimation (10% accuracy) of disk space for files :
_ WF disk file :    263.430 Mbytes ; DEN or POT disk file :      3.908 Mbytes.
================================================================================


 DATASET    5 : space group Fm -3 m (#225); Bravais cF (face-center cubic)
================================================================================
 Values of the parameters that define the memory need for DATASET  5.
     intxc =       0    ionmov =       0      iscf =      17    lmnmax =      18
     lnmax =       6     mgfft =      50  mpssoang =       3    mqgrid =    3203
     natom =       9  nloc_mem =       2    nspden =       1   nspinor =       1
    nsppol =       1      nsym =      48    n1xccc =       1    ntypat =       3
    occopt =       1   xclevel =       2
-    mband =          42        mffmem =           1         mkmem =          12
       mpw =        5697          nfft =      125000          nkpt =          72
Pmy_natom=         2
 PAW method is used; the additional fine FFT grid is defined by:
   mgfftf=        80    nfftf =    512000
================================================================================
P This job should need less than                     194.682 Mbytes of memory.
  Rough estimation (10% accuracy) of disk space for files :
_ WF disk file :    262.876 Mbytes ; DEN or POT disk file :      3.908 Mbytes.
================================================================================


 DATASET    6 : space group Fm -3 m (#225); Bravais cF (face-center cubic)
================================================================================
 Values of the parameters that define the memory need for DATASET  6.
     intxc =       0    ionmov =       0      iscf =      17    lmnmax =      18
     lnmax =       6     mgfft =      50  mpssoang =       3    mqgrid =    3201
     natom =       9  nloc_mem =       2    nspden =       1   nspinor =       1
    nsppol =       1      nsym =      48    n1xccc =       1    ntypat =       3
    occopt =       1   xclevel =       2
-    mband =          42        mffmem =           1         mkmem =          12
       mpw =        5681          nfft =      125000          nkpt =          72
Pmy_natom=         2
 PAW method is used; the additional fine FFT grid is defined by:
   mgfftf=        80    nfftf =    512000
================================================================================
P This job should need less than                     194.549 Mbytes of memory.
  Rough estimation (10% accuracy) of disk space for files :
_ WF disk file :    262.138 Mbytes ; DEN or POT disk file :      3.908 Mbytes.
================================================================================


 DATASET    7 : space group Fm -3 m (#225); Bravais cF (face-center cubic)
================================================================================
 Values of the parameters that define the memory need for DATASET  7.
     intxc =       0    ionmov =       0      iscf =      17    lmnmax =      18
     lnmax =       6     mgfft =      50  mpssoang =       3    mqgrid =    3200
     natom =       9  nloc_mem =       2    nspden =       1   nspinor =       1
    nsppol =       1      nsym =      48    n1xccc =       1    ntypat =       3
    occopt =       1   xclevel =       2
-    mband =          42        mffmem =           1         mkmem =          12
       mpw =        5679          nfft =      125000          nkpt =          72
Pmy_natom=         2
 PAW method is used; the additional fine FFT grid is defined by:
   mgfftf=        80    nfftf =    512000
================================================================================
P This job should need less than                     194.537 Mbytes of memory.
  Rough estimation (10% accuracy) of disk space for files :
_ WF disk file :    262.046 Mbytes ; DEN or POT disk file :      3.908 Mbytes.
================================================================================


 DATASET    8 : space group Fm -3 m (#225); Bravais cF (face-center cubic)
================================================================================
 Values of the parameters that define the memory need for DATASET  8.
     intxc =       0    ionmov =       0      iscf =      17    lmnmax =      18
     lnmax =       6     mgfft =      50  mpssoang =       3    mqgrid =    3198
     natom =       9  nloc_mem =       2    nspden =       1   nspinor =       1
    nsppol =       1      nsym =      48    n1xccc =       1    ntypat =       3
    occopt =       1   xclevel =       2
-    mband =          42        mffmem =           1         mkmem =          12
       mpw =        5677          nfft =      125000          nkpt =          72
Pmy_natom=         2
 PAW method is used; the additional fine FFT grid is defined by:
   mgfftf=        80    nfftf =    512000
================================================================================
P This job should need less than                     194.525 Mbytes of memory.
  Rough estimation (10% accuracy) of disk space for files :
_ WF disk file :    261.953 Mbytes ; DEN or POT disk file :      3.908 Mbytes.
================================================================================


 DATASET    9 : space group Fm -3 m (#225); Bravais cF (face-center cubic)
================================================================================
 Values of the parameters that define the memory need for DATASET  9.
     intxc =       0    ionmov =       0      iscf =      17    lmnmax =      18
     lnmax =       6     mgfft =      50  mpssoang =       3    mqgrid =    3196
     natom =       9  nloc_mem =       2    nspden =       1   nspinor =       1
    nsppol =       1      nsym =      48    n1xccc =       1    ntypat =       3
    occopt =       1   xclevel =       2
-    mband =          42        mffmem =           1         mkmem =          12
       mpw =        5672          nfft =      125000          nkpt =          72
Pmy_natom=         2
 PAW method is used; the additional fine FFT grid is defined by:
   mgfftf=        80    nfftf =    512000
================================================================================
P This job should need less than                     194.487 Mbytes of memory.
  Rough estimation (10% accuracy) of disk space for files :
_ WF disk file :    261.723 Mbytes ; DEN or POT disk file :      3.908 Mbytes.
================================================================================


 DATASET   10 : space group Fm -3 m (#225); Bravais cF (face-center cubic)
================================================================================
 Values of the parameters that define the memory need for DATASET 10.
     intxc =       0    ionmov =       0      iscf =      17    lmnmax =      18
     lnmax =       6     mgfft =      50  mpssoang =       3    mqgrid =    3195
     natom =       9  nloc_mem =       2    nspden =       1   nspinor =       1
    nsppol =       1      nsym =      48    n1xccc =       1    ntypat =       3
    occopt =       1   xclevel =       2
-    mband =          42        mffmem =           1         mkmem =          12
       mpw =        5672          nfft =      125000          nkpt =          72
Pmy_natom=         2
 PAW method is used; the additional fine FFT grid is defined by:
   mgfftf=        80    nfftf =    512000
================================================================================
P This job should need less than                     194.492 Mbytes of memory.
  Rough estimation (10% accuracy) of disk space for files :
_ WF disk file :    261.723 Mbytes ; DEN or POT disk file :      3.908 Mbytes.
================================================================================


 DATASET   11 : space group Fm -3 m (#225); Bravais cF (face-center cubic)
================================================================================
 Values of the parameters that define the memory need for DATASET 11.
     intxc =       0    ionmov =       0      iscf =      17    lmnmax =      18
     lnmax =       6     mgfft =      50  mpssoang =       3    mqgrid =    3193
     natom =       9  nloc_mem =       2    nspden =       1   nspinor =       1
    nsppol =       1      nsym =      48    n1xccc =       1    ntypat =       3
    occopt =       1   xclevel =       2
-    mband =          42        mffmem =           1         mkmem =          12
       mpw =        5649          nfft =      125000          nkpt =          72
Pmy_natom=         2
 PAW method is used; the additional fine FFT grid is defined by:
   mgfftf=        80    nfftf =    512000
================================================================================
P This job should need less than                     194.298 Mbytes of memory.
  Rough estimation (10% accuracy) of disk space for files :
_ WF disk file :    260.661 Mbytes ; DEN or POT disk file :      3.908 Mbytes.
================================================================================


 DATASET   12 : space group Fm -3 m (#225); Bravais cF (face-center cubic)
================================================================================
 Values of the parameters that define the memory need for DATASET 12.
     intxc =       0    ionmov =       0      iscf =      17    lmnmax =      18
     lnmax =       6     mgfft =      50  mpssoang =       3    mqgrid =    3192
     natom =       9  nloc_mem =       2    nspden =       1   nspinor =       1
    nsppol =       1      nsym =      48    n1xccc =       1    ntypat =       3
    occopt =       1   xclevel =       2
-    mband =          42        mffmem =           1         mkmem =          12
       mpw =        5645          nfft =      125000          nkpt =          72
Pmy_natom=         2
 PAW method is used; the additional fine FFT grid is defined by:
   mgfftf=        80    nfftf =    512000
================================================================================
P This job should need less than                     194.269 Mbytes of memory.
  Rough estimation (10% accuracy) of disk space for files :
_ WF disk file :    260.477 Mbytes ; DEN or POT disk file :      3.908 Mbytes.
================================================================================


 DATASET   13 : space group Fm -3 m (#225); Bravais cF (face-center cubic)
================================================================================
 Values of the parameters that define the memory need for DATASET 13.
     intxc =       0    ionmov =       0      iscf =      17    lmnmax =      18
     lnmax =       6     mgfft =      50  mpssoang =       3    mqgrid =    3190
     natom =       9  nloc_mem =       2    nspden =       1   nspinor =       1
    nsppol =       1      nsym =      48    n1xccc =       1    ntypat =       3
    occopt =       1   xclevel =       2
-    mband =          42        mffmem =           1         mkmem =          12
       mpw =        5634          nfft =      125000          nkpt =          72
Pmy_natom=         2
 PAW method is used; the additional fine FFT grid is defined by:
   mgfftf=        80    nfftf =    512000
================================================================================
P This job should need less than                     194.179 Mbytes of memory.
  Rough estimation (10% accuracy) of disk space for files :
_ WF disk file :    259.969 Mbytes ; DEN or POT disk file :      3.908 Mbytes.
================================================================================


 DATASET   14 : space group Fm -3 m (#225); Bravais cF (face-center cubic)
================================================================================
 Values of the parameters that define the memory need for DATASET 14.
     intxc =       0    ionmov =       0      iscf =      17    lmnmax =      18
     lnmax =       6     mgfft =      50  mpssoang =       3    mqgrid =    3188
     natom =       9  nloc_mem =       2    nspden =       1   nspinor =       1
    nsppol =       1      nsym =      48    n1xccc =       1    ntypat =       3
    occopt =       1   xclevel =       2
-    mband =          42        mffmem =           1         mkmem =          12
       mpw =        5633          nfft =      125000          nkpt =          72
Pmy_natom=         2
 PAW method is used; the additional fine FFT grid is defined by:
   mgfftf=        80    nfftf =    512000
================================================================================
P This job should need less than                     194.176 Mbytes of memory.
  Rough estimation (10% accuracy) of disk space for files :
_ WF disk file :    259.923 Mbytes ; DEN or POT disk file :      3.908 Mbytes.
================================================================================


 DATASET   15 : space group Fm -3 m (#225); Bravais cF (face-center cubic)
================================================================================
 Values of the parameters that define the memory need for DATASET 15.
     intxc =       0    ionmov =       0      iscf =      17    lmnmax =      18
     lnmax =       6     mgfft =      50  mpssoang =       3    mqgrid =    3187
     natom =       9  nloc_mem =       2    nspden =       1   nspinor =       1
    nsppol =       1      nsym =      48    n1xccc =       1    ntypat =       3
    occopt =       1   xclevel =       2
-    mband =          42        mffmem =           1         mkmem =          12
       mpw =        5621          nfft =      125000          nkpt =          72
Pmy_natom=         2
 PAW method is used; the additional fine FFT grid is defined by:
   mgfftf=        80    nfftf =    512000
================================================================================
P This job should need less than                     194.078 Mbytes of memory.
  Rough estimation (10% accuracy) of disk space for files :
_ WF disk file :    259.369 Mbytes ; DEN or POT disk file :      3.908 Mbytes.
================================================================================


 DATASET   16 : space group Fm -3 m (#225); Bravais cF (face-center cubic)
================================================================================
 Values of the parameters that define the memory need for DATASET 16.
     intxc =       0    ionmov =       0      iscf =      17    lmnmax =      18
     lnmax =       6     mgfft =      50  mpssoang =       3    mqgrid =    3185
     natom =       9  nloc_mem =       2    nspden =       1   nspinor =       1
    nsppol =       1      nsym =      48    n1xccc =       1    ntypat =       3
    occopt =       1   xclevel =       2
-    mband =          42        mffmem =           1         mkmem =          12
       mpw =        5615          nfft =      125000          nkpt =          72
Pmy_natom=         2
 PAW method is used; the additional fine FFT grid is defined by:
   mgfftf=        80    nfftf =    512000
================================================================================
P This job should need less than                     194.031 Mbytes of memory.
  Rough estimation (10% accuracy) of disk space for files :
_ WF disk file :    259.093 Mbytes ; DEN or POT disk file :      3.908 Mbytes.
================================================================================


 DATASET   17 : space group Fm -3 m (#225); Bravais cF (face-center cubic)
================================================================================
 Values of the parameters that define the memory need for DATASET 17.
     intxc =       0    ionmov =       0      iscf =      17    lmnmax =      18
     lnmax =       6     mgfft =      50  mpssoang =       3    mqgrid =    3184
     natom =       9  nloc_mem =       2    nspden =       1   nspinor =       1
    nsppol =       1      nsym =      48    n1xccc =       1    ntypat =       3
    occopt =       1   xclevel =       2
-    mband =          42        mffmem =           1         mkmem =          12
       mpw =        5609          nfft =      125000          nkpt =          72
Pmy_natom=         2
 PAW method is used; the additional fine FFT grid is defined by:
   mgfftf=        80    nfftf =    512000
================================================================================
P This job should need less than                     193.985 Mbytes of memory.
  Rough estimation (10% accuracy) of disk space for files :
_ WF disk file :    258.816 Mbytes ; DEN or POT disk file :      3.908 Mbytes.
================================================================================


 DATASET   18 : space group Fm -3 m (#225); Bravais cF (face-center cubic)
================================================================================
 Values of the parameters that define the memory need for DATASET 18.
     intxc =       0    ionmov =       0      iscf =      17    lmnmax =      18
     lnmax =       6     mgfft =      50  mpssoang =       3    mqgrid =    3182
     natom =       9  nloc_mem =       2    nspden =       1   nspinor =       1
    nsppol =       1      nsym =      48    n1xccc =       1    ntypat =       3
    occopt =       1   xclevel =       2
-    mband =          42        mffmem =           1         mkmem =          12
       mpw =        5591          nfft =      125000          nkpt =          72
Pmy_natom=         2
 PAW method is used; the additional fine FFT grid is defined by:
   mgfftf=        80    nfftf =    512000
================================================================================
P This job should need less than                     193.834 Mbytes of memory.
  Rough estimation (10% accuracy) of disk space for files :
_ WF disk file :    257.985 Mbytes ; DEN or POT disk file :      3.908 Mbytes.
================================================================================


 DATASET   19 : space group Fm -3 m (#225); Bravais cF (face-center cubic)
================================================================================
 Values of the parameters that define the memory need for DATASET 19.
     intxc =       0    ionmov =       0      iscf =      17    lmnmax =      18
     lnmax =       6     mgfft =      50  mpssoang =       3    mqgrid =    3180
     natom =       9  nloc_mem =       2    nspden =       1   nspinor =       1
    nsppol =       1      nsym =      48    n1xccc =       1    ntypat =       3
    occopt =       1   xclevel =       2
-    mband =          42        mffmem =           1         mkmem =          12
       mpw =        5573          nfft =      125000          nkpt =          72
Pmy_natom=         2
 PAW method is used; the additional fine FFT grid is defined by:
   mgfftf=        80    nfftf =    512000
================================================================================
P This job should need less than                     193.684 Mbytes of memory.
  Rough estimation (10% accuracy) of disk space for files :
_ WF disk file :    257.155 Mbytes ; DEN or POT disk file :      3.908 Mbytes.
================================================================================


 DATASET   20 : space group Fm -3 m (#225); Bravais cF (face-center cubic)
================================================================================
 Values of the parameters that define the memory need for DATASET 20.
     intxc =       0    ionmov =       0      iscf =      17    lmnmax =      18
     lnmax =       6     mgfft =      50  mpssoang =       3    mqgrid =    3179
     natom =       9  nloc_mem =       2    nspden =       1   nspinor =       1
    nsppol =       1      nsym =      48    n1xccc =       1    ntypat =       3
    occopt =       1   xclevel =       2
-    mband =          42        mffmem =           1         mkmem =          12
       mpw =        5564          nfft =      125000          nkpt =          72
Pmy_natom=         2
 PAW method is used; the additional fine FFT grid is defined by:
   mgfftf=        80    nfftf =    512000
================================================================================
P This job should need less than                     193.611 Mbytes of memory.
  Rough estimation (10% accuracy) of disk space for files :
_ WF disk file :    256.739 Mbytes ; DEN or POT disk file :      3.908 Mbytes.
================================================================================

--------------------------------------------------------------------------------
------------- Echo of variables that govern the present computation ------------
--------------------------------------------------------------------------------
-
- outvars: echo of selected default values                                      
-   iomode0 =  0 , fftalg0 =112 , wfoptalg0 = 10
-
- outvars: echo of global parameters not present in the input file              
-  max_nthreads =    0
-
 -outvars: echo values of preprocessed input variables --------
            acell1     1.3803283181E+01  1.3803283181E+01  1.3803283181E+01 Bohr
            acell2     1.3796378087E+01  1.3796378087E+01  1.3796378087E+01 Bohr
            acell3     1.3789472993E+01  1.3789472993E+01  1.3789472993E+01 Bohr
            acell4     1.3782567898E+01  1.3782567898E+01  1.3782567898E+01 Bohr
            acell5     1.3775662804E+01  1.3775662804E+01  1.3775662804E+01 Bohr
            acell6     1.3768757710E+01  1.3768757710E+01  1.3768757710E+01 Bohr
            acell7     1.3761852616E+01  1.3761852616E+01  1.3761852616E+01 Bohr
            acell8     1.3754947522E+01  1.3754947522E+01  1.3754947522E+01 Bohr
            acell9     1.3748042428E+01  1.3748042428E+01  1.3748042428E+01 Bohr
            acell10    1.3741137334E+01  1.3741137334E+01  1.3741137334E+01 Bohr
            acell11    1.3734232239E+01  1.3734232239E+01  1.3734232239E+01 Bohr
            acell12    1.3727327145E+01  1.3727327145E+01  1.3727327145E+01 Bohr
            acell13    1.3720422051E+01  1.3720422051E+01  1.3720422051E+01 Bohr
            acell14    1.3713516957E+01  1.3713516957E+01  1.3713516957E+01 Bohr
            acell15    1.3706611863E+01  1.3706611863E+01  1.3706611863E+01 Bohr
            acell16    1.3699706769E+01  1.3699706769E+01  1.3699706769E+01 Bohr
            acell17    1.3692801675E+01  1.3692801675E+01  1.3692801675E+01 Bohr
            acell18    1.3685896581E+01  1.3685896581E+01  1.3685896581E+01 Bohr
            acell19    1.3678991486E+01  1.3678991486E+01  1.3678991486E+01 Bohr
            acell20    1.3672086392E+01  1.3672086392E+01  1.3672086392E+01 Bohr
              amu      1.32905430E+02  7.99040000E+01  9.12240000E+01
           diemac      1.20000000E+01
             ecut      1.60000000E+01 Hartree
-          fftalg         112
           istwfk        2    0    0    0    0    0    3    0    0    0
                         0    0    0    0    0    0    0    0    0    0
                         0    0    0    0    0    0    0    0    0    0
                         0    0    0    0    0    0    0    0    0    0
                         0    0    7    0    0    0    0    0    0    0
                       outvar_i_n : Printing only first  50 k-points.
              ixc     -101130
           jdtset        1    2    3    4    5    6    7    8    9   10
                        11   12   13   14   15   16   17   18   19   20
              kpt      0.00000000E+00  0.00000000E+00  0.00000000E+00
                       8.33333333E-02  0.00000000E+00  0.00000000E+00
                       1.66666667E-01  0.00000000E+00  0.00000000E+00
                       2.50000000E-01  0.00000000E+00  0.00000000E+00
                       3.33333333E-01  0.00000000E+00  0.00000000E+00
                       4.16666667E-01  0.00000000E+00  0.00000000E+00
                       5.00000000E-01  0.00000000E+00  0.00000000E+00
                       8.33333333E-02  8.33333333E-02  0.00000000E+00
                       1.66666667E-01  8.33333333E-02  0.00000000E+00
                       2.50000000E-01  8.33333333E-02  0.00000000E+00
                       3.33333333E-01  8.33333333E-02  0.00000000E+00
                       4.16666667E-01  8.33333333E-02  0.00000000E+00
                       5.00000000E-01  8.33333333E-02  0.00000000E+00
                      -4.16666667E-01  8.33333333E-02  0.00000000E+00
                      -3.33333333E-01  8.33333333E-02  0.00000000E+00
                      -2.50000000E-01  8.33333333E-02  0.00000000E+00
                      -1.66666667E-01  8.33333333E-02  0.00000000E+00
                      -8.33333333E-02  8.33333333E-02  0.00000000E+00
                       1.66666667E-01  1.66666667E-01  0.00000000E+00
                       2.50000000E-01  1.66666667E-01  0.00000000E+00
                       3.33333333E-01  1.66666667E-01  0.00000000E+00
                       4.16666667E-01  1.66666667E-01  0.00000000E+00
                       5.00000000E-01  1.66666667E-01  0.00000000E+00
                      -4.16666667E-01  1.66666667E-01  0.00000000E+00
                      -3.33333333E-01  1.66666667E-01  0.00000000E+00
                      -2.50000000E-01  1.66666667E-01  0.00000000E+00
                      -1.66666667E-01  1.66666667E-01  0.00000000E+00
                       2.50000000E-01  2.50000000E-01  0.00000000E+00
                       3.33333333E-01  2.50000000E-01  0.00000000E+00
                       4.16666667E-01  2.50000000E-01  0.00000000E+00
                       5.00000000E-01  2.50000000E-01  0.00000000E+00
                      -4.16666667E-01  2.50000000E-01  0.00000000E+00
                      -3.33333333E-01  2.50000000E-01  0.00000000E+00
                      -2.50000000E-01  2.50000000E-01  0.00000000E+00
                       3.33333333E-01  3.33333333E-01  0.00000000E+00
                       4.16666667E-01  3.33333333E-01  0.00000000E+00
                       5.00000000E-01  3.33333333E-01  0.00000000E+00
                      -4.16666667E-01  3.33333333E-01  0.00000000E+00
                      -3.33333333E-01  3.33333333E-01  0.00000000E+00
                       4.16666667E-01  4.16666667E-01  0.00000000E+00
                       5.00000000E-01  4.16666667E-01  0.00000000E+00
                      -4.16666667E-01  4.16666667E-01  0.00000000E+00
                       5.00000000E-01  5.00000000E-01  0.00000000E+00
                       2.50000000E-01  1.66666667E-01  8.33333333E-02
                       3.33333333E-01  1.66666667E-01  8.33333333E-02
                       4.16666667E-01  1.66666667E-01  8.33333333E-02
                       5.00000000E-01  1.66666667E-01  8.33333333E-02
                      -4.16666667E-01  1.66666667E-01  8.33333333E-02
                       3.33333333E-01  2.50000000E-01  8.33333333E-02
                       4.16666667E-01  2.50000000E-01  8.33333333E-02
                       outvar_i_n : Printing only first  50 k-points.
         kptrlatt       12    0    0      0   12    0      0    0   12
          kptrlen1     1.65639398E+02
          kptrlen2     1.65556537E+02
          kptrlen3     1.65473676E+02
          kptrlen4     1.65390815E+02
          kptrlen5     1.65307954E+02
          kptrlen6     1.65225093E+02
          kptrlen7     1.65142231E+02
          kptrlen8     1.65059370E+02
          kptrlen9     1.64976509E+02
          kptrlen10    1.64893648E+02
          kptrlen11    1.64810787E+02
          kptrlen12    1.64727926E+02
          kptrlen13    1.64645065E+02
          kptrlen14    1.64562203E+02
          kptrlen15    1.64479342E+02
          kptrlen16    1.64396481E+02
          kptrlen17    1.64313620E+02
          kptrlen18    1.64230759E+02
          kptrlen19    1.64147898E+02
          kptrlen20    1.64065037E+02
P           mkmem          12
            natom           9
            nband          42
           ndtset          20
            ngfft          50      50      50
          ngfftdg          80      80      80
             nkpt          72
            nstep        2500
             nsym          48
           ntypat           3
              occ      2.000000  2.000000  2.000000  2.000000  2.000000  2.000000
                       2.000000  2.000000  2.000000  2.000000  2.000000  2.000000
                       2.000000  2.000000  2.000000  2.000000  2.000000  2.000000
                       2.000000  2.000000  2.000000  2.000000  2.000000  2.000000
                       2.000000  2.000000  2.000000  2.000000  2.000000  2.000000
                       2.000000  2.000000  2.000000  2.000000  2.000000  2.000000
                       0.000000  0.000000  0.000000  0.000000  0.000000  0.000000
        pawecutdg      4.00000000E+01 Hartree
            prtwf           0
            rprim      0.0000000000E+00  7.0710678119E-01  7.0710678119E-01
                       7.0710678119E-01  0.0000000000E+00  7.0710678119E-01
                       7.0710678119E-01  7.0710678119E-01  0.0000000000E+00
          spgroup         225
           symrel      1  0  0   0  1  0   0  0  1      -1  0  0   0 -1  0   0  0 -1
                       0 -1  1   0 -1  0   1 -1  0       0  1 -1   0  1  0  -1  1  0
                      -1  0  0  -1  0  1  -1  1  0       1  0  0   1  0 -1   1 -1  0
                       0  1 -1   1  0 -1   0  0 -1       0 -1  1  -1  0  1   0  0  1
                      -1  0  0  -1  1  0  -1  0  1       1  0  0   1 -1  0   1  0 -1
                       0 -1  1   1 -1  0   0 -1  0       0  1 -1  -1  1  0   0  1  0
                       1  0  0   0  0  1   0  1  0      -1  0  0   0  0 -1   0 -1  0
                       0  1 -1   0  0 -1   1  0 -1       0 -1  1   0  0  1  -1  0  1
                      -1  0  1  -1  1  0  -1  0  0       1  0 -1   1 -1  0   1  0  0
                       0 -1  0   1 -1  0   0 -1  1       0  1  0  -1  1  0   0  1 -1
                       1  0 -1   0  0 -1   0  1 -1      -1  0  1   0  0  1   0 -1  1
                       0  1  0   0  0  1   1  0  0       0 -1  0   0  0 -1  -1  0  0
                       1  0 -1   0  1 -1   0  0 -1      -1  0  1   0 -1  1   0  0  1
                       0 -1  0   0 -1  1   1 -1  0       0  1  0   0  1 -1  -1  1  0
                      -1  0  1  -1  0  0  -1  1  0       1  0 -1   1  0  0   1 -1  0
                       0  1  0   1  0  0   0  0  1       0 -1  0  -1  0  0   0  0 -1
                       0  0 -1   0  1 -1   1  0 -1       0  0  1   0 -1  1  -1  0  1
                       1 -1  0   0 -1  1   0 -1  0      -1  1  0   0  1 -1   0  1  0
                       0  0  1   1  0  0   0  1  0       0  0 -1  -1  0  0   0 -1  0
                      -1  1  0  -1  0  0  -1  0  1       1 -1  0   1  0  0   1  0 -1
                       0  0  1   0  1  0   1  0  0       0  0 -1   0 -1  0  -1  0  0
                       1 -1  0   0 -1  0   0 -1  1      -1  1  0   0  1  0   0  1 -1
                       0  0 -1   1  0 -1   0  1 -1       0  0  1  -1  0  1   0 -1  1
                      -1  1  0  -1  0  1  -1  0  0       1 -1  0   1  0 -1   1  0  0
           toldfe      1.00000000E-08 Hartree
            typat      1  1  2  2  2  2  2  2  3
           useylm           1
              wtk        0.00058    0.00463    0.00463    0.00463    0.00463    0.00463
                         0.00231    0.00347    0.01389    0.01389    0.01389    0.01389
                         0.01389    0.01389    0.01389    0.01389    0.01389    0.00694
                         0.00347    0.01389    0.01389    0.01389    0.01389    0.01389
                         0.01389    0.01389    0.00694    0.00347    0.01389    0.01389
                         0.01389    0.01389    0.01389    0.00694    0.00347    0.01389
                         0.01389    0.01389    0.00694    0.00347    0.01389    0.00694
                         0.00174    0.01389    0.02778    0.02778    0.02778    0.01389
                         0.01389    0.02778
                       outvars : Printing only first  50 k-points.
           xangst1     2.5824893275E+00  2.5824893275E+00  2.5824893275E+00
                       7.7474679824E+00  7.7474679824E+00  7.7474679824E+00
                       5.1649786549E+00  5.1649786549E+00  2.6078063095E+00
                       5.1649786549E+00  5.1649786549E+00  7.7221510003E+00
                       7.7221510003E+00  5.1649786549E+00  5.1649786549E+00
                       5.1649786549E+00  7.7221510003E+00  5.1649786549E+00
                       5.1649786549E+00  2.6078063095E+00  5.1649786549E+00
                       2.6078063095E+00  5.1649786549E+00  5.1649786549E+00
                       2.3326184926E-20  5.6100814549E-20 -6.1197799931E-20
           xangst2     2.5811974369E+00  2.5811974369E+00  2.5811974369E+00
                       7.7435923106E+00  7.7435923106E+00  7.7435923106E+00
                       5.1623948737E+00  5.1623948737E+00  2.6074084948E+00
                       5.1623948737E+00  5.1623948737E+00  7.7173812527E+00
                       7.7173812527E+00  5.1623948737E+00  5.1623948737E+00
                       5.1623948737E+00  7.7173812527E+00  5.1623948737E+00
                       5.1623948737E+00  2.6074084948E+00  5.1623948737E+00
                       2.6074084948E+00  5.1623948737E+00  5.1623948737E+00
                       1.6604633487E-20  5.3443185157E-20 -5.6383780441E-20
           xangst3     2.5799055463E+00  2.5799055463E+00  2.5799055463E+00
                       7.7397166389E+00  7.7397166389E+00  7.7397166389E+00
                       5.1598110926E+00  5.1598110926E+00  2.6070658247E+00
                       5.1598110926E+00  5.1598110926E+00  7.7125563604E+00
                       7.7125563604E+00  5.1598110926E+00  5.1598110926E+00
                       5.1598110926E+00  7.7125563604E+00  5.1598110926E+00
                       5.1598110926E+00  2.6070658247E+00  5.1598110926E+00
                       2.6070658247E+00  5.1598110926E+00  5.1598110926E+00
                       4.8401502290E-20  3.7690006748E-20 -5.2263402623E-20
           xangst4     2.5786136555E+00  2.5786136555E+00  2.5786136555E+00
                       7.7358409665E+00  7.7358409665E+00  7.7358409665E+00
                       5.1572273110E+00  5.1572273110E+00  2.6066296607E+00
                       5.1572273110E+00  5.1572273110E+00  7.7078249614E+00
                       7.7078249614E+00  5.1572273110E+00  5.1572273110E+00
                       5.1572273110E+00  7.7078249614E+00  5.1572273110E+00
                       5.1572273110E+00  2.6066296607E+00  5.1572273110E+00
                       2.6066296607E+00  5.1572273110E+00  5.1572273110E+00
                       4.0734565110E-20  2.2284130520E-20 -4.6686466579E-20
           xangst5     2.5773217649E+00  2.5773217649E+00  2.5773217649E+00
                       7.7319652948E+00  7.7319652948E+00  7.7319652948E+00
                       5.1546435299E+00  5.1546435299E+00  2.6062211318E+00
                       5.1546435299E+00  5.1546435299E+00  7.7030659279E+00
                       7.7030659279E+00  5.1546435299E+00  5.1546435299E+00
                       5.1546435299E+00  7.7030659279E+00  5.1546435299E+00
                       5.1546435299E+00  2.6062211318E+00  5.1546435299E+00
                       2.6062211318E+00  5.1546435299E+00  5.1546435299E+00
                       1.2261572060E-21  6.0100199795E-20 -4.4645265997E-20
           xangst6     2.5760298743E+00  2.5760298743E+00  2.5760298743E+00
                       7.7280896230E+00  7.7280896230E+00  7.7280896230E+00
                       5.1520597487E+00  5.1520597487E+00  2.6057837517E+00
                       5.1520597487E+00  5.1520597487E+00  7.6983357457E+00
                       7.6983357457E+00  5.1520597487E+00  5.1520597487E+00
                       5.1520597487E+00  7.6983357457E+00  5.1520597487E+00
                       5.1520597487E+00  2.6057837517E+00  5.1520597487E+00
                       2.6057837517E+00  5.1520597487E+00  5.1520597487E+00
                       1.2628458218E-21  6.2128865012E-20 -4.4660190638E-20
           xangst7     2.5747379838E+00  2.5747379838E+00  2.5747379838E+00
                       7.7242139513E+00  7.7242139513E+00  7.7242139513E+00
                       5.1494759675E+00  5.1494759675E+00  2.6053678823E+00
                       5.1494759675E+00  5.1494759675E+00  7.6935840528E+00
                       7.6935840528E+00  5.1494759675E+00  5.1494759675E+00
                       5.1494759675E+00  7.6935840528E+00  5.1494759675E+00
                       5.1494759675E+00  2.6053678823E+00  5.1494759675E+00
                       2.6053678823E+00  5.1494759675E+00  5.1494759675E+00
                       4.8304553861E-20  3.7614513494E-20 -5.2158718791E-20
           xangst8     2.5734460932E+00  2.5734460932E+00  2.5734460932E+00
                       7.7203382795E+00  7.7203382795E+00  7.7203382795E+00
                       5.1468921864E+00  5.1468921864E+00  2.6049508099E+00
                       5.1468921864E+00  5.1468921864E+00  7.6888335628E+00
                       7.6888335628E+00  5.1468921864E+00  5.1468921864E+00
                       5.1468921864E+00  7.6888335628E+00  5.1468921864E+00
                       5.1468921864E+00  2.6049508099E+00  5.1468921864E+00
                       2.6049508099E+00  5.1468921864E+00  5.1468921864E+00
                       4.4357363874E-20  2.5205088671E-20 -7.9365940343E-20
           xangst9     2.5721542026E+00  2.5721542026E+00  2.5721542026E+00
                       7.7164626078E+00  7.7164626078E+00  7.7164626078E+00
                       5.1443084052E+00  5.1443084052E+00  2.6045316534E+00
                       5.1443084052E+00  5.1443084052E+00  7.6840851570E+00
                       7.6840851570E+00  5.1443084052E+00  5.1443084052E+00
                       5.1443084052E+00  7.6840851570E+00  5.1443084052E+00
                       5.1443084052E+00  2.6045316534E+00  5.1443084052E+00
                       2.6045316534E+00  5.1443084052E+00  5.1443084052E+00
                       5.5575506717E-20  3.0311401707E-21 -8.9089275704E-20
           xangst10    2.5708623120E+00  2.5708623120E+00  2.5708623120E+00
                       7.7125869360E+00  7.7125869360E+00  7.7125869360E+00
                       5.1417246240E+00  5.1417246240E+00  2.6040801791E+00
                       5.1417246240E+00  5.1417246240E+00  7.6793690690E+00
                       7.6793690690E+00  5.1417246240E+00  5.1417246240E+00
                       5.1417246240E+00  7.6793690690E+00  5.1417246240E+00
                       5.1417246240E+00  2.6040801791E+00  5.1417246240E+00
                       2.6040801791E+00  5.1417246240E+00  5.1417246240E+00
                       4.8231842542E-20  3.7557893555E-20 -5.2080205919E-20
           xangst11    2.5695704212E+00  2.5695704212E+00  2.5695704212E+00
                       7.7087112637E+00  7.7087112637E+00  7.7087112637E+00
                       5.1391408425E+00  5.1391408425E+00  2.6036006366E+00
                       5.1391408425E+00  5.1391408425E+00  7.6746810484E+00
                       7.6746810484E+00  5.1391408425E+00  5.1391408425E+00
                       5.1391408425E+00  7.6746810484E+00  5.1391408425E+00
                       5.1391408425E+00  2.6036006366E+00  5.1391408425E+00
                       2.6036006366E+00  5.1391408425E+00  5.1391408425E+00
                       6.4419848576E-20  4.0603341977E-20 -6.3657943732E-20
           xangst12    2.5682785307E+00  2.5682785307E+00  2.5682785307E+00
                       7.7048355920E+00  7.7048355920E+00  7.7048355920E+00
                       5.1365570613E+00  5.1365570613E+00  2.6031742979E+00
                       5.1365570613E+00  5.1365570613E+00  7.6699398247E+00
                       7.6699398247E+00  5.1365570613E+00  5.1365570613E+00
                       5.1365570613E+00  7.6699398247E+00  5.1365570613E+00
                       5.1365570613E+00  2.6031742979E+00  5.1365570613E+00
                       2.6031742979E+00  5.1365570613E+00  5.1365570613E+00
                       5.8903579942E-20  2.8345195672E-20 -3.9817260684E-20
           xangst13    2.5669866401E+00  2.5669866401E+00  2.5669866401E+00
                       7.7009599202E+00  7.7009599202E+00  7.7009599202E+00
                       5.1339732802E+00  5.1339732802E+00  2.6027878175E+00
                       5.1339732802E+00  5.1339732802E+00  7.6651587428E+00
                       7.6651587428E+00  5.1339732802E+00  5.1339732802E+00
                       5.1339732802E+00  7.6651587428E+00  5.1339732802E+00
                       5.1339732802E+00  2.6027878175E+00  5.1339732802E+00
                       2.6027878175E+00  5.1339732802E+00  5.1339732802E+00
                       5.4600254545E-20 -5.4955469211E-21 -3.3441955495E-20
           xangst14    2.5656947495E+00  2.5656947495E+00  2.5656947495E+00
                       7.6970842485E+00  7.6970842485E+00  7.6970842485E+00
                       5.1313894990E+00  5.1313894990E+00  2.6023389662E+00
                       5.1313894990E+00  5.1313894990E+00  7.6604400318E+00
                       7.6604400318E+00  5.1313894990E+00  5.1313894990E+00
                       5.1313894990E+00  7.6604400318E+00  5.1313894990E+00
                       5.1313894990E+00  2.6023389662E+00  5.1313894990E+00
                       2.6023389662E+00  5.1313894990E+00  5.1313894990E+00
                       4.8134894113E-20  3.7482400300E-20 -5.1975522086E-20
           xangst15    2.5644028589E+00  2.5644028589E+00  2.5644028589E+00
                       7.6932085767E+00  7.6932085767E+00  7.6932085767E+00
                       5.1288057178E+00  5.1288057178E+00  2.6018915792E+00
                       5.1288057178E+00  5.1288057178E+00  7.6557198564E+00
                       7.6557198564E+00  5.1288057178E+00  5.1288057178E+00
                       5.1288057178E+00  7.6557198564E+00  5.1288057178E+00
                       5.1288057178E+00  2.6018915792E+00  5.1288057178E+00
                       2.6018915792E+00  5.1288057178E+00  5.1288057178E+00
                       3.4099916709E-20  2.1348792172E-20 -5.3929861405E-20
           xangst16    2.5631109683E+00  2.5631109683E+00  2.5631109683E+00
                       7.6893329050E+00  7.6893329050E+00  7.6893329050E+00
                       5.1262219367E+00  5.1262219367E+00  2.6013930499E+00
                       5.1262219367E+00  5.1262219367E+00  7.6510508235E+00
                       7.6510508235E+00  5.1262219367E+00  5.1262219367E+00
                       5.1262219367E+00  7.6510508235E+00  5.1262219367E+00
                       5.1262219367E+00  2.6013930499E+00  5.1262219367E+00
                       2.6013930499E+00  5.1262219367E+00  5.1262219367E+00
                       2.4249772595E-20  2.3024107762E-20 -8.2422585327E-20
           xangst17    2.5618190777E+00  2.5618190777E+00  2.5618190777E+00
                       7.6854572332E+00  7.6854572332E+00  7.6854572332E+00
                       5.1236381555E+00  5.1236381555E+00  2.6009752617E+00
                       5.1236381555E+00  5.1236381555E+00  7.6463010493E+00
                       7.6463010493E+00  5.1236381555E+00  5.1236381555E+00
                       5.1236381555E+00  7.6463010493E+00  5.1236381555E+00
                       5.1236381555E+00  2.6009752617E+00  5.1236381555E+00
                       2.6009752617E+00  5.1236381555E+00  5.1236381555E+00
                       2.8769337361E-20  1.6977727176E-20 -5.4115053711E-20
           xangst18    2.5605271872E+00  2.5605271872E+00  2.5605271872E+00
                       7.6815815615E+00  7.6815815615E+00  7.6815815615E+00
                       5.1210543743E+00  5.1210543743E+00  2.6005343966E+00
                       5.1210543743E+00  5.1210543743E+00  7.6415743521E+00
                       7.6415743521E+00  5.1210543743E+00  5.1210543743E+00
                       5.1210543743E+00  7.6415743521E+00  5.1210543743E+00
                       5.1210543743E+00  2.6005343966E+00  5.1210543743E+00
                       2.6005343966E+00  5.1210543743E+00  5.1210543743E+00
                       6.1662038758E-21  1.9682189633E-20 -1.9298558006E-20
           xangst19    2.5592352964E+00  2.5592352964E+00  2.5592352964E+00
                       7.6777058892E+00  7.6777058892E+00  7.6777058892E+00
                       5.1184705928E+00  5.1184705928E+00  2.6000722846E+00
                       5.1184705928E+00  5.1184705928E+00  7.6368689009E+00
                       7.6368689009E+00  5.1184705928E+00  5.1184705928E+00
                       5.1184705928E+00  7.6368689009E+00  5.1184705928E+00
                       5.1184705928E+00  2.6000722846E+00  5.1184705928E+00
                       2.6000722846E+00  5.1184705928E+00  5.1184705928E+00
                       4.8013708578E-20  3.7388033733E-20 -5.1844667296E-20
           xangst20    2.5579434058E+00  2.5579434058E+00  2.5579434058E+00
                       7.6738302174E+00  7.6738302174E+00  7.6738302174E+00
                       5.1158868116E+00  5.1158868116E+00  2.5996011730E+00
                       5.1158868116E+00  5.1158868116E+00  7.6321724502E+00
                       7.6321724502E+00  5.1158868116E+00  5.1158868116E+00
                       5.1158868116E+00  7.6321724502E+00  5.1158868116E+00
                       5.1158868116E+00  2.5996011730E+00  5.1158868116E+00
                       2.5996011730E+00  5.1158868116E+00  5.1158868116E+00
                       6.3687934778E-20  2.9846819075E-20 -5.0299643732E-20
            xcart1     4.8801975700E+00  4.8801975700E+00  4.8801975700E+00
                       1.4640592710E+01  1.4640592710E+01  1.4640592710E+01
                       9.7603951400E+00  9.7603951400E+00  4.9280397326E+00
                       9.7603951400E+00  9.7603951400E+00  1.4592750547E+01
                       1.4592750547E+01  9.7603951400E+00  9.7603951400E+00
                       9.7603951400E+00  1.4592750547E+01  9.7603951400E+00
                       9.7603951400E+00  4.9280397326E+00  9.7603951400E+00
                       4.9280397326E+00  9.7603951400E+00  9.7603951400E+00
                       4.4080101235E-20  1.0601517533E-19 -1.1564708181E-19
            xcart2     4.8777562506E+00  4.8777562506E+00  4.8777562506E+00
                       1.4633268752E+01  1.4633268752E+01  1.4633268752E+01
                       9.7555125012E+00  9.7555125012E+00  4.9272879718E+00
                       9.7555125012E+00  9.7555125012E+00  1.4583737031E+01
                       1.4583737031E+01  9.7555125012E+00  9.7555125012E+00
                       9.7555125012E+00  1.4583737031E+01  9.7555125012E+00
                       9.7555125012E+00  4.9272879718E+00  9.7555125012E+00
                       4.9272879718E+00  9.7555125012E+00  9.7555125012E+00
                       3.1378209827E-20  1.0099298362E-19 -1.0654990337E-19
            xcart3     4.8753149312E+00  4.8753149312E+00  4.8753149312E+00
                       1.4625944794E+01  1.4625944794E+01  1.4625944794E+01
                       9.7506298624E+00  9.7506298624E+00  4.9266404191E+00
                       9.7506298624E+00  9.7506298624E+00  1.4574619306E+01
                       1.4574619306E+01  9.7506298624E+00  9.7506298624E+00
                       9.7506298624E+00  1.4574619306E+01  9.7506298624E+00
                       9.7506298624E+00  4.9266404191E+00  9.7506298624E+00
                       4.9266404191E+00  9.7506298624E+00  9.7506298624E+00
                       9.1465583748E-20  7.1223790701E-20 -9.8763517731E-20
            xcart4     4.8728736114E+00  4.8728736114E+00  4.8728736114E+00
                       1.4618620834E+01  1.4618620834E+01  1.4618620834E+01
                       9.7457472229E+00  9.7457472229E+00  4.9258161886E+00
                       9.7457472229E+00  9.7457472229E+00  1.4565678257E+01
                       1.4565678257E+01  9.7457472229E+00  9.7457472229E+00
                       9.7457472229E+00  1.4565678257E+01  9.7457472229E+00
                       9.7457472229E+00  4.9258161886E+00  9.7457472229E+00
                       4.9258161886E+00  9.7457472229E+00  9.7457472229E+00
                       7.6977172201E-20  4.2110903792E-20 -8.8224635946E-20
            xcart5     4.8704322920E+00  4.8704322920E+00  4.8704322920E+00
                       1.4611296876E+01  1.4611296876E+01  1.4611296876E+01
                       9.7408645841E+00  9.7408645841E+00  4.9250441809E+00
                       9.7408645841E+00  9.7408645841E+00  1.4556684987E+01
                       1.4556684987E+01  9.7408645841E+00  9.7408645841E+00
                       9.7408645841E+00  1.4556684987E+01  9.7408645841E+00
                       9.7408645841E+00  4.9250441809E+00  9.7408645841E+00
                       4.9250441809E+00  9.7408645841E+00  9.7408645841E+00
                       2.3171013151E-21  1.1357291814E-19 -8.4367325865E-20
            xcart6     4.8679909727E+00  4.8679909727E+00  4.8679909727E+00
                       1.4603972918E+01  1.4603972918E+01  1.4603972918E+01
                       9.7359819453E+00  9.7359819453E+00  4.9242176523E+00
                       9.7359819453E+00  9.7359819453E+00  1.4547746238E+01
                       1.4547746238E+01  9.7359819453E+00  9.7359819453E+00
                       9.7359819453E+00  1.4547746238E+01  9.7359819453E+00
                       9.7359819453E+00  4.9242176523E+00  9.7359819453E+00
                       4.9242176523E+00  9.7359819453E+00  9.7359819453E+00
                       2.3864327513E-21  1.1740653982E-19 -8.4395529349E-20
            xcart7     4.8655496533E+00  4.8655496533E+00  4.8655496533E+00
                       1.4596648960E+01  1.4596648960E+01  1.4596648960E+01
                       9.7310993065E+00  9.7310993065E+00  4.9234317729E+00
                       9.7310993065E+00  9.7310993065E+00  1.4538766840E+01
                       1.4538766840E+01  9.7310993065E+00  9.7310993065E+00
                       9.7310993065E+00  1.4538766840E+01  9.7310993065E+00
                       9.7310993065E+00  4.9234317729E+00  9.7310993065E+00
                       4.9234317729E+00  9.7310993065E+00  9.7310993065E+00
                       9.1282377768E-20  7.1081129125E-20 -9.8565693956E-20
            xcart8     4.8631083339E+00  4.8631083339E+00  4.8631083339E+00
                       1.4589325002E+01  1.4589325002E+01  1.4589325002E+01
                       9.7262166677E+00  9.7262166677E+00  4.9226436203E+00
                       9.7262166677E+00  9.7262166677E+00  1.4529789715E+01
                       1.4529789715E+01  9.7262166677E+00  9.7262166677E+00
                       9.7262166677E+00  1.4529789715E+01  9.7262166677E+00
                       9.7262166677E+00  4.9226436203E+00  9.7262166677E+00
                       4.9226436203E+00  9.7262166677E+00  9.7262166677E+00
                       8.3823269698E-20  4.7630714743E-20 -1.4997989153E-19
            xcart9     4.8606670145E+00  4.8606670145E+00  4.8606670145E+00
                       1.4582001043E+01  1.4582001043E+01  1.4582001043E+01
                       9.7213340289E+00  9.7213340289E+00  4.9218515294E+00
                       9.7213340289E+00  9.7213340289E+00  1.4520816528E+01
                       1.4520816528E+01  9.7213340289E+00  9.7213340289E+00
                       9.7213340289E+00  1.4520816528E+01  9.7213340289E+00
                       9.7213340289E+00  4.9218515294E+00  9.7213340289E+00
                       4.9218515294E+00  9.7213340289E+00  9.7213340289E+00
                       1.0502248739E-19  5.7280247930E-21 -1.6835433246E-19
            xcart10    4.8582256951E+00  4.8582256951E+00  4.8582256951E+00
                       1.4574677085E+01  1.4574677085E+01  1.4574677085E+01
                       9.7164513901E+00  9.7164513901E+00  4.9209983666E+00
                       9.7164513901E+00  9.7164513901E+00  1.4511904414E+01
                       1.4511904414E+01  9.7164513901E+00  9.7164513901E+00
                       9.7164513901E+00  1.4511904414E+01  9.7164513901E+00
                       9.7164513901E+00  4.9209983666E+00  9.7164513901E+00
                       4.9209983666E+00  9.7164513901E+00  9.7164513901E+00
                       9.1144973289E-20  7.0974132947E-20 -9.8417326131E-20
            xcart11    4.8557843753E+00  4.8557843753E+00  4.8557843753E+00
                       1.4567353126E+01  1.4567353126E+01  1.4567353126E+01
                       9.7115687506E+00  9.7115687506E+00  4.9200921625E+00
                       9.7115687506E+00  9.7115687506E+00  1.4503045339E+01
                       1.4503045339E+01  9.7115687506E+00  9.7115687506E+00
                       9.7115687506E+00  1.4503045339E+01  9.7115687506E+00
                       9.7115687506E+00  4.9200921625E+00  9.7115687506E+00
                       4.9200921625E+00  9.7115687506E+00  9.7115687506E+00
                       1.2173587133E-19  7.6729196417E-20 -1.2029607984E-19
            xcart12    4.8533430559E+00  4.8533430559E+00  4.8533430559E+00
                       1.4560029168E+01  1.4560029168E+01  1.4560029168E+01
                       9.7066861118E+00  9.7066861118E+00  4.9192864993E+00
                       9.7066861118E+00  9.7066861118E+00  1.4494085724E+01
                       1.4494085724E+01  9.7066861118E+00  9.7066861118E+00
                       9.7066861118E+00  1.4494085724E+01  9.7066861118E+00
                       9.7066861118E+00  4.9192864993E+00  9.7066861118E+00
                       4.9192864993E+00  9.7066861118E+00  9.7066861118E+00
                       1.1131163434E-19  5.3564657002E-20 -7.5243718055E-20
            xcart13    4.8509017365E+00  4.8509017365E+00  4.8509017365E+00
                       1.4552705210E+01  1.4552705210E+01  1.4552705210E+01
                       9.7018034731E+00  9.7018034731E+00  4.9185561570E+00
                       9.7018034731E+00  9.7018034731E+00  1.4485050789E+01
                       1.4485050789E+01  9.7018034731E+00  9.7018034731E+00
                       9.7018034731E+00  1.4485050789E+01  9.7018034731E+00
                       9.7018034731E+00  4.9185561570E+00  9.7018034731E+00
                       4.9185561570E+00  9.7018034731E+00  9.7018034731E+00
                       1.0317952788E-19 -1.0385078631E-20 -6.3196137234E-20
            xcart14    4.8484604171E+00  4.8484604171E+00  4.8484604171E+00
                       1.4545381251E+01  1.4545381251E+01  1.4545381251E+01
                       9.6969208343E+00  9.6969208343E+00  4.9177079511E+00
                       9.6969208343E+00  9.6969208343E+00  1.4476133717E+01
                       1.4476133717E+01  9.6969208343E+00  9.6969208343E+00
                       9.6969208343E+00  1.4476133717E+01  9.6969208343E+00
                       9.6969208343E+00  4.9177079511E+00  9.6969208343E+00
                       4.9177079511E+00  9.6969208343E+00  9.6969208343E+00
                       9.0961767309E-20  7.0831471371E-20 -9.8219502357E-20
            xcart15    4.8460190977E+00  4.8460190977E+00  4.8460190977E+00
                       1.4538057293E+01  1.4538057293E+01  1.4538057293E+01
                       9.6920381955E+00  9.6920381955E+00  4.9168625122E+00
                       9.6920381955E+00  9.6920381955E+00  1.4467213879E+01
                       1.4467213879E+01  9.6920381955E+00  9.6920381955E+00
                       9.6920381955E+00  1.4467213879E+01  9.6920381955E+00
                       9.6920381955E+00  4.9168625122E+00  9.6920381955E+00
                       4.9168625122E+00  9.6920381955E+00  9.6920381955E+00
                       6.4439503735E-20  4.0343370473E-20 -1.0191266844E-19
            xcart16    4.8435777783E+00  4.8435777783E+00  4.8435777783E+00
                       1.4530733335E+01  1.4530733335E+01  1.4530733335E+01
                       9.6871555567E+00  9.6871555567E+00  4.9159204282E+00
                       9.6871555567E+00  9.6871555567E+00  1.4458390685E+01
                       1.4458390685E+01  9.6871555567E+00  9.6871555567E+00
                       9.6871555567E+00  1.4458390685E+01  9.6871555567E+00
                       9.6871555567E+00  4.9159204282E+00  9.6871555567E+00
                       4.9159204282E+00  9.6871555567E+00  9.6871555567E+00
                       4.5825428989E-20  4.3509258124E-20 -1.5575611343E-19
            xcart17    4.8411364589E+00  4.8411364589E+00  4.8411364589E+00
                       1.4523409377E+01  1.4523409377E+01  1.4523409377E+01
                       9.6822729179E+00  9.6822729179E+00  4.9151309230E+00
                       9.6822729179E+00  9.6822729179E+00  1.4449414913E+01
                       1.4449414913E+01  9.6822729179E+00  9.6822729179E+00
                       9.6822729179E+00  1.4449414913E+01  9.6822729179E+00
                       9.6822729179E+00  4.9151309230E+00  9.6822729179E+00
                       4.9151309230E+00  9.6822729179E+00  9.6822729179E+00
                       5.4366168636E-20  3.2083254722E-20 -1.0226263118E-19
            xcart18    4.8386951395E+00  4.8386951395E+00  4.8386951395E+00
                       1.4516085419E+01  1.4516085419E+01  1.4516085419E+01
                       9.6773902791E+00  9.6773902791E+00  4.9142978087E+00
                       9.6773902791E+00  9.6773902791E+00  1.4440482750E+01
                       1.4440482750E+01  9.6773902791E+00  9.6773902791E+00
                       9.6773902791E+00  1.4440482750E+01  9.6773902791E+00
                       9.6773902791E+00  4.9142978087E+00  9.6773902791E+00
                       4.9142978087E+00  9.6773902791E+00  9.6773902791E+00
                       1.1652436605E-20  3.7193948102E-20 -3.6468989392E-20
            xcart19    4.8362538198E+00  4.8362538198E+00  4.8362538198E+00
                       1.4508761459E+01  1.4508761459E+01  1.4508761459E+01
                       9.6725076396E+00  9.6725076396E+00  4.9134245437E+00
                       9.6725076396E+00  9.6725076396E+00  1.4431590736E+01
                       1.4431590736E+01  9.6725076396E+00  9.6725076396E+00
                       9.6725076396E+00  1.4431590736E+01  9.6725076396E+00
                       9.6725076396E+00  4.9134245437E+00  9.6725076396E+00
                       4.9134245437E+00  9.6725076396E+00  9.6725076396E+00
                       9.0732759837E-20  7.0653144402E-20 -9.7972222640E-20
            xcart20    4.8338125004E+00  4.8338125004E+00  4.8338125004E+00
                       1.4501437501E+01  1.4501437501E+01  1.4501437501E+01
                       9.6676250008E+00  9.6676250008E+00  4.9125342718E+00
                       9.6676250008E+00  9.6676250008E+00  1.4422715730E+01
                       1.4422715730E+01  9.6676250008E+00  9.6676250008E+00
                       9.6676250008E+00  1.4422715730E+01  9.6676250008E+00
                       9.6676250008E+00  4.9125342718E+00  9.6676250008E+00
                       4.9125342718E+00  9.6676250008E+00  9.6676250008E+00
                       1.2035275470E-19  5.6402313989E-20 -9.5052551235E-20
             xred1     2.5000000000E-01  2.5000000000E-01  2.5000000000E-01
                       7.5000000000E-01  7.5000000000E-01  7.5000000000E-01
                       2.5245083124E-01  2.5245083124E-01  7.4754916876E-01
                       7.4754916876E-01  7.4754916876E-01  2.5245083124E-01
                       2.5245083124E-01  7.4754916876E-01  7.4754916876E-01
                       7.4754916876E-01  2.5245083124E-01  7.4754916876E-01
                       2.5245083124E-01  7.4754916876E-01  2.5245083124E-01
                       7.4754916876E-01  2.5245083124E-01  2.5245083124E-01
                      -2.7515283419E-21 -9.0970782101E-21  1.3613299183E-20
             xred2     2.5000000000E-01  2.5000000000E-01  2.5000000000E-01
                       7.5000000000E-01  7.5000000000E-01  7.5000000000E-01
                       2.5253865295E-01  2.5253865295E-01  7.4746134705E-01
                       7.4746134705E-01  7.4746134705E-01  2.5253865295E-01
                       2.5253865295E-01  7.4746134705E-01  7.4746134705E-01
                       7.4746134705E-01  2.5253865295E-01  7.4746134705E-01
                       2.5253865295E-01  7.4746134705E-01  2.5253865295E-01
                       7.4746134705E-01  2.5253865295E-01  2.5253865295E-01
                      -1.8930389140E-21 -9.0289811601E-21  1.2245440554E-20
             xred3     2.5000000000E-01  2.5000000000E-01  2.5000000000E-01
                       7.5000000000E-01  7.5000000000E-01  7.5000000000E-01
                       2.5263190628E-01  2.5263190628E-01  7.4736809372E-01
                       7.4736809372E-01  7.4736809372E-01  2.5263190628E-01
                       2.5263190628E-01  7.4736809372E-01  7.4736809372E-01
                       7.4736809372E-01  2.5263190628E-01  7.4736809372E-01
                       2.5263190628E-01  7.4736809372E-01  2.5263190628E-01
                       7.4736809372E-01  2.5263190628E-01  2.5263190628E-01
                      -6.1024422246E-21 -4.0264949953E-21  1.3406974517E-20
             xred4     2.5000000000E-01  2.5000000000E-01  2.5000000000E-01
                       7.5000000000E-01  7.5000000000E-01  7.5000000000E-01
                       2.5271618871E-01  2.5271618871E-01  7.4728381129E-01
                       7.4728381129E-01  7.4728381129E-01  2.5271618871E-01
                       2.5271618871E-01  7.4728381129E-01  7.4728381129E-01
                       7.4728381129E-01  2.5271618871E-01  7.4728381129E-01
                       2.5271618871E-01  7.4728381129E-01  2.5271618871E-01
                       7.4728381129E-01  2.5271618871E-01  2.5271618871E-01
                      -6.3151086079E-21 -2.7375205983E-21  1.0636060386E-20
             xred5     2.5000000000E-01  2.5000000000E-01  2.5000000000E-01
                       7.5000000000E-01  7.5000000000E-01  7.5000000000E-01
                       2.5280323622E-01  2.5280323622E-01  7.4719676378E-01
                       7.4719676378E-01  7.4719676378E-01  2.5280323622E-01
                       2.5280323622E-01  7.4719676378E-01  7.4719676378E-01
                       7.4719676378E-01  2.5280323622E-01  7.4719676378E-01
                       2.5280323622E-01  7.4719676378E-01  2.5280323622E-01
                       7.4719676378E-01  2.5280323622E-01  2.5280323622E-01
                       1.3801901634E-21 -1.0041364450E-20  1.0279238747E-20
             xred6     2.5000000000E-01  2.5000000000E-01  2.5000000000E-01
                       7.5000000000E-01  7.5000000000E-01  7.5000000000E-01
                       2.5288757107E-01  2.5288757107E-01  7.4711242893E-01
                       7.4711242893E-01  7.4711242893E-01  2.5288757107E-01
                       2.5288757107E-01  7.4711242893E-01  7.4711242893E-01
                       7.4711242893E-01  2.5288757107E-01  7.4711242893E-01
                       2.5288757107E-01  7.4711242893E-01  2.5288757107E-01
                       7.4711242893E-01  2.5288757107E-01  2.5288757107E-01
                       1.5727523886E-21 -1.0241167123E-20  1.0486281870E-20
             xred7     2.5000000000E-01  2.5000000000E-01  2.5000000000E-01
                       7.5000000000E-01  7.5000000000E-01  7.5000000000E-01
                       2.5297407918E-01  2.5297407918E-01  7.4702592082E-01
                       7.4702592082E-01  7.4702592082E-01  2.5297407918E-01
                       2.5297407918E-01  7.4702592082E-01  7.4702592082E-01
                       7.4702592082E-01  2.5297407918E-01  7.4702592082E-01
                       2.5297407918E-01  7.4702592082E-01  2.5297407918E-01
                       7.4702592082E-01  2.5297407918E-01  2.5297407918E-01
                      -6.1024422246E-21 -4.0264949953E-21  1.3406974517E-20
             xred8     2.5000000000E-01  2.5000000000E-01  2.5000000000E-01
                       7.5000000000E-01  7.5000000000E-01  7.5000000000E-01
                       2.5306055728E-01  2.5306055728E-01  7.4693944272E-01
                       7.4693944272E-01  7.4693944272E-01  2.5306055728E-01
                       2.5306055728E-01  7.4693944272E-01  7.4693944272E-01
                       7.4693944272E-01  2.5306055728E-01  7.4693944272E-01
                       2.5306055728E-01  7.4693944272E-01  2.5306055728E-01
                       7.4693944272E-01  2.5306055728E-01  2.5306055728E-01
                      -9.5706507907E-21 -5.8495168502E-21  1.4467797993E-20
             xred9     2.5000000000E-01  2.5000000000E-01  2.5000000000E-01
                       7.5000000000E-01  7.5000000000E-01  7.5000000000E-01
                       2.5314691969E-01  2.5314691969E-01  7.4685308031E-01
                       7.4685308031E-01  7.4685308031E-01  2.5314691969E-01
                       2.5314691969E-01  7.4685308031E-01  7.4685308031E-01
                       7.4685308031E-01  2.5314691969E-01  7.4685308031E-01
                       2.5314691969E-01  7.4685308031E-01  2.5314691969E-01
                       7.4685308031E-01  2.5314691969E-01  2.5314691969E-01
                      -1.3766052800E-20 -3.5519749478E-21  1.4355274894E-20
             xred10    2.5000000000E-01  2.5000000000E-01  2.5000000000E-01
                       7.5000000000E-01  7.5000000000E-01  7.5000000000E-01
                       2.5323022619E-01  2.5323022619E-01  7.4676977381E-01
                       7.4676977381E-01  7.4676977381E-01  2.5323022619E-01
                       2.5323022619E-01  7.4676977381E-01  7.4676977381E-01
                       7.4676977381E-01  2.5323022619E-01  7.4676977381E-01
                       2.5323022619E-01  7.4676977381E-01  2.5323022619E-01
                       7.4676977381E-01  2.5323022619E-01  2.5323022619E-01
                      -6.1024422246E-21 -4.0264949953E-21  1.3406974517E-20
             xred11    2.5000000000E-01  2.5000000000E-01  2.5000000000E-01
                       7.5000000000E-01  7.5000000000E-01  7.5000000000E-01
                       2.5331088565E-01  2.5331088565E-01  7.4668911435E-01
                       7.4668911435E-01  7.4668911435E-01  2.5331088565E-01
                       2.5331088565E-01  7.4668911435E-01  7.4668911435E-01
                       7.4668911435E-01  2.5331088565E-01  7.4668911435E-01
                       2.5331088565E-01  7.4668911435E-01  2.5331088565E-01
                       7.4668911435E-01  2.5331088565E-01  2.5331088565E-01
                      -8.5106103347E-21 -3.8762741044E-21  1.6411413839E-20
             xred12    2.5000000000E-01  2.5000000000E-01  2.5000000000E-01
                       7.5000000000E-01  7.5000000000E-01  7.5000000000E-01
                       2.5339680518E-01  2.5339680518E-01  7.4660319482E-01
                       7.4660319482E-01  7.4660319482E-01  2.5339680518E-01
                       2.5339680518E-01  7.4660319482E-01  7.4660319482E-01
                       7.4660319482E-01  2.5339680518E-01  7.4660319482E-01
                       2.5339680518E-01  7.4660319482E-01  2.5339680518E-01
                       7.4660319482E-01  2.5339680518E-01  2.5339680518E-01
                      -6.8504685253E-21 -9.0127261350E-22  1.2368794387E-20
             xred13    2.5000000000E-01  2.5000000000E-01  2.5000000000E-01
                       7.5000000000E-01  7.5000000000E-01  7.5000000000E-01
                       2.5348669300E-01  2.5348669300E-01  7.4651330700E-01
                       7.4651330700E-01  7.4651330700E-01  2.5348669300E-01
                       2.5348669300E-01  7.4651330700E-01  7.4651330700E-01
                       7.4651330700E-01  2.5348669300E-01  7.4651330700E-01
                       2.5348669300E-01  7.4651330700E-01  2.5348669300E-01
                       7.4651330700E-01  2.5348669300E-01  2.5348669300E-01
                      -9.1096848247E-21  2.5958302193E-21  8.0392571810E-21
             xred14    2.5000000000E-01  2.5000000000E-01  2.5000000000E-01
                       7.5000000000E-01  7.5000000000E-01  7.5000000000E-01
                       2.5357059396E-01  2.5357059396E-01  7.4642940604E-01
                       7.4642940604E-01  7.4642940604E-01  2.5357059396E-01
                       2.5357059396E-01  7.4642940604E-01  7.4642940604E-01
                       7.4642940604E-01  2.5357059396E-01  7.4642940604E-01
                       2.5357059396E-01  7.4642940604E-01  2.5357059396E-01
                       7.4642940604E-01  2.5357059396E-01  2.5357059396E-01
                      -6.1024422246E-21 -4.0264949953E-21  1.3406974517E-20
             xred15    2.5000000000E-01  2.5000000000E-01  2.5000000000E-01
                       7.5000000000E-01  7.5000000000E-01  7.5000000000E-01
                       2.5365472221E-01  2.5365472221E-01  7.4634527779E-01
                       7.4634527779E-01  7.4634527779E-01  2.5365472221E-01
                       2.5365472221E-01  7.4634527779E-01  7.4634527779E-01
                       7.4634527779E-01  2.5365472221E-01  7.4634527779E-01
                       2.5365472221E-01  7.4634527779E-01  2.5365472221E-01
                       7.4634527779E-01  2.5365472221E-01  2.5365472221E-01
                      -6.5006348077E-21 -4.0144566916E-21  1.0663161787E-20
             xred16    2.5000000000E-01  2.5000000000E-01  2.5000000000E-01
                       7.5000000000E-01  7.5000000000E-01  7.5000000000E-01
                       2.5373394695E-01  2.5373394695E-01  7.4626605305E-01
                       7.4626605305E-01  7.4626605305E-01  2.5373394695E-01
                       2.5373394695E-01  7.4626605305E-01  7.4626605305E-01
                       7.4626605305E-01  2.5373394695E-01  7.4626605305E-01
                       2.5373394695E-01  7.4626605305E-01  2.5373394695E-01
                       7.4626605305E-01  2.5373394695E-01  2.5373394695E-01
                      -8.1588596040E-21 -7.9197624974E-21  1.2650297557E-20
             xred17    2.5000000000E-01  2.5000000000E-01  2.5000000000E-01
                       7.5000000000E-01  7.5000000000E-01  7.5000000000E-01
                       2.5382113088E-01  2.5382113088E-01  7.4617886912E-01
                       7.4617886912E-01  7.4617886912E-01  2.5382113088E-01
                       2.5382113088E-01  7.4617886912E-01  7.4617886912E-01
                       7.4617886912E-01  2.5382113088E-01  7.4617886912E-01
                       2.5382113088E-01  7.4617886912E-01  2.5382113088E-01
                       7.4617886912E-01  2.5382113088E-01  2.5382113088E-01
                      -6.4316274779E-21 -4.1302139458E-21  9.7452352427E-21
             xred18    2.5000000000E-01  2.5000000000E-01  2.5000000000E-01
                       7.5000000000E-01  7.5000000000E-01  7.5000000000E-01
                       2.5390614964E-01  2.5390614964E-01  7.4609385036E-01
                       7.4609385036E-01  7.4609385036E-01  2.5390614964E-01
                       2.5390614964E-01  7.4609385036E-01  7.4609385036E-01
                       7.4609385036E-01  2.5390614964E-01  7.4609385036E-01
                       2.5390614964E-01  7.4609385036E-01  2.5390614964E-01
                       7.4609385036E-01  2.5390614964E-01  2.5390614964E-01
                      -5.6458805418E-22 -3.2038855053E-21  4.4079742388E-21
             xred19    2.5000000000E-01  2.5000000000E-01  2.5000000000E-01
                       7.5000000000E-01  7.5000000000E-01  7.5000000000E-01
                       2.5398917875E-01  2.5398917875E-01  7.4601082125E-01
                       7.4601082125E-01  7.4601082125E-01  2.5398917875E-01
                       2.5398917875E-01  7.4601082125E-01  7.4601082125E-01
                       7.4601082125E-01  2.5398917875E-01  7.4601082125E-01
                       2.5398917875E-01  7.4601082125E-01  2.5398917875E-01
                       7.4601082125E-01  2.5398917875E-01  2.5398917875E-01
                      -6.1024422246E-21 -4.0264949953E-21  1.3406974517E-20
             xred20    2.5000000000E-01  2.5000000000E-01  2.5000000000E-01
                       7.5000000000E-01  7.5000000000E-01  7.5000000000E-01
                       2.5407141213E-01  2.5407141213E-01  7.4592858787E-01
                       7.4592858787E-01  7.4592858787E-01  2.5407141213E-01
                       2.5407141213E-01  7.4592858787E-01  7.4592858787E-01
                       7.4592858787E-01  2.5407141213E-01  7.4592858787E-01
                       2.5407141213E-01  7.4592858787E-01  2.5407141213E-01
                       7.4592858787E-01  2.5407141213E-01  2.5407141213E-01
                      -8.2234774276E-21 -1.6085703843E-21  1.4057621179E-20
            znucl       55.00000   35.00000   40.00000

================================================================================

 chkinp: Checking input parameters for consistency, jdtset=   1.

 chkinp: Checking input parameters for consistency, jdtset=   2.

 chkinp: Checking input parameters for consistency, jdtset=   3.

 chkinp: Checking input parameters for consistency, jdtset=   4.

 chkinp: Checking input parameters for consistency, jdtset=   5.

 chkinp: Checking input parameters for consistency, jdtset=   6.

 chkinp: Checking input parameters for consistency, jdtset=   7.

 chkinp: Checking input parameters for consistency, jdtset=   8.

 chkinp: Checking input parameters for consistency, jdtset=   9.

 chkinp: Checking input parameters for consistency, jdtset=  10.

 chkinp: Checking input parameters for consistency, jdtset=  11.

[...]
xred      :
- [  2.5000E-01,   2.5000E-01,   2.5000E-01, Cs]
- [  7.5000E-01,   7.5000E-01,   7.5000E-01, Cs]
- [  2.5391E-01,   2.5391E-01,   7.4609E-01, Br]
- [  7.4609E-01,   7.4609E-01,   2.5391E-01, Br]
- [  2.5391E-01,   7.4609E-01,   7.4609E-01, Br]
- [  7.4609E-01,   2.5391E-01,   7.4609E-01, Br]
- [  2.5391E-01,   7.4609E-01,   2.5391E-01, Br]
- [  7.4609E-01,   2.5391E-01,   2.5391E-01, Br]
- [ -5.6459E-22,  -3.2039E-21,   4.4080E-21, Zr]
cartesian_forces: # hartree/bohr
- [ -5.21701579E-30,  -1.85576189E-23,   2.14895671E-23, ]
- [ -1.73900526E-30,  -1.85576154E-23,   2.14895636E-23, ]
- [  9.95026893E-23,  -1.14413352E-22,   9.26427589E-07, ]
- [ -1.52442249E-22,   1.30237670E-22,  -9.26427589E-07, ]
- [ -9.26427589E-07,   7.82991275E-24,  -4.89796459E-24, ]
- [  2.63875334E-23,  -9.26427589E-07,  -4.89796459E-24, ]
- [ -2.63875334E-23,   9.26427589E-07,   4.78771022E-23, ]
- [  9.26427589E-07,   4.25818468E-23,  -3.96498987E-23, ]
- [ -0.00000000E+00,  -1.85576207E-23,   2.14895688E-23, ]
force_length_stats: {min:   2.83934224E-23, max:   9.26427589E-07, mean:   6.17618393E-07, }
...

 Integrated electronic density in atomic spheres:
 ------------------------------------------------
 Atom  Sphere_radius  Integrated_density
    1        2.20660          5.37567377
    2        2.20660          5.37567377
    3        2.20000          4.96458541
    4        2.20000          4.96458541
    5        2.20000          4.96458541
    6        2.20000          4.96458541
    7        2.20000          4.96458541
    8        2.20000          4.96458541
    9        2.21000          8.86078034

 PAW TEST:
 ==== Compensation charge inside spheres ============
 The following values must be close to each other ...
 Compensation charge over spherical meshes =     -4.899039910244326
 Compensation charge over fine fft grid    =     -4.899033922952429

 ==== Results concerning PAW augmentation regions ====

 Total pseudopotential strength Dij (hartree):
 Atom #  1
   0.40582  -0.13458   0.00000   0.00000   0.00000   0.00000   0.00000   0.00000   0.00000   0.00000   0.00000   0.00000 ...
  -0.13458   0.04030   0.00000   0.00000   0.00000   0.00000   0.00000   0.00000   0.00000   0.00000   0.00000   0.00000 ...
   0.00000   0.00000  -0.08932   0.00000   0.00000  -0.16914   0.00000   0.00000   0.00000   0.00000   0.00000  -0.00000 ...
   0.00000   0.00000   0.00000  -0.08932   0.00000   0.00000  -0.16914   0.00000  -0.00000   0.00000   0.00000   0.00000 ...
   0.00000   0.00000   0.00000   0.00000  -0.08932   0.00000   0.00000  -0.16914   0.00000  -0.00000   0.00000   0.00000 ...
   0.00000   0.00000  -0.16914   0.00000   0.00000   0.39365   0.00000   0.00000   0.00000   0.00000   0.00000   0.00000 ...
   0.00000   0.00000   0.00000  -0.16914   0.00000   0.00000   0.39365   0.00000   0.00000   0.00000   0.00000   0.00000 ...
   0.00000   0.00000   0.00000   0.00000  -0.16914   0.00000   0.00000   0.39365   0.00000   0.00000   0.00000   0.00000 ...
   0.00000   0.00000   0.00000  -0.00000   0.00000   0.00000   0.00000   0.00000   0.00582   0.00000   0.00000   0.00000 ...
   0.00000   0.00000   0.00000   0.00000  -0.00000   0.00000   0.00000   0.00000   0.00000   0.00582   0.00000   0.00000 ...
   0.00000   0.00000   0.00000   0.00000   0.00000   0.00000   0.00000   0.00000   0.00000   0.00000   0.00582   0.00000 ...
   0.00000   0.00000  -0.00000   0.00000   0.00000   0.00000   0.00000   0.00000   0.00000   0.00000   0.00000   0.00582 ...
   ...  only 12  components have been written...
 Atom #  9
   3.03690  -0.88376   0.00000   0.00000   0.00000   0.00000   0.00000   0.00000   0.00000   0.00000   0.00000   0.00000 ...
  -0.88376   0.26389   0.00000   0.00000   0.00000   0.00000   0.00000   0.00000   0.00000   0.00000   0.00000   0.00000 ...
   0.00000   0.00000   0.28230   0.00000   0.00000  -0.05789   0.00000   0.00000   0.00000   0.00000   0.00000   0.00000 ...
   0.00000   0.00000   0.00000   0.28230   0.00000   0.00000  -0.05789   0.00000   0.00000   0.00000   0.00000   0.00000 ...
   0.00000   0.00000   0.00000   0.00000   0.28230   0.00000   0.00000  -0.05789   0.00000   0.00000   0.00000   0.00000 ...
   0.00000   0.00000  -0.05789   0.00000   0.00000   0.01571   0.00000   0.00000   0.00000   0.00000   0.00000   0.00000 ...
   0.00000   0.00000   0.00000  -0.05789   0.00000   0.00000   0.01571   0.00000   0.00000   0.00000   0.00000   0.00000 ...
   0.00000   0.00000   0.00000   0.00000  -0.05789   0.00000   0.00000   0.01571   0.00000   0.00000   0.00000   0.00000 ...
   0.00000   0.00000   0.00000   0.00000   0.00000   0.00000   0.00000   0.00000   0.00073   0.00000   0.00000   0.00000 ...
   0.00000   0.00000   0.00000   0.00000   0.00000   0.00000   0.00000   0.00000   0.00000   0.00073   0.00000   0.00000 ...
   0.00000   0.00000   0.00000   0.00000   0.00000   0.00000   0.00000   0.00000   0.00000   0.00000   0.00081   0.00000 ...
   0.00000   0.00000   0.00000   0.00000   0.00000   0.00000   0.00000   0.00000   0.00000   0.00000   0.00000   0.00073 ...
   ...  only 12  components have been written...


 Augmentation waves occupancies Rhoij:
 Atom #  1
   2.00031  -0.00873   0.00000   0.00000   0.00000   0.00000   0.00000   0.00000   0.00000   0.00000   0.00000   0.00000 ...
  -0.00873   0.22516   0.00000   0.00000   0.00000   0.00000   0.00000   0.00000   0.00000   0.00000   0.00000   0.00000 ...
   0.00000   0.00000   2.01035   0.00000   0.00000  -0.00474   0.00000   0.00000   0.00000   0.00000   0.00000  -0.00242 ...
   0.00000   0.00000   0.00000   2.01035   0.00000   0.00000  -0.00474   0.00000  -0.00242   0.00000   0.00000   0.00000 ...
   0.00000   0.00000   0.00000   0.00000   2.01035   0.00000   0.00000  -0.00474   0.00000  -0.00242   0.00000   0.00000 ...
   0.00000   0.00000  -0.00474   0.00000   0.00000   0.00018   0.00000   0.00000   0.00000   0.00000   0.00000  -0.00001 ...
   0.00000   0.00000   0.00000  -0.00474   0.00000   0.00000   0.00018   0.00000  -0.00001   0.00000   0.00000   0.00000 ...
   0.00000   0.00000   0.00000   0.00000  -0.00474   0.00000   0.00000   0.00018   0.00000  -0.00001   0.00000   0.00000 ...
   0.00000   0.00000   0.00000  -0.00242   0.00000   0.00000  -0.00001   0.00000   0.08743   0.00000   0.00000   0.00000 ...
   0.00000   0.00000   0.00000   0.00000  -0.00242   0.00000   0.00000  -0.00001   0.00000   0.08743   0.00000   0.00000 ...
   0.00000   0.00000   0.00000   0.00000   0.00000   0.00000   0.00000   0.00000   0.00000   0.00000   0.05696   0.00000 ...
   0.00000   0.00000  -0.00242   0.00000   0.00000  -0.00001   0.00000   0.00000   0.00000   0.00000   0.00000   0.08743 ...
   ...  only 12  components have been written...
 Atom #  9
   1.99403  -0.06306   0.00000   0.00000   0.00000   0.00000   0.00000   0.00000   0.00000   0.00000   0.00000   0.00000 ...
  -0.06306   1.09465   0.00000   0.00000   0.00000   0.00000   0.00000   0.00000   0.00000   0.00000   0.00000   0.00000 ...
   0.00000   0.00000   1.96962   0.00000   0.00000  -0.18568   0.00000   0.00000   0.00000   0.00000   0.00000   0.00000 ...
   0.00000   0.00000   0.00000   1.96962   0.00000   0.00000  -0.18568   0.00000   0.00000   0.00000   0.00000   0.00000 ...
   0.00000   0.00000   0.00000   0.00000   1.96962   0.00000   0.00000  -0.18568   0.00000   0.00000   0.00000   0.00000 ...
   0.00000   0.00000  -0.18568   0.00000   0.00000   1.77707   0.00000   0.00000   0.00000   0.00000   0.00000   0.00000 ...
   0.00000   0.00000   0.00000  -0.18568   0.00000   0.00000   1.77707   0.00000   0.00000   0.00000   0.00000   0.00000 ...
   0.00000   0.00000   0.00000   0.00000  -0.18568   0.00000   0.00000   1.77707   0.00000   0.00000   0.00000   0.00000 ...
   0.00000   0.00000   0.00000   0.00000   0.00000   0.00000   0.00000   0.00000   0.54106   0.00000   0.00000   0.00000 ...
   0.00000   0.00000   0.00000   0.00000   0.00000   0.00000   0.00000   0.00000   0.00000   0.54106   0.00000   0.00000 ...
   0.00000   0.00000   0.00000   0.00000   0.00000   0.00000   0.00000   0.00000   0.00000   0.00000   1.55038   0.00000 ...
   0.00000   0.00000   0.00000   0.00000   0.00000   0.00000   0.00000   0.00000   0.00000   0.00000   0.00000   0.54106 ...
   ...  only 12  components have been written...


================================================================================

 ----iterations are completed or convergence reached----

 Mean square residual over all n,k,spin=   61.525E-08; max=  50.042E-05
 reduced coordinates (array xred) for    9 atoms
       0.250000000000      0.250000000000      0.250000000000
       0.750000000000      0.750000000000      0.750000000000
       0.253906149640      0.253906149640      0.746093850360
       0.746093850360      0.746093850360      0.253906149640
       0.253906149640      0.746093850360      0.746093850360
       0.746093850360      0.253906149640      0.746093850360
       0.253906149640      0.746093850360      0.253906149640
       0.746093850360      0.253906149640      0.253906149640
      -0.000000000000     -0.000000000000      0.000000000000
 rms dE/dt=  5.9769E-06; max dE/dt=  8.9654E-06; dE/dt below (all hartree)
    1       0.000000000000      0.000000000000      0.000000000000
    2       0.000000000000      0.000000000000     -0.000000000000
    3      -0.000008965401     -0.000008965401     -0.000000000000
    4       0.000008965401      0.000008965401      0.000000000000
    5      -0.000000000000      0.000008965401      0.000008965401
    6       0.000008965401      0.000000000000      0.000008965401
    7      -0.000008965401      0.000000000000     -0.000008965401
    8       0.000000000000     -0.000008965401     -0.000008965401
    9       0.000000000000      0.000000000000      0.000000000000

 cartesian coordinates (angstrom) at end:
    1      2.56052718716246     2.56052718716246     2.56052718716246
    2      7.68158156148738     7.68158156148738     7.68158156148738
    3      5.12105437432492     5.12105437432492     2.60053439656384
    4      5.12105437432492     5.12105437432492     7.64157435208600
    5      7.64157435208600     5.12105437432492     5.12105437432492
    6      5.12105437432492     7.64157435208600     5.12105437432492
    7      5.12105437432492     2.60053439656384     5.12105437432492
    8      2.60053439656384     5.12105437432492     5.12105437432492
    9      0.00000000000000     0.00000000000000    -0.00000000000000

 cartesian forces (hartree/bohr) at end:
    1     -0.00000000000000    -0.00000000000000     0.00000000000000
    2     -0.00000000000000    -0.00000000000000     0.00000000000000
    3      0.00000000000000    -0.00000000000000     0.00000092642759
    4     -0.00000000000000     0.00000000000000    -0.00000092642759
    5     -0.00000092642759     0.00000000000000    -0.00000000000000
    6      0.00000000000000    -0.00000092642759    -0.00000000000000
    7     -0.00000000000000     0.00000092642759     0.00000000000000
    8      0.00000092642759     0.00000000000000    -0.00000000000000
    9     -0.00000000000000    -0.00000000000000     0.00000000000000
 frms,max,avg= 4.3672215E-07 9.2642759E-07   0.000E+00  0.000E+00  0.000E+00 h/b

 cartesian forces (eV/Angstrom) at end:
    1     -0.00000000000000    -0.00000000000000     0.00000000000000
    2     -0.00000000000000    -0.00000000000000     0.00000000000000
    3      0.00000000000000    -0.00000000000000     0.00004763881804
    4     -0.00000000000000     0.00000000000000    -0.00004763881804
    5     -0.00004763881804     0.00000000000000    -0.00000000000000
    6      0.00000000000000    -0.00004763881804    -0.00000000000000
    7     -0.00000000000000     0.00004763881804     0.00000000000000
    8      0.00004763881804     0.00000000000000    -0.00000000000000
    9     -0.00000000000000    -0.00000000000000     0.00000000000000
 frms,max,avg= 2.2457154E-05 4.7638818E-05   0.000E+00  0.000E+00  0.000E+00 e/A
 length scales= 13.685896581000 13.685896581000 13.685896581000 bohr
              =  7.242264549785  7.242264549785  7.242264549785 angstroms
 prteigrs : about to open file Cs2TiI6o_DS18_EIG
 Fermi (or HOMO) energy (hartree) =   0.01098   Average Vxc (hartree)=  -0.33757
 Eigenvalues (hartree) for nkpt=  72  k points:
 kpt#   1, nband= 42, wtk=  0.00058, kpt=  0.0000  0.0000  0.0000 (reduced coord)
  -1.77938   -0.97208   -0.97208   -0.97208   -0.70351   -0.70225   -0.50117   -0.47737
  -0.47737   -0.47737   -0.47515   -0.47515   -0.23442   -0.23442   -0.23442   -0.22553
  -0.22553   -0.22553   -0.13732   -0.07655   -0.07655   -0.07655   -0.07244   -0.07244
  -0.07244   -0.06646   -0.06646   -0.02540   -0.02540   -0.02540    0.00689    0.00689
   0.00689    0.01098    0.01098    0.01098    0.10488    0.10488    0.10488    0.20374
   0.20374    0.21236
 prteigrs : prtvol=0 or 1, do not print more k-points.


--- !EnergyTerms
iteration_state     : {dtset: 18, }
comment             : Components of total free energy in Hartree
kinetic             :  5.19895469235258E+01
hartree             :  3.05668358662692E+01
xc                  : -6.78536256938455E+01
Ewald energy        : -1.36993920728695E+02
psp_core            :  1.19295087833136E+01
local_psp           : -1.01758004919048E+02
spherical_terms     :  4.15767824039930E+01
total_energy        : -1.70542877364487E+02
total_energy_eV     : -4.64070770055397E+03
...


--- !EnergyTermsDC
iteration_state     : {dtset: 18, }
comment             : '"Double-counting" decomposition of free energy'
band_energy         : -2.24430423895626E+01
Ewald energy        : -1.36993920728695E+02
psp_core            :  1.19295087833136E+01
xc_dc               : -5.35490761685973E+01
spherical_terms     :  3.05136561653134E+01
total_energy_dc     : -1.70542874338228E+02
total_energy_dc_eV  : -4.64070761820527E+03
...


 Cartesian components of stress tensor (hartree/bohr^3)
  sigma(1 1)= -1.84503218E-04  sigma(3 2)=  0.00000000E+00
  sigma(2 2)= -1.84503218E-04  sigma(3 1)=  0.00000000E+00
  sigma(3 3)= -1.84503218E-04  sigma(2 1)=  0.00000000E+00

-Cartesian components of stress tensor (GPa)         [Pressure=  5.4283E+00 GPa]
- sigma(1 1)= -5.42827116E+00  sigma(3 2)=  0.00000000E+00
- sigma(2 2)= -5.42827116E+00  sigma(3 1)=  0.00000000E+00
- sigma(3 3)= -5.42827116E+00  sigma(2 1)=  0.00000000E+00

================================================================================
== DATASET 19 ==================================================================
-   mpi_nproc: 6, omp_nthreads: -1 (-1 if OMP is not activated)


--- !DatasetInfo
iteration_state: {dtset: 19, }
dimensions: {natom: 9, nkpt: 72, mband: 42, nsppol: 1, nspinor: 1, nspden: 1, mpw: 5573, }
cutoff_energies: {ecut:  16.0, pawecutdg:  40.0, }
electrons: {nelect:   7.20000000E+01, charge:   0.00000000E+00, occopt:   1.00000000E+00, tsmear:   1.00000000E-02, }
meta: {optdriver: 0, ionmov: 0, optcell: 0, iscf: 17, paral_kgb: 0, }
...

 Real(R)+Recip(G) space primitive vectors, cartesian coordinates (Bohr,Bohr^-1):
 R(1)=  0.0000000  9.6725076  9.6725076  G(1)= -0.0516929  0.0516929  0.0516929
 R(2)=  9.6725076  0.0000000  9.6725076  G(2)=  0.0516929 -0.0516929  0.0516929
 R(3)=  9.6725076  9.6725076  0.0000000  G(3)=  0.0516929  0.0516929 -0.0516929
 Unit cell volume ucvol=  1.8098694E+03 bohr^3
 Angles (23,13,12)=  6.00000000E+01  6.00000000E+01  6.00000000E+01 degrees

 Coarse grid specifications (used for wave-functions):

 getcut: wavevector=  0.0000  0.0000  0.0000  ngfft=  50  50  50
         ecut(hartree)=     16.000   => boxcut(ratio)=   2.03079

 Fine grid specifications (used for densities):

 getcut: wavevector=  0.0000  0.0000  0.0000  ngfft=  80  80  80
         ecut(hartree)=     40.000   => boxcut(ratio)=   2.05419

--- Pseudopotential description ------------------------------------------------
- pspini: atom type   1  psp file is ../../../Psps_for_tests/ATOMICDATA/Cs.GGA_PBE-JTH.xml
- pspatm: opening atomic psp file    ../../../Psps_for_tests/ATOMICDATA/Cs.GGA_PBE-JTH.xml
- pspatm : Reading pseudopotential header in XML form from ../../../Psps_for_tests/ATOMICDATA/Cs.GGA_PBE-JTH.xml
 Pseudopotential format is: paw10
 basis_size (lnmax)=  6 (lmn_size= 18), orbitals=   0   0   1   1   2   2
 Spheres core radius: rc_sph= 2.20660278
 1 radial meshes are used:
  - mesh 1: r(i)=AA*[exp(BB*(i-1))-1], size=1500 , AA= 0.15922E-03 BB= 0.87573E-02
 Shapefunction is SIN type: shapef(r)=[sin(pi*r/rshp)/(pi*r/rshp)]**2
 Radius for shape functions =  2.00394208
 mmax= 1500
 Radial grid used for partial waves is grid 1
 Radial grid used for projectors is grid 1
 Radial grid used for (t)core density is grid 1
 Radial grid used for Vloc is grid 1
 Radial grid used for pseudo valence density is grid 1
 Mesh size for Vloc has been set to 1341 to avoid numerical noise.
 Compensation charge density is not taken into account in XC energy/potential
 pspatm: atomic psp has been read  and splines computed

- pspini: atom type   2  psp file is ../../../Psps_for_tests/ATOMICDATA/Br.GGA_PBE-JTH.xml
- pspatm: opening atomic psp file    ../../../Psps_for_tests/ATOMICDATA/Br.GGA_PBE-JTH.xml
- pspatm : Reading pseudopotential header in XML form from ../../../Psps_for_tests/ATOMICDATA/Br.GGA_PBE-JTH.xml
 Pseudopotential format is: paw10
 basis_size (lnmax)=  4 (lmn_size=  8), orbitals=   0   0   1   1
 Spheres core radius: rc_sph= 2.20000000
 1 radial meshes are used:
  - mesh 1: r(i)=AA*[exp(BB*(i-1))-1], size= 927 , AA= 0.40483E-03 BB= 0.14169E-01
 Shapefunction is BESSEL type: shapef(r,l)=aa(1,l)*jl(q(1,l)*r)+aa(2,l)*jl(q(2,l)*r)
 Radius for shape functions =  2.02066386
 mmax=  927
 Radial grid used for partial waves is grid 1
 Radial grid used for projectors is grid 1
 Radial grid used for (t)core density is grid 1
 Radial grid used for Vloc is grid 1
 Radial grid used for pseudo valence density is grid 1
 Mesh size for Vloc has been set to  763 to avoid numerical noise.
 Compensation charge density is not taken into account in XC energy/potential
 pspatm: atomic psp has been read  and splines computed

- pspini: atom type   3  psp file is ../../../Psps_for_tests/ATOMICDATA/Zr.GGA_PBE-JTH.xml
- pspatm: opening atomic psp file    ../../../Psps_for_tests/ATOMICDATA/Zr.GGA_PBE-JTH.xml
- pspatm : Reading pseudopotential header in XML form from ../../../Psps_for_tests/ATOMICDATA/Zr.GGA_PBE-JTH.xml
 Pseudopotential format is: paw10
 basis_size (lnmax)=  6 (lmn_size= 18), orbitals=   0   0   1   1   2   2
 Spheres core radius: rc_sph= 2.21000000
 1 radial meshes are used:
  - mesh 1: r(i)=AA*[exp(BB*(i-1))-1], size= 941 , AA= 0.35256E-03 BB= 0.14102E-01
 Shapefunction is BESSEL type: shapef(r,l)=aa(1,l)*jl(q(1,l)*r)+aa(2,l)*jl(q(2,l)*r)
 Radius for shape functions =  2.21000000
 mmax=  941
 Radial grid used for partial waves is grid 1
 Radial grid used for projectors is grid 1
 Radial grid used for (t)core density is grid 1
 Radial grid used for Vloc is grid 1
 Radial grid used for pseudo valence density is grid 1
 Mesh size for Vloc has been set to  777 to avoid numerical noise.
 Compensation charge density is not taken into account in XC energy/potential
 pspatm: atomic psp has been read  and splines computed

--------------------------------------------------------------------------------

_setup2: Arith. and geom. avg. npw (full set) are    5531.466    5531.458

================================================================================

--- !BeginCycle
iteration_state: {dtset: 19, }
solver: {iscf: 17, nstep: 2500, nline: 4, wfoptalg: 10, }
tolerances: {toldfe: 1.00E-08, }
...

     iter   Etot(hartree)      deltaE(h)  residm     nres2
 ETOT  1  -170.35493223540    -1.704E+02 2.795E-01 1.629E+01
 ETOT  2  -170.54449852854    -1.896E-01 2.403E-02 3.773E+00
 ETOT  3  -170.54191516081     2.583E-03 3.313E-03 8.147E-01
 ETOT  4  -170.54245476501    -5.396E-04 3.169E-03 2.978E-02
 ETOT  5  -170.54231686756     1.379E-04 1.541E-03 3.882E-03
 ETOT  6  -170.54234698055    -3.011E-05 1.329E-03 1.658E-04
