
.Version 9.2.2 of ABINIT 
.(MPI version, prepared for a x86_64_linux_gnu9.3 computer) 

.Copyright (C) 1998-2020 ABINIT group . 
 ABINIT comes with ABSOLUTELY NO WARRANTY.
 It is free software, and you are welcome to redistribute it
 under certain conditions (GNU General Public License,
 see ~abinit/COPYING or http://www.gnu.org/copyleft/gpl.txt).

 ABINIT is a project of the Universite Catholique de Louvain,
 Corning Inc. and other collaborators, see ~abinit/doc/developers/contributors.txt .
 Please read https://docs.abinit.org/theory/acknowledgments for suggested
 acknowledgments of the ABINIT effort.
 For more information, see https://www.abinit.org .

.Starting date : Sun 11 Dec 2022.
- ( at 07h59 )
  
- The starting date is more than 2 years after the initial release
- of this version of ABINIT, namely Nov 2020.
- Note that the use beyond 3 years after the release will not be supported.
- Action: please, switch to a more recent version of ABINIT.

- input  file    -> Cs2TiI6.in
- output file    -> Cs2TiI6.out
- root for input  files -> Cs2TiI6i
- root for output files -> Cs2TiI6o

- inpspheads : Reading pseudopotential header in XML form from 
-   ../../../Psps_for_tests/ATOMICDATA/Cs.GGA_PBE-JTH.xml
- inpspheads : Reading pseudopotential header in XML form from 
-   ../../../Psps_for_tests/ATOMICDATA/I.GGA_PBE-JTH.xml
- inpspheads : Reading pseudopotential header in XML form from 
-   ../../../Psps_for_tests/ATOMICDATA/Zr.GGA_PBE-JTH.xml
- inpspheads : Reading pseudopotential header in XML form from 
-   ../../../Psps_for_tests/ATOMICDATA/Cl.GGA_PBE-JTH.xml

 DATASET    1 : space group I4 m m (#107); Bravais tI (body-center tetrag.)
================================================================================
 Values of the parameters that define the memory need for DATASET  1.
     intxc =       0    ionmov =       0      iscf =      17    lmnmax =      18
     lnmax =       6     mgfft =      54  mpssoang =       3    mqgrid =    3409
     natom =       9  nloc_mem =       2    nspden =       1   nspinor =       1
    nsppol =       1      nsym =       8    n1xccc =       1    ntypat =       4
    occopt =       1   xclevel =       2
-    mband =          42        mffmem =           1         mkmem =          41
       mpw =        6854          nfft =      157464          nkpt =         163
Pmy_natom=         3
 PAW method is used; the additional fine FFT grid is defined by:
   mgfftf=        90    nfftf =    729000
================================================================================
P This job should need less than                     406.209 Mbytes of memory.
  Rough estimation (10% accuracy) of disk space for files :
_ WF disk file :    715.982 Mbytes ; DEN or POT disk file :      5.564 Mbytes.
================================================================================


 DATASET    2 : space group I4 m m (#107); Bravais tI (body-center tetrag.)
================================================================================
 Values of the parameters that define the memory need for DATASET  2.
     intxc =       0    ionmov =       0      iscf =      17    lmnmax =      18
     lnmax =       6     mgfft =      54  mpssoang =       3    mqgrid =    3374
     natom =       9  nloc_mem =       2    nspden =       1   nspinor =       1
    nsppol =       1      nsym =       8    n1xccc =       1    ntypat =       4
    occopt =       1   xclevel =       2
-    mband =          42        mffmem =           1         mkmem =          41
       mpw =        6638          nfft =      157464          nkpt =         163
Pmy_natom=         3
 PAW method is used; the additional fine FFT grid is defined by:
   mgfftf=        90    nfftf =    729000
================================================================================
P This job should need less than                     399.979 Mbytes of memory.
  Rough estimation (10% accuracy) of disk space for files :
_ WF disk file :    693.419 Mbytes ; DEN or POT disk file :      5.564 Mbytes.
================================================================================


 DATASET    3 : space group I4 m m (#107); Bravais tI (body-center tetrag.)
================================================================================
 Values of the parameters that define the memory need for DATASET  3.
     intxc =       0    ionmov =       0      iscf =      17    lmnmax =      18
     lnmax =       6     mgfft =      54  mpssoang =       3    mqgrid =    3340
     natom =       9  nloc_mem =       2    nspden =       1   nspinor =       1
    nsppol =       1      nsym =       8    n1xccc =       1    ntypat =       4
    occopt =       1   xclevel =       2
-    mband =          42        mffmem =           1         mkmem =          41
       mpw =        6446          nfft =      157464          nkpt =         163
Pmy_natom=         3
 PAW method is used; the additional fine FFT grid is defined by:
   mgfftf=        90    nfftf =    729000
================================================================================
P This job should need less than                     394.465 Mbytes of memory.
  Rough estimation (10% accuracy) of disk space for files :
_ WF disk file :    673.362 Mbytes ; DEN or POT disk file :      5.564 Mbytes.
================================================================================


 DATASET    4 : space group I4 m m (#107); Bravais tI (body-center tetrag.)
================================================================================
 Values of the parameters that define the memory need for DATASET  4.
     intxc =       0    ionmov =       0      iscf =      17    lmnmax =      18
     lnmax =       6     mgfft =      54  mpssoang =       3    mqgrid =    3305
     natom =       9  nloc_mem =       2    nspden =       1   nspinor =       1
    nsppol =       1      nsym =       8    n1xccc =       1    ntypat =       4
    occopt =       1   xclevel =       2
-    mband =          42        mffmem =           1         mkmem =          41
       mpw =        6248          nfft =      157464          nkpt =         163
Pmy_natom=         3
 PAW method is used; the additional fine FFT grid is defined by:
   mgfftf=        90    nfftf =    729000
================================================================================
P This job should need less than                     388.781 Mbytes of memory.
  Rough estimation (10% accuracy) of disk space for files :
_ WF disk file :    652.679 Mbytes ; DEN or POT disk file :      5.564 Mbytes.
================================================================================


 DATASET    5 : space group I4 m m (#107); Bravais tI (body-center tetrag.)
================================================================================
 Values of the parameters that define the memory need for DATASET  5.
     intxc =       0    ionmov =       0      iscf =      17    lmnmax =      18
     lnmax =       6     mgfft =      54  mpssoang =       3    mqgrid =    3270
     natom =       9  nloc_mem =       2    nspden =       1   nspinor =       1
    nsppol =       1      nsym =       8    n1xccc =       1    ntypat =       4
    occopt =       1   xclevel =       2
-    mband =          42        mffmem =           1         mkmem =          41
       mpw =        6060          nfft =      157464          nkpt =         163
Pmy_natom=         3
 PAW method is used; the additional fine FFT grid is defined by:
   mgfftf=        90    nfftf =    729000
================================================================================
P This job should need less than                     383.399 Mbytes of memory.
  Rough estimation (10% accuracy) of disk space for files :
_ WF disk file :    633.040 Mbytes ; DEN or POT disk file :      5.564 Mbytes.
================================================================================


 DATASET    6 : space group I4 m m (#107); Bravais tI (body-center tetrag.)
================================================================================
 Values of the parameters that define the memory need for DATASET  6.
     intxc =       0    ionmov =       0      iscf =      17    lmnmax =      18
     lnmax =       6     mgfft =      54  mpssoang =       3    mqgrid =    3236
     natom =       9  nloc_mem =       2    nspden =       1   nspinor =       1
    nsppol =       1      nsym =       8    n1xccc =       1    ntypat =       4
    occopt =       1   xclevel =       2
-    mband =          42        mffmem =           1         mkmem =          41
       mpw =        5866          nfft =      157464          nkpt =         163
Pmy_natom=         3
 PAW method is used; the additional fine FFT grid is defined by:
   mgfftf=        90    nfftf =    729000
================================================================================
P This job should need less than                     377.849 Mbytes of memory.
  Rough estimation (10% accuracy) of disk space for files :
_ WF disk file :    612.774 Mbytes ; DEN or POT disk file :      5.564 Mbytes.
================================================================================


 DATASET    7 : space group I4 m m (#107); Bravais tI (body-center tetrag.)
================================================================================
 Values of the parameters that define the memory need for DATASET  7.
     intxc =       0    ionmov =       0      iscf =      17    lmnmax =      18
     lnmax =       6     mgfft =      54  mpssoang =       3    mqgrid =    3201
     natom =       9  nloc_mem =       2    nspden =       1   nspinor =       1
    nsppol =       1      nsym =       8    n1xccc =       1    ntypat =       4
    occopt =       1   xclevel =       2
-    mband =          42        mffmem =           1         mkmem =          41
       mpw =        5681          nfft =      157464          nkpt =         163
Pmy_natom=         3
 PAW method is used; the additional fine FFT grid is defined by:
   mgfftf=        80    nfftf =    512000
================================================================================
P This job should need less than                     320.143 Mbytes of memory.
  Rough estimation (10% accuracy) of disk space for files :
_ WF disk file :    593.449 Mbytes ; DEN or POT disk file :      3.908 Mbytes.
================================================================================


 DATASET    8 : space group I4 m m (#107); Bravais tI (body-center tetrag.)
================================================================================
 Values of the parameters that define the memory need for DATASET  8.
     intxc =       0    ionmov =       0      iscf =      17    lmnmax =      18
     lnmax =       6     mgfft =      50  mpssoang =       3    mqgrid =    3167
     natom =       9  nloc_mem =       2    nspden =       1   nspinor =       1
    nsppol =       1      nsym =       8    n1xccc =       1    ntypat =       4
    occopt =       1   xclevel =       2
-    mband =          42        mffmem =           1         mkmem =          41
       mpw =        5513          nfft =      125000          nkpt =         163
Pmy_natom=         3
 PAW method is used; the additional fine FFT grid is defined by:
   mgfftf=        80    nfftf =    512000
================================================================================
P This job should need less than                     310.483 Mbytes of memory.
  Rough estimation (10% accuracy) of disk space for files :
_ WF disk file :    575.899 Mbytes ; DEN or POT disk file :      3.908 Mbytes.
================================================================================


 DATASET    9 : space group I4 m m (#107); Bravais tI (body-center tetrag.)
================================================================================
 Values of the parameters that define the memory need for DATASET  9.
     intxc =       0    ionmov =       0      iscf =      17    lmnmax =      18
     lnmax =       6     mgfft =      50  mpssoang =       3    mqgrid =    3133
     natom =       9  nloc_mem =       2    nspden =       1   nspinor =       1
    nsppol =       1      nsym =       8    n1xccc =       1    ntypat =       4
    occopt =       1   xclevel =       2
-    mband =          42        mffmem =           1         mkmem =          41
       mpw =        5324          nfft =      125000          nkpt =         163
Pmy_natom=         3
 PAW method is used; the additional fine FFT grid is defined by:
   mgfftf=        80    nfftf =    512000
================================================================================
P This job should need less than                     305.042 Mbytes of memory.
  Rough estimation (10% accuracy) of disk space for files :
_ WF disk file :    556.156 Mbytes ; DEN or POT disk file :      3.908 Mbytes.
================================================================================


 DATASET   10 : space group I4 m m (#107); Bravais tI (body-center tetrag.)
================================================================================
 Values of the parameters that define the memory need for DATASET 10.
     intxc =       0    ionmov =       0      iscf =      17    lmnmax =      18
     lnmax =       6     mgfft =      50  mpssoang =       3    mqgrid =    3098
     natom =       9  nloc_mem =       2    nspden =       1   nspinor =       1
    nsppol =       1      nsym =       8    n1xccc =       1    ntypat =       4
    occopt =       1   xclevel =       2
-    mband =          42        mffmem =           1         mkmem =          41
       mpw =        5156          nfft =      125000          nkpt =         163
Pmy_natom=         3
 PAW method is used; the additional fine FFT grid is defined by:
   mgfftf=        80    nfftf =    512000
================================================================================
P This job should need less than                     300.228 Mbytes of memory.
  Rough estimation (10% accuracy) of disk space for files :
_ WF disk file :    538.606 Mbytes ; DEN or POT disk file :      3.908 Mbytes.
================================================================================

--------------------------------------------------------------------------------
------------- Echo of variables that govern the present computation ------------
--------------------------------------------------------------------------------
-
- outvars: echo of selected default values                                      
-   iomode0 =  0 , fftalg0 =112 , wfoptalg0 = 10
-
- outvars: echo of global parameters not present in the input file              
-  max_nthreads =    0
-
 -outvars: echo values of preprocessed input variables --------
            acell1     1.4603849289E+01  1.4603849289E+01  1.4788943682E+01 Bohr
            acell2     1.4448259736E+01  1.4448259736E+01  1.4657393900E+01 Bohr
            acell3     1.4291620597E+01  1.4291620597E+01  1.4528467705E+01 Bohr
            acell4     1.4139417314E+01  1.4139417314E+01  1.4389736113E+01 Bohr
            acell5     1.3986948009E+01  1.3986948009E+01  1.4251717287E+01 Bohr
            acell6     1.3838330974E+01  1.3838330974E+01  1.4104893657E+01 Bohr
            acell7     1.3688600564E+01  1.3688600564E+01  1.3960657816E+01 Bohr
            acell8     1.3542888705E+01  1.3542888705E+01  1.3807122023E+01 Bohr
            acell9     1.3397224981E+01  1.3397224981E+01  1.3653485301E+01 Bohr
            acell10    1.3255500769E+01  1.3255500769E+01  1.3490840394E+01 Bohr
              amu      1.32905430E+02  1.26904470E+02  9.12240000E+01
                       3.54527000E+01
           diemac      1.20000000E+01
             ecut      1.60000000E+01 Hartree
-          fftalg         112
           istwfk        2    0    0    0    0    0    3    0    0    0
                         0    0    0    0    0    0    0    0    0    0
                         0    0    0    0    0    0    0    0    0    0
                         0    0    0    0    0    0    0    0    0    0
                         0    0    7    0    0    0    0    0    0    0
                       outvar_i_n : Printing only first  50 k-points.
              ixc     -101130
           jdtset        1    2    3    4    5    6    7    8    9   10
              kpt      0.00000000E+00  0.00000000E+00  0.00000000E+00
                       8.33333333E-02  0.00000000E+00  0.00000000E+00
                       1.66666667E-01  0.00000000E+00  0.00000000E+00
                       2.50000000E-01  0.00000000E+00  0.00000000E+00
                       3.33333333E-01  0.00000000E+00  0.00000000E+00
                       4.16666667E-01  0.00000000E+00  0.00000000E+00
                       5.00000000E-01  0.00000000E+00  0.00000000E+00
                       8.33333333E-02  8.33333333E-02  0.00000000E+00
                       1.66666667E-01  8.33333333E-02  0.00000000E+00
                       2.50000000E-01  8.33333333E-02  0.00000000E+00
                       3.33333333E-01  8.33333333E-02  0.00000000E+00
                       4.16666667E-01  8.33333333E-02  0.00000000E+00
                       5.00000000E-01  8.33333333E-02  0.00000000E+00
                      -4.16666667E-01  8.33333333E-02  0.00000000E+00
                      -3.33333333E-01  8.33333333E-02  0.00000000E+00
                      -2.50000000E-01  8.33333333E-02  0.00000000E+00
                      -1.66666667E-01  8.33333333E-02  0.00000000E+00
                      -8.33333333E-02  8.33333333E-02  0.00000000E+00
                       1.66666667E-01  1.66666667E-01  0.00000000E+00
                       2.50000000E-01  1.66666667E-01  0.00000000E+00
                       3.33333333E-01  1.66666667E-01  0.00000000E+00
                       4.16666667E-01  1.66666667E-01  0.00000000E+00
                       5.00000000E-01  1.66666667E-01  0.00000000E+00
                      -4.16666667E-01  1.66666667E-01  0.00000000E+00
                      -3.33333333E-01  1.66666667E-01  0.00000000E+00
                      -2.50000000E-01  1.66666667E-01  0.00000000E+00
                      -1.66666667E-01  1.66666667E-01  0.00000000E+00
                       2.50000000E-01  2.50000000E-01  0.00000000E+00
                       3.33333333E-01  2.50000000E-01  0.00000000E+00
                       4.16666667E-01  2.50000000E-01  0.00000000E+00
                       5.00000000E-01  2.50000000E-01  0.00000000E+00
                      -4.16666667E-01  2.50000000E-01  0.00000000E+00
                      -3.33333333E-01  2.50000000E-01  0.00000000E+00
                      -2.50000000E-01  2.50000000E-01  0.00000000E+00
                       3.33333333E-01  3.33333333E-01  0.00000000E+00
                       4.16666667E-01  3.33333333E-01  0.00000000E+00
                       5.00000000E-01  3.33333333E-01  0.00000000E+00
                      -4.16666667E-01  3.33333333E-01  0.00000000E+00
                      -3.33333333E-01  3.33333333E-01  0.00000000E+00
                       4.16666667E-01  4.16666667E-01  0.00000000E+00
                       5.00000000E-01  4.16666667E-01  0.00000000E+00
                      -4.16666667E-01  4.16666667E-01  0.00000000E+00
                       5.00000000E-01  5.00000000E-01  0.00000000E+00
                       8.33333333E-02  0.00000000E+00  8.33333333E-02
                       1.66666667E-01  0.00000000E+00  8.33333333E-02
                       2.50000000E-01  0.00000000E+00  8.33333333E-02
                       3.33333333E-01  0.00000000E+00  8.33333333E-02
                       4.16666667E-01  0.00000000E+00  8.33333333E-02
                       5.00000000E-01  0.00000000E+00  8.33333333E-02
                      -4.16666667E-01  0.00000000E+00  8.33333333E-02
                       outvar_i_n : Printing only first  50 k-points.
         kptrlatt       12    0    0      0   12    0      0    0   12
          kptrlen1     1.75246191E+02
          kptrlen2     1.73379117E+02
          kptrlen3     1.71499447E+02
          kptrlen4     1.69673008E+02
          kptrlen5     1.67843376E+02
          kptrlen6     1.66059972E+02
          kptrlen7     1.64263207E+02
          kptrlen8     1.62514664E+02
          kptrlen9     1.60766700E+02
          kptrlen10    1.59066009E+02
P           mkmem          41
            natom           9
            nband          42
           ndtset          10
            ngfft1         54      54      54
            ngfft2         54      54      54
            ngfft3         54      54      54
            ngfft4         54      54      54
            ngfft5         54      54      54
            ngfft6         54      54      54
            ngfft7         54      54      54
            ngfft8         50      50      50
            ngfft9         50      50      50
            ngfft10        50      50      50
          ngfftdg1         90      90      90
          ngfftdg2         90      90      90
          ngfftdg3         90      90      90
          ngfftdg4         90      90      90
          ngfftdg5         90      90      90
          ngfftdg6         90      90      90
          ngfftdg7         80      80      80
          ngfftdg8         80      80      80
          ngfftdg9         80      80      80
          ngfftdg10        80      80      80
             nkpt         163
            nstep        2500
             nsym           8
           ntypat           4
              occ      2.000000  2.000000  2.000000  2.000000  2.000000  2.000000
                       2.000000  2.000000  2.000000  2.000000  2.000000  2.000000
                       2.000000  2.000000  2.000000  2.000000  2.000000  2.000000
                       2.000000  2.000000  2.000000  2.000000  2.000000  2.000000
                       2.000000  2.000000  2.000000  2.000000  2.000000  2.000000
                       2.000000  2.000000  2.000000  2.000000  2.000000  2.000000
                       0.000000  0.000000  0.000000  0.000000  0.000000  0.000000
        pawecutdg      4.00000000E+01 Hartree
            prtwf           0
            rprim1     0.0000000000E+00  7.1606890467E-01  6.9802960092E-01
                       7.1606890467E-01  0.0000000000E+00  6.9802960092E-01
                       7.0710678119E-01  7.0710678119E-01  0.0000000000E+00
            rprim2     0.0000000000E+00  7.1734193672E-01  6.9672128274E-01
                       7.1734193672E-01  0.0000000000E+00  6.9672128274E-01
                       7.0710678119E-01  7.0710678119E-01  0.0000000000E+00
            rprim3     0.0000000000E+00  7.1882527002E-01  6.9519078761E-01
                       7.1882527002E-01  0.0000000000E+00  6.9519078761E-01
                       7.0710678119E-01  7.0710678119E-01  0.0000000000E+00
            rprim4     0.0000000000E+00  7.1962512734E-01  6.9436278421E-01
                       7.1962512734E-01  0.0000000000E+00  6.9436278421E-01
                       7.0710678119E-01  7.0710678119E-01  0.0000000000E+00
            rprim5     0.0000000000E+00  7.2049212816E-01  6.9346311601E-01
                       7.2049212816E-01  0.0000000000E+00  6.9346311601E-01
                       7.0710678119E-01  7.0710678119E-01  0.0000000000E+00
            rprim6     0.0000000000E+00  7.2072751918E-01  6.9321846708E-01
                       7.2072751918E-01  0.0000000000E+00  6.9321846708E-01
                       7.0710678119E-01  7.0710678119E-01  0.0000000000E+00
            rprim7     0.0000000000E+00  7.2116033815E-01  6.9276819116E-01
                       7.2116033815E-01  0.0000000000E+00  6.9276819116E-01
                       7.0710678119E-01  7.0710678119E-01  0.0000000000E+00
            rprim8     0.0000000000E+00  7.2090303807E-01  6.9303593680E-01
                       7.2090303807E-01  0.0000000000E+00  6.9303593680E-01
                       7.0710678119E-01  7.0710678119E-01  0.0000000000E+00
            rprim9     0.0000000000E+00  7.2063222469E-01  6.9331752952E-01
                       7.2063222469E-01  0.0000000000E+00  6.9331752952E-01
                       7.0710678119E-01  7.0710678119E-01  0.0000000000E+00
            rprim10    0.0000000000E+00  7.1966083309E-01  6.9432577751E-01
                       7.1966083309E-01  0.0000000000E+00  6.9432577751E-01
                       7.0710678119E-01  7.0710678119E-01  0.0000000000E+00
          spgroup         107
           symrel      1  0  0   0  1  0   0  0  1       1  0 -1   0  1 -1   0  0 -1
                       0  1 -1   1  0 -1   0  0 -1       0  1  0   1  0  0   0  0  1
                       1  0  0   1  0 -1   1 -1  0       0  1  0   0  1 -1  -1  1  0
                       0  1 -1   0  1  0  -1  1  0       1  0 -1   1  0  0   1 -1  0
           toldfe      1.00000000E-08 Hartree
            typat      1  1  2  4  4  4  4  4  3
           useylm           1
              wtk        0.00058    0.00463    0.00463    0.00463    0.00463    0.00463
                         0.00231    0.00116    0.00463    0.00463    0.00463    0.00463
                         0.00463    0.00463    0.00463    0.00463    0.00463    0.00231
                         0.00116    0.00463    0.00463    0.00463    0.00463    0.00463
                         0.00463    0.00463    0.00231    0.00116    0.00463    0.00463
                         0.00463    0.00463    0.00463    0.00231    0.00116    0.00463
                         0.00463    0.00463    0.00231    0.00116    0.00463    0.00231
                         0.00058    0.00231    0.00926    0.00926    0.00926    0.00926
                         0.00926    0.00926
                       outvars : Printing only first  50 k-points.
           xangst1     2.7668989126E+00  2.7668989126E+00  2.6274595290E+00
                       8.3006967377E+00  8.3006967377E+00  8.0218491782E+00
                       5.5337978251E+00  5.5337978251E+00  2.8433694029E+00
                       5.5337978252E+00  5.5337978252E+00  8.2422687078E+00
                       8.5889286385E+00  5.5337978251E+00  5.3751635051E+00
                       5.5337978251E+00  8.5889286385E+00  5.3751635051E+00
                       5.5337978252E+00  2.4786670117E+00  5.3751635051E+00
                       2.4786670117E+00  5.5337978252E+00  5.3751635051E+00
                      -6.3469306064E-13 -6.3469306064E-13 -8.0483644280E-02
           xangst2     2.7422869486E+00  2.7422869486E+00  2.5902647661E+00
                       8.2268608458E+00  8.2268608458E+00  7.9171795404E+00
                       5.4845738972E+00  5.4845738972E+00  2.8347035661E+00
                       5.4845738972E+00  5.4845738972E+00  8.1097771579E+00
                       8.4919169448E+00  5.4845738972E+00  5.3106525794E+00
                       5.4845738972E+00  8.4919169448E+00  5.3106525794E+00
                       5.4845738972E+00  2.4772308495E+00  5.3106525794E+00
                       2.4772308495E+00  5.4845738972E+00  5.3106525794E+00
                       2.7950726600E-14  2.7950726600E-14 -7.9217153676E-02
           xangst3     2.7181658378E+00  2.7181658378E+00  2.5615062503E+00
                       8.1544975135E+00  8.1544975135E+00  7.8190950649E+00
                       5.4363316757E+00  5.4363316757E+00  2.8226779052E+00
                       5.4363316757E+00  5.4363316757E+00  7.9713119543E+00
                       8.3973145402E+00  5.4363316757E+00  5.2415957228E+00
                       5.4363316757E+00  8.3973145402E+00  5.2415957228E+00
                       5.4363316757E+00  2.4753488112E+00  5.2415957228E+00
                       2.4753488112E+00  5.4363316757E+00  5.2415957228E+00
                      -6.3214142409E-13 -6.3214142409E-13 -8.0263548408E-02
           xangst4     2.6922102118E+00  2.6922102118E+00  2.5333135243E+00
                       8.0766306355E+00  8.0766306355E+00  7.7287145946E+00
                       5.3844204237E+00  5.3844204237E+00  2.8102969119E+00
                       5.3844204237E+00  5.3844204237E+00  7.8477175204E+00
                       8.2955755272E+00  5.3844204237E+00  5.1810238487E+00
                       5.3844204237E+00  8.2955755272E+00  5.1810238487E+00
                       5.3844204237E+00  2.4732653201E+00  5.1810238487E+00
                       2.4732653201E+00  5.3844204237E+00  5.1810238487E+00
                      -2.6260865843E-13 -2.6260865843E-13 -8.0929383605E-02
           xangst5     2.6663879390E+00  2.6663879390E+00  2.5050926033E+00
                       7.9991638169E+00  7.9991638169E+00  7.6378112449E+00
                       5.3327758779E+00  5.3327758779E+00  2.7964123520E+00
                       5.3327758780E+00  5.3327758780E+00  7.7228507593E+00
                       8.1951805657E+00  5.3327758779E+00  5.1204214976E+00
                       5.3327758779E+00  8.1951805657E+00  5.1204214976E+00
                       5.3327758780E+00  2.4703711902E+00  5.1204214976E+00
                       2.4703711902E+00  5.3327758780E+00  5.1204214976E+00
                      -9.6176332659E-13 -9.6176332659E-13 -8.2103816891E-02
           xangst6     2.6389183541E+00  2.6389183541E+00  2.4797707784E+00
                       7.9167550624E+00  7.9167550624E+00  7.5561606414E+00
                       5.2778367083E+00  5.2778367083E+00  2.7817651149E+00
                       5.2778367082E+00  5.2778367082E+00  7.6111476279E+00
                       8.0885506488E+00  5.2778367083E+00  5.0664298898E+00
                       5.2778367083E+00  8.0885506488E+00  5.0664298898E+00
                       5.2778367082E+00  2.4671227677E+00  5.0664298898E+00
                       2.4671227677E+00  5.2778367082E+00  5.0664298898E+00
                       1.5037446195E-12  1.5037446195E-12 -8.3444818070E-02
           xangst7     2.6119329250E+00  2.6119329250E+00  2.4538600417E+00
                       7.8357987751E+00  7.8357987751E+00  7.4720618262E+00
                       5.2238658501E+00  5.2238658501E+00  2.7649203184E+00
                       5.2238658501E+00  5.2238658501E+00  7.4947570493E+00
                       7.9846938785E+00  5.2238658501E+00  5.0115453961E+00
                       5.2238658501E+00  7.9846938785E+00  5.0115453961E+00
                       5.2238658501E+00  2.4630378216E+00  5.0115453961E+00
                       2.4630378216E+00  5.2238658501E+00  5.0115453961E+00
                       1.4653408216E-13  1.4653408216E-13 -8.6166543942E-02
           xangst8     2.5832075457E+00  2.5832075457E+00  2.4318075641E+00
                       7.7496226370E+00  7.7496226370E+00  7.3985106209E+00
                       5.1664150913E+00  5.1664150913E+00  2.7469549604E+00
                       5.1664150914E+00  5.1664150914E+00  7.3921073718E+00
                       7.8744735219E+00  5.1664150913E+00  4.9633549741E+00
                       5.1664150913E+00  7.8744735219E+00  4.9633549741E+00
                       5.1664150914E+00  2.4583566607E+00  4.9633549741E+00
                       2.4583566607E+00  5.1664150914E+00  4.9633549741E+00
                      -2.3624659167E-12 -2.3624659167E-12 -8.9175959411E-02
           xangst9     2.5544632831E+00  2.5544632831E+00  2.4103055283E+00
                       7.6633898492E+00  7.6633898492E+00  7.3255843957E+00
                       5.1089265662E+00  5.1089265662E+00  2.7277033694E+00
                       5.1089265660E+00  5.1089265660E+00  7.2896196184E+00
                       7.7651597642E+00  5.1089265662E+00  4.9154919732E+00
                       5.1089265662E+00  7.7651597642E+00  4.9154919732E+00
                       5.1089265660E+00  2.4526933680E+00  4.9154919732E+00
                       2.4526933680E+00  5.1089265660E+00  4.9154919732E+00
                       2.4247584509E-12  2.4247584509E-12 -9.2949864735E-02
           xangst10    2.5240336577E+00  2.5240336577E+00  2.3917030926E+00
                       7.5721009731E+00  7.5721009731E+00  7.2620574352E+00
                       5.0480673154E+00  5.0480673154E+00  2.7074476749E+00
                       5.0480673154E+00  5.0480673154E+00  7.2008738879E+00
                       7.6498267886E+00  5.0480673154E+00  4.8744716652E+00
                       5.0480673154E+00  7.6498267886E+00  4.8744716652E+00
                       5.0480673154E+00  2.4463078423E+00  4.8744716652E+00
                       2.4463078423E+00  5.0480673154E+00  4.8744716652E+00
                       5.5776378091E-13  5.5776378091E-13 -9.7134010076E-02
            xcart1     5.2286811821E+00  5.2286811821E+00  4.9651789350E+00
                       1.5686043546E+01  1.5686043546E+01  1.5159098026E+01
                       1.0457362364E+01  1.0457362364E+01  5.3731894661E+00
                       1.0457362364E+01  1.0457362364E+01  1.5575630571E+01
                       1.6230722902E+01  1.0457362364E+01  1.0157586944E+01
                       1.0457362364E+01  1.6230722902E+01  1.0157586944E+01
                       1.0457362364E+01  4.6840018268E+00  1.0157586944E+01
                       4.6840018268E+00  1.0457362364E+01  1.0157586944E+01
                      -1.1993960630E-12 -1.1993960630E-12 -1.5209204587E-01
            xcart2     5.1821713106E+00  5.1821713106E+00  4.8948910196E+00
                       1.5546513932E+01  1.5546513932E+01  1.4961301076E+01
                       1.0364342621E+01  1.0364342621E+01  5.3568134079E+00
                       1.0364342621E+01  1.0364342621E+01  1.5325257827E+01
                       1.6047397369E+01  1.0364342621E+01  1.0035678962E+01
                       1.0364342621E+01  1.6047397369E+01  1.0035678962E+01
                       1.0364342621E+01  4.6812878736E+00  1.0035678962E+01
                       4.6812878736E+00  1.0364342621E+01  1.0035678962E+01
                       5.2819218488E-14  5.2819218488E-14 -1.4969872547E-01
            xcart3     5.1365890173E+00  5.1365890173E+00  4.8405453007E+00
                       1.5409767052E+01  1.5409767052E+01  1.4775948280E+01
                       1.0273178035E+01  1.0273178035E+01  5.3340882022E+00
                       1.0273178035E+01  1.0273178035E+01  1.5063596513E+01
                       1.5868624733E+01  1.0273178035E+01  9.9051804153E+00
                       1.0273178035E+01  1.5868624733E+01  9.9051804153E+00
                       1.0273178035E+01  4.6777313365E+00  9.9051804153E+00
                       4.6777313365E+00  1.0273178035E+01  9.9051804153E+00
                      -1.1945741688E-12 -1.1945741688E-12 -1.5167612494E-01
            xcart4     5.0875399925E+00  5.0875399925E+00  4.7872687697E+00
                       1.5262619978E+01  1.5262619978E+01  1.4605153943E+01
                       1.0175079985E+01  1.0175079985E+01  5.3106915155E+00
                       1.0175079985E+01  1.0175079985E+01  1.4830036882E+01
                       1.5676365861E+01  1.0175079985E+01  9.7907161619E+00
                       1.0175079985E+01  1.5676365861E+01  9.7907161619E+00
                       1.0175079985E+01  4.6737941090E+00  9.7907161619E+00
                       4.6737941090E+00  1.0175079985E+01  9.7907161619E+00
                      -4.9625844456E-13 -4.9625844456E-13 -1.5293437112E-01
            xcart5     5.0387429687E+00  5.0387429687E+00  4.7339389577E+00
                       1.5116228906E+01  1.5116228906E+01  1.4433371508E+01
                       1.0077485937E+01  1.0077485937E+01  5.2844534999E+00
                       1.0077485937E+01  1.0077485937E+01  1.4594072900E+01
                       1.5486646879E+01  1.0077485937E+01  9.6761943154E+00
                       1.0077485937E+01  1.5486646879E+01  9.6761943154E+00
                       1.0077485937E+01  4.6683249960E+00  9.6761943154E+00
                       4.6683249960E+00  1.0077485937E+01  9.6761943154E+00
                      -1.8174692919E-12 -1.8174692919E-12 -1.5515372839E-01
            xcart6     4.9868329763E+00  4.9868329763E+00  4.6860876435E+00
                       1.4960498929E+01  1.4960498929E+01  1.4279074228E+01
                       9.9736659527E+00  9.9736659527E+00  5.2567742332E+00
                       9.9736659526E+00  9.9736659526E+00  1.4382984574E+01
                       1.5285145538E+01  9.9736659527E+00  9.5741649632E+00
                       9.9736659527E+00  1.5285145538E+01  9.5741649632E+00
                       9.9736659526E+00  4.6621863672E+00  9.5741649632E+00
                       4.6621863672E+00  9.9736659526E+00  9.5741649632E+00
                       2.8416655046E-12  2.8416655046E-12 -1.5768785336E-01
            xcart7     4.9358379058E+00  4.9358379058E+00  4.6371234473E+00
                       1.4807513717E+01  1.4807513717E+01  1.4120150500E+01
                       9.8716758116E+00  9.8716758116E+00  5.2249421810E+00
                       9.8716758115E+00  9.8716758115E+00  1.4163038256E+01
                       1.5088884685E+01  9.8716758116E+00  9.4704483011E+00
                       9.8716758116E+00  1.5088884685E+01  9.4704483011E+00
                       9.8716758115E+00  4.6544669377E+00  9.4704483011E+00
                       4.6544669377E+00  9.8716758115E+00  9.4704483011E+00
                       2.7690928442E-13  2.7690928442E-13 -1.6283116987E-01
            xcart8     4.8815548057E+00  4.8815548057E+00  4.5954503041E+00
                       1.4644664417E+01  1.4644664417E+01  1.3981158865E+01
                       9.7631096113E+00  9.7631096113E+00  5.1909925745E+00
                       9.7631096116E+00  9.7631096116E+00  1.3969058478E+01
                       1.4880598397E+01  9.7631096113E+00  9.3793816013E+00
                       9.7631096113E+00  1.4880598397E+01  9.3793816013E+00
                       9.7631096116E+00  4.6456208257E+00  9.3793816013E+00
                       4.6456208257E+00  9.7631096116E+00  9.3793816013E+00
                      -4.4644135808E-12 -4.4644135808E-12 -1.6851814092E-01
            xcart9     4.8272360215E+00  4.8272360215E+00  4.5548173450E+00
                       1.4481708064E+01  1.4481708064E+01  1.3843348271E+01
                       9.6544720431E+00  9.6544720431E+00  5.1546123399E+00
                       9.6544720429E+00  9.6544720429E+00  1.3775384692E+01
                       1.4674025332E+01  9.6544720431E+00  9.2889336377E+00
                       9.6544720431E+00  1.4674025332E+01  9.2889336377E+00
                       9.6544720428E+00  4.6349187535E+00  9.2889336377E+00
                       4.6349187535E+00  9.6544720428E+00  9.2889336377E+00
                       4.5821294106E-12  4.5821294106E-12 -1.7564978844E-01
            xcart10    4.7697323632E+00  4.7697323632E+00  4.5196638361E+00
                       1.4309197090E+01  1.4309197090E+01  1.3723299714E+01
                       9.5394647265E+00  9.5394647265E+00  5.1163346247E+00
                       9.5394647265E+00  9.5394647265E+00  1.3607679566E+01
                       1.4456077594E+01  9.5394647265E+00  9.2114164898E+00
                       9.5394647265E+00  1.4456077594E+01  9.2114164898E+00
                       9.5394647265E+00  4.6228518586E+00  9.2114164898E+00
                       4.6228518586E+00  9.5394647265E+00  9.2114164898E+00
                       1.0540207928E-12  1.0540207928E-12 -1.8355667723E-01
             xred1     2.4353631271E-01  2.4353631271E-01  2.5646368729E-01
                       7.4353631271E-01  7.4353631271E-01  7.5646368729E-01
                       2.6354875971E-01  2.6354875971E-01  7.3645124029E-01
                       7.6396675470E-01  7.6396675470E-01  2.3603324530E-01
                       2.2217508487E-01  7.7426081513E-01  7.7782491513E-01
                       7.7426081513E-01  2.2217508487E-01  7.7782491513E-01
                       2.2217508487E-01  7.7426081513E-01  2.2573918487E-01
                       7.7426081513E-01  2.2217508487E-01  2.2573918487E-01
                      -7.4599398184E-03 -7.4599398184E-03  7.4599398184E-03
             xred2     2.4312992378E-01  2.4312992378E-01  2.5687007622E-01
                       7.4312992378E-01  7.4312992378E-01  7.5687007622E-01
                       2.6607367362E-01  2.6607367362E-01  7.3392632638E-01
                       7.6120770667E-01  7.6120770667E-01  2.3879229333E-01
                       2.2430979994E-01  7.7263736449E-01  7.7569020006E-01
                       7.7263736449E-01  2.2430979994E-01  7.7569020006E-01
                       2.2430979994E-01  7.7263736449E-01  2.2736263551E-01
                       7.7263736449E-01  2.2430979994E-01  2.2736263551E-01
                      -7.4355566996E-03 -7.4355566996E-03  7.4355566996E-03
             xred3     2.4360085398E-01  2.4360085398E-01  2.5639914602E-01
                       7.4360085398E-01  7.4360085398E-01  7.5639914602E-01
                       2.6843844248E-01  2.6843844248E-01  7.3156155752E-01
                       7.5807677581E-01  7.5807677581E-01  2.4192322419E-01
                       2.2614624594E-01  7.7081184788E-01  7.7385375406E-01
                       7.7081184788E-01  2.2614624594E-01  7.7385375406E-01
                       2.2614624594E-01  7.7081184788E-01  2.2918815212E-01
                       7.7081184788E-01  2.2614624594E-01  2.2918815212E-01
                      -7.6331138890E-03 -7.6331138890E-03  7.6331138890E-03
             xred4     2.4380346099E-01  2.4380346099E-01  2.5619653901E-01
                       7.4380346099E-01  7.4380346099E-01  7.5619653901E-01
                       2.7046005437E-01  2.7046005437E-01  7.2953994563E-01
                       7.5525617891E-01  7.5525617891E-01  2.4474382109E-01
                       2.2828501791E-01  7.6894768436E-01  7.7171498209E-01
                       7.6894768436E-01  2.2828501791E-01  7.7171498209E-01
                       2.2828501791E-01  7.6894768436E-01  2.3105231564E-01
                       7.6894768436E-01  2.2828501791E-01  2.3105231564E-01
                      -7.7885597773E-03 -7.7885597773E-03  7.7885597773E-03
             xred5     2.4403174791E-01  2.4403174791E-01  2.5596825209E-01
                       7.4403174791E-01  7.4403174791E-01  7.5596825209E-01
                       2.7241044632E-01  2.7241044632E-01  7.2758955368E-01
                       7.5231580947E-01  7.5231580947E-01  2.4768419053E-01
                       2.3042359162E-01  7.6718057396E-01  7.6957640838E-01
                       7.6718057396E-01  2.3042359162E-01  7.6957640838E-01
                       2.3042359162E-01  7.6718057396E-01  2.3281942604E-01
                       7.6718057396E-01  2.3042359162E-01  2.3281942604E-01
                      -7.9980827534E-03 -7.9980827534E-03  7.9980827534E-03
             xred6     2.4424550176E-01  2.4424550176E-01  2.5575449824E-01
                       7.4424550176E-01  7.4424550176E-01  7.5575449824E-01
                       2.7399049226E-01  2.7399049226E-01  7.2600950774E-01
                       7.4966145562E-01  7.4966145562E-01  2.5033854438E-01
                       2.3274380090E-01  7.6529418014E-01  7.6725619910E-01
                       7.6529418014E-01  2.3274380090E-01  7.6725619910E-01
                       2.3274380090E-01  7.6529418014E-01  2.3470581986E-01
                       7.6529418014E-01  2.3274380090E-01  2.3470581986E-01
                      -8.2189134722E-03 -8.2189134722E-03  8.2189134722E-03
             xred7     2.4449595165E-01  2.4449595165E-01  2.5550404835E-01
                       7.4449595165E-01  7.4449595165E-01  7.5550404835E-01
                       2.7548915300E-01  2.7548915300E-01  7.2451084700E-01
                       7.4675724205E-01  7.4675724205E-01  2.5324275795E-01
                       2.3508534683E-01  7.6358820424E-01  7.6491465317E-01
                       7.6358820424E-01  2.3508534683E-01  7.6491465317E-01
                       2.3508534683E-01  7.6358820424E-01  2.3641179576E-01
                       7.6358820424E-01  2.3508534683E-01  2.3641179576E-01
                      -8.5854004724E-03 -8.5854004724E-03  8.5854004724E-03
             xred8     2.4481104833E-01  2.4481104833E-01  2.5518895167E-01
                       7.4481104833E-01  7.4481104833E-01  7.5518895167E-01
                       2.7653706382E-01  2.7653706382E-01  7.2346293618E-01
                       7.4416643066E-01  7.4416643066E-01  2.5583356934E-01
                       2.3758001512E-01  7.6174587921E-01  7.6241998488E-01
                       7.6174587921E-01  2.3758001512E-01  7.6241998488E-01
                       2.3758001512E-01  7.6174587921E-01  2.3825412079E-01
                       7.6174587921E-01  2.3758001512E-01  2.3825412079E-01
                      -8.9773798022E-03 -8.9773798022E-03  8.9773798022E-03
             xred9     2.4518502340E-01  2.4518502340E-01  2.5481497660E-01
                       7.4518502340E-01  7.4518502340E-01  7.5481497660E-01
                       2.7747188338E-01  2.7747188338E-01  7.2252811662E-01
                       7.4152655576E-01  7.4152655576E-01  2.5847344424E-01
                       2.4006166831E-01  7.5998168746E-01  7.5993833169E-01
                       7.5998168746E-01  2.4006166831E-01  7.5993833169E-01
                       2.4006166831E-01  7.5998168746E-01  2.4001831254E-01
                       7.5998168746E-01  2.4006166831E-01  2.4001831254E-01
                      -9.4551974813E-03 -9.4551974813E-03  9.4551974813E-03
             xred10    2.4553686696E-01  2.4553686696E-01  2.5446313304E-01
                       7.4553686696E-01  7.4553686696E-01  7.5446313304E-01
                       2.7795181669E-01  2.7795181669E-01  7.2204818331E-01
                       7.3925564562E-01  7.3925564562E-01  2.6074435438E-01
                       2.4272412069E-01  7.5812126391E-01  7.5727587931E-01
                       7.5812126391E-01  2.4272412069E-01  7.5727587931E-01
                       2.4272412069E-01  7.5812126391E-01  2.4187873609E-01
                       7.5812126391E-01  2.4272412069E-01  2.4187873609E-01
                      -9.9719654097E-03 -9.9719654097E-03  9.9719654097E-03
            znucl       55.00000   53.00000   40.00000   17.00000

================================================================================

 chkinp: Checking input parameters for consistency, jdtset=   1.

 chkinp: Checking input parameters for consistency, jdtset=   2.

 chkinp: Checking input parameters for consistency, jdtset=   3.

 chkinp: Checking input parameters for consistency, jdtset=   4.

 chkinp: Checking input parameters for consistency, jdtset=   5.

 chkinp: Checking input parameters for consistency, jdtset=   6.

 chkinp: Checking input parameters for consistency, jdtset=   7.

 chkinp: Checking input parameters for consistency, jdtset=   8.

 chkinp: Checking input parameters for consistency, jdtset=   9.

 chkinp: Checking input parameters for consistency, jdtset=  10.

================================================================================
== DATASET  1 ==================================================================
-   mpi_nproc: 4, omp_nthreads: -1 (-1 if OMP is not activated)


--- !DatasetInfo
iteration_state: {dtset: 1, }
dimensions: {natom: 9, nkpt: 163, mband: 42, nsppol: 1, nspinor: 1, nspden: 1, mpw: 6854, }
cutoff_energies: {ecut:  16.0, pawecutdg:  40.0, }
electrons: {nelect:   7.20000000E+01, charge:   0.00000000E+00, occopt:   1.00000000E+00, tsmear:   1.00000000E-02, }
meta: {optdriver: 0, ionmov: 0, optcell: 0, iscf: 17, paral_kgb: 0, }
...

 Real(R)+Recip(G) space primitive vectors, cartesian coordinates (Bohr,Bohr^-1):
 R(1)=  0.0000000 10.4573624 10.1939191  G(1)= -0.0478132  0.0478132  0.0490488
 R(2)= 10.4573624  0.0000000 10.1939191  G(2)=  0.0478132 -0.0478132  0.0490488
 R(3)= 10.4573624 10.4573624  0.0000000  G(3)=  0.0478132  0.0478132 -0.0490488
 Unit cell volume ucvol=  2.2295412E+03 bohr^3
 Angles (23,13,12)=  5.95798425E+01  5.95798425E+01  6.08403151E+01 degrees

 Coarse grid specifications (used for wave-functions):

 getcut: wavevector=  0.0000  0.0000  0.0000  ngfft=  54  54  54
         ecut(hartree)=     16.000   => boxcut(ratio)=   2.02856

 Fine grid specifications (used for densities):

 getcut: wavevector=  0.0000  0.0000  0.0000  ngfft=  90  90  90
         ecut(hartree)=     40.000   => boxcut(ratio)=   2.13780

--- Pseudopotential description ------------------------------------------------
- pspini: atom type   1  psp file is ../../../Psps_for_tests/ATOMICDATA/Cs.GGA_PBE-JTH.xml
- pspatm: opening atomic psp file    ../../../Psps_for_tests/ATOMICDATA/Cs.GGA_PBE-JTH.xml
- pspatm : Reading pseudopotential header in XML form from ../../../Psps_for_tests/ATOMICDATA/Cs.GGA_PBE-JTH.xml
 Pseudopotential format is: paw10
 basis_size (lnmax)=  6 (lmn_size= 18), orbitals=   0   0   1   1   2   2
 Spheres core radius: rc_sph= 2.20660278
 1 radial meshes are used:
  - mesh 1: r(i)=AA*[exp(BB*(i-1))-1], size=1500 , AA= 0.15922E-03 BB= 0.87573E-02
 Shapefunction is SIN type: shapef(r)=[sin(pi*r/rshp)/(pi*r/rshp)]**2
 Radius for shape functions =  2.00394208
 mmax= 1500
 Radial grid used for partial waves is grid 1
 Radial grid used for projectors is grid 1
 Radial grid used for (t)core density is grid 1
 Radial grid used for Vloc is grid 1
 Radial grid used for pseudo valence density is grid 1
 Mesh size for Vloc has been set to 1341 to avoid numerical noise.
 Compensation charge density is not taken into account in XC energy/potential
 pspatm: atomic psp has been read  and splines computed

- pspini: atom type   2  psp file is ../../../Psps_for_tests/ATOMICDATA/I.GGA_PBE-JTH.xml
- pspatm: opening atomic psp file    ../../../Psps_for_tests/ATOMICDATA/I.GGA_PBE-JTH.xml
- pspatm : Reading pseudopotential header in XML form from ../../../Psps_for_tests/ATOMICDATA/I.GGA_PBE-JTH.xml
 Pseudopotential format is: paw10
 basis_size (lnmax)=  4 (lmn_size=  8), orbitals=   0   0   1   1
 Spheres core radius: rc_sph= 2.30022271
 1 radial meshes are used:
  - mesh 1: r(i)=AA*[exp(BB*(i-1))-1], size=2000 , AA= 0.12610E-03 BB= 0.66836E-02
 Shapefunction is SIN type: shapef(r)=[sin(pi*r/rshp)/(pi*r/rshp)]**2
 Radius for shape functions =  2.10879093
 mmax= 2000
 Radial grid used for partial waves is grid 1
 Radial grid used for projectors is grid 1
 Radial grid used for (t)core density is grid 1
 Radial grid used for Vloc is grid 1
 Radial grid used for pseudo valence density is grid 1
 Mesh size for Vloc has been set to 1792 to avoid numerical noise.
 Compensation charge density is not taken into account in XC energy/potential
 pspatm: atomic psp has been read  and splines computed

- pspini: atom type   3  psp file is ../../../Psps_for_tests/ATOMICDATA/Zr.GGA_PBE-JTH.xml
- pspatm: opening atomic psp file    ../../../Psps_for_tests/ATOMICDATA/Zr.GGA_PBE-JTH.xml
- pspatm : Reading pseudopotential header in XML form from ../../../Psps_for_tests/ATOMICDATA/Zr.GGA_PBE-JTH.xml
 Pseudopotential format is: paw10
 basis_size (lnmax)=  6 (lmn_size= 18), orbitals=   0   0   1   1   2   2
 Spheres core radius: rc_sph= 2.21000000
 1 radial meshes are used:
  - mesh 1: r(i)=AA*[exp(BB*(i-1))-1], size= 941 , AA= 0.35256E-03 BB= 0.14102E-01
 Shapefunction is BESSEL type: shapef(r,l)=aa(1,l)*jl(q(1,l)*r)+aa(2,l)*jl(q(2,l)*r)
 Radius for shape functions =  2.21000000
 mmax=  941
 Radial grid used for partial waves is grid 1
 Radial grid used for projectors is grid 1
 Radial grid used for (t)core density is grid 1
 Radial grid used for Vloc is grid 1
 Radial grid used for pseudo valence density is grid 1
 Mesh size for Vloc has been set to  777 to avoid numerical noise.
 Compensation charge density is not taken into account in XC energy/potential
 pspatm: atomic psp has been read  and splines computed

- pspini: atom type   4  psp file is ../../../Psps_for_tests/ATOMICDATA/Cl.GGA_PBE-JTH.xml
- pspatm: opening atomic psp file    ../../../Psps_for_tests/ATOMICDATA/Cl.GGA_PBE-JTH.xml
- pspatm : Reading pseudopotential header in XML form from ../../../Psps_for_tests/ATOMICDATA/Cl.GGA_PBE-JTH.xml
 Pseudopotential format is: paw10
 basis_size (lnmax)=  4 (lmn_size=  8), orbitals=   0   0   1   1
 Spheres core radius: rc_sph= 1.80315674
 1 radial meshes are used:
  - mesh 1: r(i)=AA*[exp(BB*(i-1))-1], size=1400 , AA= 0.50355E-03 BB= 0.85603E-02
 Shapefunction is SIN type: shapef(r)=[sin(pi*r/rshp)/(pi*r/rshp)]**2
 Radius for shape functions =  1.61320365
 mmax= 1400
 Radial grid used for partial waves is grid 1
 Radial grid used for projectors is grid 1
 Radial grid used for (t)core density is grid 1
 Radial grid used for Vloc is grid 1
 Radial grid used for pseudo valence density is grid 1
 Mesh size for Vloc has been set to 1238 to avoid numerical noise.
 Compensation charge density is not taken into account in XC energy/potential
 pspatm: atomic psp has been read  and splines computed

   1.59901964E+04                                ecore*ucvol(ha*bohr**3)
--------------------------------------------------------------------------------

_setup2: Arith. and geom. avg. npw (full set) are    6815.385    6815.378

================================================================================

--- !BeginCycle
iteration_state: {dtset: 1, }
solver: {iscf: 17, nstep: 2500, nline: 4, wfoptalg: 10, }
tolerances: {toldfe: 1.00E-08, }
...

     iter   Etot(hartree)      deltaE(h)  residm     nres2
 ETOT  1  -176.18998060701    -1.762E+02 2.235E-01 2.420E+01
 ETOT  2  -176.32473027273    -1.347E-01 2.008E-02 5.266E+00
 ETOT  3  -176.32267114882     2.059E-03 5.200E-03 1.197E+00
 ETOT  4  -176.32331260259    -6.415E-04 4.000E-03 5.352E-02
 ETOT  5  -176.32317512766     1.375E-04 1.106E-03 8.437E-03
 ETOT  6  -176.32322263517    -4.751E-05 1.944E-03 5.600E-04
 ETOT  7  -176.32322570358    -3.068E-06 5.352E-04 1.684E-04
 ETOT  8  -176.32322695459    -1.251E-06 6.605E-04 1.510E-05
 ETOT  9  -176.32322698545    -3.085E-08 2.235E-04 2.370E-06
 ETOT 10  -176.32322699197    -6.524E-09 3.529E-04 4.955E-07
 ETOT 11  -176.32322699469    -2.714E-09 3.030E-04 1.006E-07

 At SCF step   11, etot is converged : 
  for the second time, diff in etot=  2.714E-09 < toldfe=  1.000E-08

 Cartesian components of stress tensor (hartree/bohr^3)
  sigma(1 1)= -3.90779922E-06  sigma(3 2)= -2.53377933E-14
  sigma(2 2)= -3.90779922E-06  sigma(3 1)= -2.53372612E-14
  sigma(3 3)= -3.93780503E-06  sigma(2 1)=  4.93973828E-14


--- !ResultsGS
iteration_state: {dtset: 1, }
comment   : Summary of ground state results
lattice_vectors:
- [  0.0000000,  10.4573624,  10.1939191, ]
- [ 10.4573624,   0.0000000,  10.1939191, ]
- [ 10.4573624,  10.4573624,   0.0000000, ]
lattice_lengths: [  14.60385,   14.60385,   14.78894, ]
lattice_angles: [ 59.580,  59.580,  60.840, ] # degrees, (23, 13, 12)
lattice_volume:   2.2295412E+03
convergence: {deltae: -2.714E-09, res2:  1.006E-07, residm:  3.030E-04, diffor: null, }
etotal    :  -1.76323227E+02
entropy   :   0.00000000E+00
fermie    :  -1.16499772E-02
cartesian_stress_tensor: # hartree/bohr^3
- [ -3.90779922E-06,   4.93973828E-14,  -2.53372612E-14, ]
- [  4.93973828E-14,  -3.90779922E-06,  -2.53377933E-14, ]
- [ -2.53372612E-14,  -2.53377933E-14,  -3.93780503E-06, ]
pressure_GPa:   1.1527E-01
xred      :
- [  2.4354E-01,   2.4354E-01,   2.5646E-01, Cs]
- [  7.4354E-01,   7.4354E-01,   7.5646E-01, Cs]
- [  2.6355E-01,   2.6355E-01,   7.3645E-01,  I]
- [  7.6397E-01,   7.6397E-01,   2.3603E-01, Cl]
- [  2.2218E-01,   7.7426E-01,   7.7782E-01, Cl]
- [  7.7426E-01,   2.2218E-01,   7.7782E-01, Cl]
- [  2.2218E-01,   7.7426E-01,   2.2574E-01, Cl]
- [  7.7426E-01,   2.2218E-01,   2.2574E-01, Cl]
- [ -7.4599E-03,  -7.4599E-03,   7.4599E-03, Zr]
cartesian_forces: # hartree/bohr
- [  1.54717536E-22,  -8.08057723E-22,   2.03538823E-05, ]
- [ -1.13159019E-22,  -5.40181168E-22,   2.03538823E-05, ]
- [ -2.76744652E-22,  -3.76595535E-22,   2.56190315E-06, ]
- [ -1.24205868E-21,   5.88718493E-22,  -5.96322546E-05, ]
- [ -3.34438261E-05,  -2.57097991E-16,   6.68495022E-06, ]
- [ -2.57098099E-16,  -3.34438261E-05,   6.68495022E-06, ]
- [  2.57097338E-16,   3.34438261E-05,   6.68495022E-06, ]
- [  3.34438261E-05,   2.57096649E-16,   6.68495022E-06, ]
- [ -1.41049568E-22,  -5.12290618E-22,  -1.03772140E-05, ]
force_length_stats: {min:   2.56190315E-06, max:   5.96322546E-05, mean:   2.77445247E-05, }
...

 Integrated electronic density in atomic spheres:
 ------------------------------------------------
 Atom  Sphere_radius  Integrated_density
    1        2.20660          5.36857127
    2        2.20660          5.36857127
    3        2.30022          4.01869172
    4        1.80316          4.36939075
    5        1.80316          4.37200631
    6        1.80316          4.37200631
    7        1.80316          4.37200631
    8        1.80316          4.37200631
    9        2.21000          8.80759382

 PAW TEST:
 ==== Compensation charge inside spheres ============
 The following values must be close to each other ...
 Compensation charge over spherical meshes =     -5.936869136333689
 Compensation charge over fine fft grid    =     -5.936895326621164

 ==== Results concerning PAW augmentation regions ====

 Total pseudopotential strength Dij (hartree):
 Atom #  1
   0.41711  -0.13826   0.00000   0.00000   0.00000   0.00000  -0.00001   0.00000  -0.00000   0.00000   0.00000   0.00000 ...
  -0.13826   0.04149   0.00000  -0.00000   0.00000   0.00000   0.00000   0.00000   0.00000   0.00000  -0.00000   0.00000 ...
   0.00000   0.00000  -0.09076   0.00000  -0.00000  -0.16822   0.00000   0.00000   0.00000   0.00000   0.00000  -0.00000 ...
   0.00000  -0.00000   0.00000  -0.09076   0.00000   0.00000  -0.16823   0.00000  -0.00000   0.00000   0.00000   0.00000 ...
   0.00000   0.00000  -0.00000   0.00000  -0.09076   0.00000   0.00000  -0.16822   0.00000  -0.00000   0.00000   0.00000 ...
   0.00000   0.00000  -0.16822   0.00000   0.00000   0.39695   0.00000  -0.00002   0.00000  -0.00000   0.00000   0.00000 ...
  -0.00001   0.00000   0.00000  -0.16823   0.00000   0.00000   0.39697   0.00000   0.00000   0.00000  -0.00000   0.00000 ...
   0.00000   0.00000   0.00000   0.00000  -0.16822  -0.00002   0.00000   0.39695   0.00000   0.00000   0.00000  -0.00000 ...
  -0.00000   0.00000   0.00000  -0.00000   0.00000   0.00000   0.00000   0.00000   0.00562   0.00000   0.00000   0.00000 ...
   0.00000   0.00000   0.00000   0.00000  -0.00000  -0.00000   0.00000   0.00000   0.00000   0.00562   0.00000  -0.00000 ...
   0.00000  -0.00000   0.00000   0.00000   0.00000   0.00000  -0.00000   0.00000   0.00000   0.00000   0.00562   0.00000 ...
   0.00000   0.00000  -0.00000   0.00000   0.00000   0.00000   0.00000  -0.00000   0.00000  -0.00000   0.00000   0.00562 ...
   ...  only 12  components have been written...
 Atom #  9
   3.05276  -0.88859   0.00000  -0.00001   0.00000   0.00000   0.00001   0.00000   0.00000   0.00000  -0.00006   0.00000 ...
  -0.88859   0.26540   0.00000  -0.00001   0.00000   0.00000   0.00000   0.00000   0.00000   0.00000   0.00001   0.00000 ...
   0.00000   0.00000   0.27826   0.00000   0.00000  -0.05687   0.00000   0.00000   0.00000  -0.00010   0.00000   0.00000 ...
  -0.00001  -0.00001   0.00000   0.27816   0.00000   0.00000  -0.05686   0.00000   0.00000   0.00000  -0.00012   0.00000 ...
   0.00000   0.00000   0.00000   0.00000   0.27826   0.00000   0.00000  -0.05687   0.00000   0.00000   0.00000  -0.00010 ...
   0.00000   0.00000  -0.05687   0.00000   0.00000   0.01548   0.00000   0.00000   0.00000   0.00002   0.00000   0.00000 ...
   0.00001   0.00000   0.00000  -0.05686   0.00000   0.00000   0.01547   0.00000   0.00000   0.00000   0.00002   0.00000 ...
   0.00000   0.00000   0.00000   0.00000  -0.05687   0.00000   0.00000   0.01548   0.00000   0.00000   0.00000   0.00002 ...
   0.00000   0.00000   0.00000   0.00000   0.00000   0.00000   0.00000   0.00000  -0.00431   0.00000   0.00000   0.00000 ...
   0.00000   0.00000  -0.00010   0.00000   0.00000   0.00002   0.00000   0.00000   0.00000  -0.00435   0.00000   0.00000 ...
  -0.00006   0.00001   0.00000  -0.00012   0.00000   0.00000   0.00002   0.00000   0.00000   0.00000  -0.00427   0.00000 ...
   0.00000   0.00000   0.00000   0.00000  -0.00010   0.00000   0.00000   0.00002   0.00000   0.00000   0.00000  -0.00435 ...
   ...  only 12  components have been written...


 Augmentation waves occupancies Rhoij:
 Atom #  1
   1.99759  -0.01513   0.00000  -0.00002   0.00000   0.00000   0.00002   0.00000  -0.00435   0.00000   0.00262   0.00000 ...
  -0.01513   0.11539   0.00000   0.00148   0.00000   0.00000  -0.00000   0.00000   0.02989   0.00000  -0.01675   0.00000 ...
   0.00000   0.00000   2.01129   0.00000   0.00305  -0.00509   0.00000  -0.00046   0.00000   0.00037   0.00000   0.00028 ...
  -0.00002   0.00148   0.00000   2.00820   0.00000   0.00000  -0.00463   0.00000   0.00031   0.00000   0.00246   0.00000 ...
   0.00000   0.00000   0.00305   0.00000   2.01129  -0.00046   0.00000  -0.00509   0.00000   0.00028   0.00000   0.00037 ...
   0.00000   0.00000  -0.00509   0.00000  -0.00046   0.00009   0.00000   0.00003   0.00000   0.00004   0.00000  -0.00004 ...
   0.00002  -0.00000   0.00000  -0.00463   0.00000   0.00000   0.00007   0.00000  -0.00004   0.00000  -0.00011   0.00000 ...
   0.00000   0.00000  -0.00046   0.00000  -0.00509   0.00003   0.00000   0.00009   0.00000  -0.00004   0.00000   0.00004 ...
  -0.00435   0.02989   0.00000   0.00031   0.00000   0.00000  -0.00004   0.00000   0.05165   0.00000  -0.01693   0.00000 ...
   0.00000   0.00000   0.00037   0.00000   0.00028   0.00004   0.00000  -0.00004   0.00000   0.02863   0.00000   0.00146 ...
   0.00262  -0.01675   0.00000   0.00246   0.00000   0.00000  -0.00011   0.00000  -0.01693   0.00000   0.02513   0.00000 ...
   0.00000   0.00000   0.00028   0.00000   0.00037  -0.00004   0.00000   0.00004   0.00000   0.00146   0.00000   0.02863 ...
   ...  only 12  components have been written...
 Atom #  9
   1.99243  -0.07267   0.00000   0.00055   0.00000   0.00000   0.00305   0.00000   0.00000   0.00000   0.00297   0.00000 ...
  -0.07267   1.06327   0.00000   0.00564   0.00000   0.00000  -0.05590   0.00000   0.00000   0.00000  -0.03715   0.00000 ...
   0.00000   0.00000   1.96377   0.00000   0.00000  -0.22202   0.00000   0.00000   0.00000  -0.00151   0.00000   0.00000 ...
   0.00055   0.00564   0.00000   1.96547   0.00000   0.00000  -0.21071   0.00000   0.00000   0.00000   0.00281   0.00000 ...
   0.00000   0.00000   0.00000   0.00000   1.96377   0.00000   0.00000  -0.22202   0.00000   0.00000   0.00000  -0.00151 ...
   0.00000   0.00000  -0.22202   0.00000   0.00000   1.81890   0.00000   0.00000   0.00000   0.03976   0.00000   0.00000 ...
   0.00305  -0.05590   0.00000  -0.21071   0.00000   0.00000   1.62590   0.00000   0.00000   0.00000  -0.19430   0.00000 ...
   0.00000   0.00000   0.00000   0.00000  -0.22202   0.00000   0.00000   1.81890   0.00000   0.00000   0.00000   0.03976 ...
   0.00000   0.00000   0.00000   0.00000   0.00000   0.00000   0.00000   0.00000   0.51584   0.00000   0.00000   0.00000 ...
   0.00000   0.00000  -0.00151   0.00000   0.00000   0.03976   0.00000   0.00000   0.00000   0.49746   0.00000   0.00000 ...
   0.00297  -0.03715   0.00000   0.00281   0.00000   0.00000  -0.19430   0.00000   0.00000   0.00000   1.46560   0.00000 ...
   0.00000   0.00000   0.00000   0.00000  -0.00151   0.00000   0.00000   0.03976   0.00000   0.00000   0.00000   0.49746 ...
   ...  only 12  components have been written...


================================================================================

 ----iterations are completed or convergence reached----

 Mean square residual over all n,k,spin=   31.586E-08; max=  30.297E-05
 reduced coordinates (array xred) for    9 atoms
       0.243536312710      0.243536312710      0.256463687290
       0.743536312710      0.743536312710      0.756463687290
       0.263548759710      0.263548759710      0.736451240290
       0.763966754700      0.763966754700      0.236033245300
       0.222175084870      0.774260815130      0.777824915130
       0.774260815130      0.222175084870      0.777824915130
       0.222175084870      0.774260815130      0.225739184870
       0.774260815130      0.222175084870      0.225739184870
      -0.007459939818     -0.007459939818      0.007459939818
 rms dE/dt=  3.1097E-04; max dE/dt=  7.9941E-04; dE/dt below (all hartree)
    1      -0.000015959468     -0.000015959468      0.000000000000
    2      -0.000015959468     -0.000015959468      0.000000000000
    3       0.000165410528      0.000165410528      0.000000000000
    4       0.000799412739      0.000799412739      0.000000000000
    5       0.000123380519      0.000473114728      0.000349734209
    6       0.000473114728      0.000123380519      0.000349734209
    7      -0.000226353689      0.000123380519     -0.000349734209
    8       0.000123380519     -0.000226353689     -0.000349734209
    9       0.000297310841      0.000297310841      0.000000000000

 cartesian coordinates (angstrom) at end:
    1      2.76689891256596     2.76689891256596     2.62745952898345
    2      8.30069673769897     8.30069673769897     8.02184917820220
    3      5.53379782511290     5.53379782511290     2.84336940288813
    4      5.53379782515547     5.53379782515547     8.24226870780184
    5      8.58892863853262     5.53379782510938     5.37516350506997
    6      5.53379782510938     8.58892863853262     5.37516350506997
    7      5.53379782515635     2.47866701173310     5.37516350506997
    8      2.47866701173310     5.53379782515635     5.37516350506997
    9     -0.00000000000063    -0.00000000000063    -0.08048364428034

 cartesian forces (hartree/bohr) at end:
    1      0.00000000000000    -0.00000000000000     0.00002035388228
    2     -0.00000000000000    -0.00000000000000     0.00002035388228
    3     -0.00000000000000    -0.00000000000000     0.00000256190315
    4     -0.00000000000000     0.00000000000000    -0.00005963225457
    5     -0.00003344382611    -0.00000000000000     0.00000668495022
    6     -0.00000000000000    -0.00003344382611     0.00000668495022
    7      0.00000000000000     0.00003344382611     0.00000668495022
    8      0.00003344382611     0.00000000000000     0.00000668495022
    9     -0.00000000000000    -0.00000000000000    -0.00001037721403
 frms,max,avg= 1.8410473E-05 5.9632255E-05   0.000E+00  0.000E+00 -1.879E-05 h/b

 cartesian forces (eV/Angstrom) at end:
    1      0.00000000000000    -0.00000000000000     0.00104663862061
    2     -0.00000000000000    -0.00000000000000     0.00104663862061
    3     -0.00000000000000    -0.00000000000000     0.00013173834559
    4     -0.00000000000000     0.00000000000000    -0.00306641356254
    5     -0.00171975053975    -0.00000000000001     0.00034375393289
    6     -0.00000000000001    -0.00171975053975     0.00034375393289
    7      0.00000000000001     0.00171975053975     0.00034375393286
    8      0.00171975053975     0.00000000000001     0.00034375393286
    9     -0.00000000000000    -0.00000000000000    -0.00053361775578
 frms,max,avg= 9.4670451E-04 3.0664136E-03   0.000E+00  0.000E+00 -9.661E-04 e/A
 length scales= 14.603849289000 14.603849289000 14.788943682000 bohr
              =  7.728024201422  7.728024201422  7.825971935635 angstroms
 prteigrs : about to open file Cs2TiI6o_DS1_EIG
 Fermi (or HOMO) energy (hartree) =  -0.01165   Average Vxc (hartree)=  -0.28488
 Eigenvalues (hartree) for nkpt= 163  k points:
 kpt#   1, nband= 42, wtk=  0.00058, kpt=  0.0000  0.0000  0.0000 (reduced coord)
  -1.81451   -1.00631   -1.00631   -1.00544   -0.74607   -0.74576   -0.52680   -0.51523
  -0.51490   -0.51092   -0.51092   -0.40240   -0.26498   -0.26477   -0.26477   -0.26166
  -0.26166   -0.26130   -0.14453   -0.12299   -0.11438   -0.11369   -0.10983   -0.10983
  -0.10162   -0.10162   -0.09337   -0.07030   -0.06657   -0.06657   -0.05680   -0.05680
  -0.04997   -0.02872   -0.01165   -0.01165    0.08589    0.08589    0.09089    0.16000
   0.17812    0.18519
 prteigrs : prtvol=0 or 1, do not print more k-points.


--- !EnergyTerms
iteration_state     : {dtset: 1, }
comment             : Components of total free energy in Hartree
kinetic             :  5.85796782410155E+01
hartree             :  4.68747176423642E+01
xc                  : -5.42063578320955E+01
Ewald energy        : -1.19671945073910E+02
psp_core            :  7.17196738242414E+00
local_psp           : -1.56290637805667E+02
spherical_terms     :  4.12193629763111E+01
total_energy        : -1.76323214469558E+02
total_energy_eV     : -4.79799867236024E+03
...


--- !EnergyTermsDC
iteration_state     : {dtset: 1, }
comment             : '"Double-counting" decomposition of free energy'
band_energy         : -2.47221995264022E+01
Ewald energy        : -1.19671945073910E+02
psp_core            :  7.17196738242414E+00
xc_dc               : -5.59061671814381E+01
spherical_terms     :  1.68051174046397E+01
total_energy_dc     : -1.76323226994687E+02
total_energy_dc_eV  : -4.79799901318633E+03
...


 Cartesian components of stress tensor (hartree/bohr^3)
  sigma(1 1)= -3.90779922E-06  sigma(3 2)= -2.53377933E-14
  sigma(2 2)= -3.90779922E-06  sigma(3 1)= -2.53372612E-14
  sigma(3 3)= -3.93780503E-06  sigma(2 1)=  4.93973828E-14

-Cartesian components of stress tensor (GPa)         [Pressure=  1.1527E-01 GPa]
- sigma(1 1)= -1.14971403E-01  sigma(3 2)= -7.45463490E-10
- sigma(2 2)= -1.14971403E-01  sigma(3 1)= -7.45447836E-10
- sigma(3 3)= -1.15854204E-01  sigma(2 1)=  1.45332093E-09

================================================================================
== DATASET  2 ==================================================================
-   mpi_nproc: 4, omp_nthreads: -1 (-1 if OMP is not activated)


--- !DatasetInfo
iteration_state: {dtset: 2, }
dimensions: {natom: 9, nkpt: 163, mband: 42, nsppol: 1, nspinor: 1, nspden: 1, mpw: 6638, }
cutoff_energies: {ecut:  16.0, pawecutdg:  40.0, }
electrons: {nelect:   7.20000000E+01, charge:   0.00000000E+00, occopt:   1.00000000E+00, tsmear:   1.00000000E-02, }
meta: {optdriver: 0, ionmov: 0, optcell: 0, iscf: 17, paral_kgb: 0, }
...

 Real(R)+Recip(G) space primitive vectors, cartesian coordinates (Bohr,Bohr^-1):
 R(1)=  0.0000000 10.3643426 10.0664101  G(1)= -0.0482423  0.0482423  0.0496701
 R(2)= 10.3643426  0.0000000 10.0664101  G(2)=  0.0482423 -0.0482423  0.0496701
 R(3)= 10.3643426 10.3643426  0.0000000  G(3)=  0.0482423  0.0482423 -0.0496701
 Unit cell volume ucvol=  2.1626594E+03 bohr^3
 Angles (23,13,12)=  5.95200145E+01  5.95200145E+01  6.09599709E+01 degrees

 Coarse grid specifications (used for wave-functions):

 getcut: wavevector=  0.0000  0.0000  0.0000  ngfft=  54  54  54
         ecut(hartree)=     16.000   => boxcut(ratio)=   2.04677

 Fine grid specifications (used for densities):

 getcut: wavevector=  0.0000  0.0000  0.0000  ngfft=  90  90  90
         ecut(hartree)=     40.000   => boxcut(ratio)=   2.15699

--- Pseudopotential description ------------------------------------------------
- pspini: atom type   1  psp file is ../../../Psps_for_tests/ATOMICDATA/Cs.GGA_PBE-JTH.xml
- pspatm: opening atomic psp file    ../../../Psps_for_tests/ATOMICDATA/Cs.GGA_PBE-JTH.xml
- pspatm : Reading pseudopotential header in XML form from ../../../Psps_for_tests/ATOMICDATA/Cs.GGA_PBE-JTH.xml
 Pseudopotential format is: paw10
 basis_size (lnmax)=  6 (lmn_size= 18), orbitals=   0   0   1   1   2   2
 Spheres core radius: rc_sph= 2.20660278
 1 radial meshes are used:
  - mesh 1: r(i)=AA*[exp(BB*(i-1))-1], size=1500 , AA= 0.15922E-03 BB= 0.87573E-02
 Shapefunction is SIN type: shapef(r)=[sin(pi*r/rshp)/(pi*r/rshp)]**2
 Radius for shape functions =  2.00394208
 mmax= 1500
 Radial grid used for partial waves is grid 1
 Radial grid used for projectors is grid 1
 Radial grid used for (t)core density is grid 1
 Radial grid used for Vloc is grid 1
 Radial grid used for pseudo valence density is grid 1
 Mesh size for Vloc has been set to 1341 to avoid numerical noise.
 Compensation charge density is not taken into account in XC energy/potential
 pspatm: atomic psp has been read  and splines computed

- pspini: atom type   2  psp file is ../../../Psps_for_tests/ATOMICDATA/I.GGA_PBE-JTH.xml
- pspatm: opening atomic psp file    ../../../Psps_for_tests/ATOMICDATA/I.GGA_PBE-JTH.xml
- pspatm : Reading pseudopotential header in XML form from ../../../Psps_for_tests/ATOMICDATA/I.GGA_PBE-JTH.xml
 Pseudopotential format is: paw10
 basis_size (lnmax)=  4 (lmn_size=  8), orbitals=   0   0   1   1
 Spheres core radius: rc_sph= 2.30022271
 1 radial meshes are used:
  - mesh 1: r(i)=AA*[exp(BB*(i-1))-1], size=2000 , AA= 0.12610E-03 BB= 0.66836E-02
 Shapefunction is SIN type: shapef(r)=[sin(pi*r/rshp)/(pi*r/rshp)]**2
 Radius for shape functions =  2.10879093
 mmax= 2000
 Radial grid used for partial waves is grid 1
 Radial grid used for projectors is grid 1
 Radial grid used for (t)core density is grid 1
 Radial grid used for Vloc is grid 1
 Radial grid used for pseudo valence density is grid 1
 Mesh size for Vloc has been set to 1792 to avoid numerical noise.
 Compensation charge density is not taken into account in XC energy/potential
 pspatm: atomic psp has been read  and splines computed

- pspini: atom type   3  psp file is ../../../Psps_for_tests/ATOMICDATA/Zr.GGA_PBE-JTH.xml
- pspatm: opening atomic psp file    ../../../Psps_for_tests/ATOMICDATA/Zr.GGA_PBE-JTH.xml
- pspatm : Reading pseudopotential header in XML form from ../../../Psps_for_tests/ATOMICDATA/Zr.GGA_PBE-JTH.xml
 Pseudopotential format is: paw10
 basis_size (lnmax)=  6 (lmn_size= 18), orbitals=   0   0   1   1   2   2
 Spheres core radius: rc_sph= 2.21000000
 1 radial meshes are used:
  - mesh 1: r(i)=AA*[exp(BB*(i-1))-1], size= 941 , AA= 0.35256E-03 BB= 0.14102E-01
 Shapefunction is BESSEL type: shapef(r,l)=aa(1,l)*jl(q(1,l)*r)+aa(2,l)*jl(q(2,l)*r)
 Radius for shape functions =  2.21000000
 mmax=  941
 Radial grid used for partial waves is grid 1
 Radial grid used for projectors is grid 1
 Radial grid used for (t)core density is grid 1
 Radial grid used for Vloc is grid 1
 Radial grid used for pseudo valence density is grid 1
 Mesh size for Vloc has been set to  777 to avoid numerical noise.
 Compensation charge density is not taken into account in XC energy/potential
 pspatm: atomic psp has been read  and splines computed

- pspini: atom type   4  psp file is ../../../Psps_for_tests/ATOMICDATA/Cl.GGA_PBE-JTH.xml
- pspatm: opening atomic psp file    ../../../Psps_for_tests/ATOMICDATA/Cl.GGA_PBE-JTH.xml
- pspatm : Reading pseudopotential header in XML form from ../../../Psps_for_tests/ATOMICDATA/Cl.GGA_PBE-JTH.xml
 Pseudopotential format is: paw10
 basis_size (lnmax)=  4 (lmn_size=  8), orbitals=   0   0   1   1
 Spheres core radius: rc_sph= 1.80315674
 1 radial meshes are used:
  - mesh 1: r(i)=AA*[exp(BB*(i-1))-1], size=1400 , AA= 0.50355E-03 BB= 0.85603E-02
 Shapefunction is SIN type: shapef(r)=[sin(pi*r/rshp)/(pi*r/rshp)]**2
 Radius for shape functions =  1.61320365
 mmax= 1400
 Radial grid used for partial waves is grid 1
 Radial grid used for projectors is grid 1
 Radial grid used for (t)core density is grid 1
 Radial grid used for Vloc is grid 1
 Radial grid used for pseudo valence density is grid 1
 Mesh size for Vloc has been set to 1238 to avoid numerical noise.
 Compensation charge density is not taken into account in XC energy/potential
 pspatm: atomic psp has been read  and splines computed

--------------------------------------------------------------------------------

_setup2: Arith. and geom. avg. npw (full set) are    6610.575    6610.564

================================================================================

--- !BeginCycle
iteration_state: {dtset: 2, }
solver: {iscf: 17, nstep: 2500, nline: 4, wfoptalg: 10, }
tolerances: {toldfe: 1.00E-08, }
...

     iter   Etot(hartree)      deltaE(h)  residm     nres2
 ETOT  1  -176.18690328510    -1.762E+02 2.170E-01 2.478E+01
 ETOT  2  -176.32382976974    -1.369E-01 2.165E-02 5.376E+00
 ETOT  3  -176.32173887485     2.091E-03 5.680E-03 1.207E+00
 ETOT  4  -176.32242410960    -6.852E-04 2.775E-03 5.380E-02
 ETOT  5  -176.32228640134     1.377E-04 1.434E-03 7.960E-03
 ETOT  6  -176.32233389389    -4.749E-05 2.110E-03 5.157E-04
 ETOT  7  -176.32233691588    -3.022E-06 8.066E-04 1.514E-04
 ETOT  8  -176.32233824408    -1.328E-06 1.231E-03 1.630E-05
 ETOT  9  -176.32233828113    -3.705E-08 7.550E-04 2.914E-06
 ETOT 10  -176.32233829084    -9.712E-09 7.818E-04 4.531E-07
 ETOT 11  -176.32233829215    -1.307E-09 4.322E-04 1.487E-07

 At SCF step   11, etot is converged : 
  for the second time, diff in etot=  1.307E-09 < toldfe=  1.000E-08

 Cartesian components of stress tensor (hartree/bohr^3)
  sigma(1 1)= -1.39426956E-05  sigma(3 2)=  1.20205029E-15
  sigma(2 2)= -1.39426956E-05  sigma(3 1)=  1.20267136E-15
  sigma(3 3)= -1.40038880E-05  sigma(2 1)= -2.33511178E-15


--- !ResultsGS
iteration_state: {dtset: 2, }
comment   : Summary of ground state results
lattice_vectors:
- [  0.0000000,  10.3643426,  10.0664101, ]
- [ 10.3643426,   0.0000000,  10.0664101, ]
- [ 10.3643426,  10.3643426,   0.0000000, ]
lattice_lengths: [  14.44826,   14.44826,   14.65739, ]
lattice_angles: [ 59.520,  59.520,  60.960, ] # degrees, (23, 13, 12)
lattice_volume:   2.1626594E+03
convergence: {deltae: -1.307E-09, res2:  1.487E-07, residm:  4.322E-04, diffor: null, }
etotal    :  -1.76322338E+02
entropy   :   0.00000000E+00
fermie    :  -4.39052723E-03
cartesian_stress_tensor: # hartree/bohr^3
- [ -1.39426956E-05,  -2.33511178E-15,   1.20267136E-15, ]
- [ -2.33511178E-15,  -1.39426956E-05,   1.20205029E-15, ]
- [  1.20267136E-15,   1.20205029E-15,  -1.40038880E-05, ]
pressure_GPa:   4.1081E-01
xred      :
- [  2.4313E-01,   2.4313E-01,   2.5687E-01, Cs]
- [  7.4313E-01,   7.4313E-01,   7.5687E-01, Cs]
- [  2.6607E-01,   2.6607E-01,   7.3393E-01,  I]
- [  7.6121E-01,   7.6121E-01,   2.3879E-01, Cl]
- [  2.2431E-01,   7.7264E-01,   7.7569E-01, Cl]
- [  7.7264E-01,   2.2431E-01,   7.7569E-01, Cl]
- [  2.2431E-01,   7.7264E-01,   2.2736E-01, Cl]
- [  7.7264E-01,   2.2431E-01,   2.2736E-01, Cl]
- [ -7.4356E-03,  -7.4356E-03,   7.4356E-03, Zr]
cartesian_forces: # hartree/bohr
- [  2.20765940E-22,  -2.64990289E-22,   2.60468907E-05, ]
- [ -5.52144093E-22,   5.07919743E-22,   2.60468907E-05, ]
- [ -8.36135590E-23,   3.93892093E-23,   2.20051730E-06, ]
- [ -3.58162750E-22,   3.13938400E-22,   4.57829506E-06, ]
- [  2.26374346E-06,  -7.76310084E-19,  -1.40686654E-05, ]
- [ -7.76294538E-19,   2.26374346E-06,  -1.40686654E-05, ]
- [  7.76641070E-19,  -2.26374346E-06,  -1.40686654E-05, ]
- [ -2.26374346E-06,   7.75615039E-19,  -1.40686654E-05, ]
- [ -3.08805751E-22,   2.64581402E-22,  -2.59793229E-06, ]
force_length_stats: {min:   2.20051730E-06, max:   2.60468907E-05, mean:   1.31632262E-05, }
...

 Integrated electronic density in atomic spheres:
 ------------------------------------------------
 Atom  Sphere_radius  Integrated_density
    1        2.20660          5.36395457
    2        2.20660          5.36395457
    3        2.30022          4.02568483
    4        1.80316          4.36486191
    5        1.80316          4.37007656
    6        1.80316          4.37007656
    7        1.80316          4.37007656
    8        1.80316          4.37007656
    9        2.21000          8.81774739

 PAW TEST:
 ==== Compensation charge inside spheres ============
 The following values must be close to each other ...
 Compensation charge over spherical meshes =     -5.937794241838249
 Compensation charge over fine fft grid    =     -5.937813720296368

 ==== Results concerning PAW augmentation regions ====

 Total pseudopotential strength Dij (hartree):
 Atom #  1
[...]
                       5.1089265660E+00  2.4526933680E+00  4.9154919732E+00
                       2.4526933680E+00  5.1089265660E+00  4.9154919732E+00
                       2.4247584509E-12  2.4247584509E-12 -9.2949864735E-02
           xangst10    2.5240336577E+00  2.5240336577E+00  2.3917030926E+00
                       7.5721009731E+00  7.5721009731E+00  7.2620574352E+00
                       5.0480673154E+00  5.0480673154E+00  2.7074476749E+00
                       5.0480673154E+00  5.0480673154E+00  7.2008738879E+00
                       7.6498267886E+00  5.0480673154E+00  4.8744716652E+00
                       5.0480673154E+00  7.6498267886E+00  4.8744716652E+00
                       5.0480673154E+00  2.4463078423E+00  4.8744716652E+00
                       2.4463078423E+00  5.0480673154E+00  4.8744716652E+00
                       5.5776378091E-13  5.5776378091E-13 -9.7134010076E-02
            xcart1     5.2286811821E+00  5.2286811821E+00  4.9651789350E+00
                       1.5686043546E+01  1.5686043546E+01  1.5159098026E+01
                       1.0457362364E+01  1.0457362364E+01  5.3731894661E+00
                       1.0457362364E+01  1.0457362364E+01  1.5575630571E+01
                       1.6230722902E+01  1.0457362364E+01  1.0157586944E+01
                       1.0457362364E+01  1.6230722902E+01  1.0157586944E+01
                       1.0457362364E+01  4.6840018268E+00  1.0157586944E+01
                       4.6840018268E+00  1.0457362364E+01  1.0157586944E+01
                      -1.1993960630E-12 -1.1993960630E-12 -1.5209204587E-01
            xcart2     5.1821713106E+00  5.1821713106E+00  4.8948910196E+00
                       1.5546513932E+01  1.5546513932E+01  1.4961301076E+01
                       1.0364342621E+01  1.0364342621E+01  5.3568134079E+00
                       1.0364342621E+01  1.0364342621E+01  1.5325257827E+01
                       1.6047397369E+01  1.0364342621E+01  1.0035678962E+01
                       1.0364342621E+01  1.6047397369E+01  1.0035678962E+01
                       1.0364342621E+01  4.6812878736E+00  1.0035678962E+01
                       4.6812878736E+00  1.0364342621E+01  1.0035678962E+01
                       5.2819218488E-14  5.2819218488E-14 -1.4969872547E-01
            xcart3     5.1365890173E+00  5.1365890173E+00  4.8405453007E+00
                       1.5409767052E+01  1.5409767052E+01  1.4775948280E+01
                       1.0273178035E+01  1.0273178035E+01  5.3340882022E+00
                       1.0273178035E+01  1.0273178035E+01  1.5063596513E+01
                       1.5868624733E+01  1.0273178035E+01  9.9051804153E+00
                       1.0273178035E+01  1.5868624733E+01  9.9051804153E+00
                       1.0273178035E+01  4.6777313365E+00  9.9051804153E+00
                       4.6777313365E+00  1.0273178035E+01  9.9051804153E+00
                      -1.1945741688E-12 -1.1945741688E-12 -1.5167612494E-01
            xcart4     5.0875399925E+00  5.0875399925E+00  4.7872687697E+00
                       1.5262619978E+01  1.5262619978E+01  1.4605153943E+01
                       1.0175079985E+01  1.0175079985E+01  5.3106915155E+00
                       1.0175079985E+01  1.0175079985E+01  1.4830036882E+01
                       1.5676365861E+01  1.0175079985E+01  9.7907161619E+00
                       1.0175079985E+01  1.5676365861E+01  9.7907161619E+00
                       1.0175079985E+01  4.6737941090E+00  9.7907161619E+00
                       4.6737941090E+00  1.0175079985E+01  9.7907161619E+00
                      -4.9625844456E-13 -4.9625844456E-13 -1.5293437112E-01
            xcart5     5.0387429687E+00  5.0387429687E+00  4.7339389577E+00
                       1.5116228906E+01  1.5116228906E+01  1.4433371508E+01
                       1.0077485937E+01  1.0077485937E+01  5.2844534999E+00
                       1.0077485937E+01  1.0077485937E+01  1.4594072900E+01
                       1.5486646879E+01  1.0077485937E+01  9.6761943154E+00
                       1.0077485937E+01  1.5486646879E+01  9.6761943154E+00
                       1.0077485937E+01  4.6683249960E+00  9.6761943154E+00
                       4.6683249960E+00  1.0077485937E+01  9.6761943154E+00
                      -1.8174692919E-12 -1.8174692919E-12 -1.5515372839E-01
            xcart6     4.9868329763E+00  4.9868329763E+00  4.6860876435E+00
                       1.4960498929E+01  1.4960498929E+01  1.4279074228E+01
                       9.9736659527E+00  9.9736659527E+00  5.2567742332E+00
                       9.9736659526E+00  9.9736659526E+00  1.4382984574E+01
                       1.5285145538E+01  9.9736659527E+00  9.5741649632E+00
                       9.9736659527E+00  1.5285145538E+01  9.5741649632E+00
                       9.9736659526E+00  4.6621863672E+00  9.5741649632E+00
                       4.6621863672E+00  9.9736659526E+00  9.5741649632E+00
                       2.8416655046E-12  2.8416655046E-12 -1.5768785336E-01
            xcart7     4.9358379058E+00  4.9358379058E+00  4.6371234473E+00
                       1.4807513717E+01  1.4807513717E+01  1.4120150500E+01
                       9.8716758116E+00  9.8716758116E+00  5.2249421810E+00
                       9.8716758115E+00  9.8716758115E+00  1.4163038256E+01
                       1.5088884685E+01  9.8716758116E+00  9.4704483011E+00
                       9.8716758116E+00  1.5088884685E+01  9.4704483011E+00
                       9.8716758115E+00  4.6544669377E+00  9.4704483011E+00
                       4.6544669377E+00  9.8716758115E+00  9.4704483011E+00
                       2.7690928442E-13  2.7690928442E-13 -1.6283116987E-01
            xcart8     4.8815548057E+00  4.8815548057E+00  4.5954503041E+00
                       1.4644664417E+01  1.4644664417E+01  1.3981158865E+01
                       9.7631096113E+00  9.7631096113E+00  5.1909925745E+00
                       9.7631096116E+00  9.7631096116E+00  1.3969058478E+01
                       1.4880598397E+01  9.7631096113E+00  9.3793816013E+00
                       9.7631096113E+00  1.4880598397E+01  9.3793816013E+00
                       9.7631096116E+00  4.6456208257E+00  9.3793816013E+00
                       4.6456208257E+00  9.7631096116E+00  9.3793816013E+00
                      -4.4644135808E-12 -4.4644135808E-12 -1.6851814092E-01
            xcart9     4.8272360215E+00  4.8272360215E+00  4.5548173450E+00
                       1.4481708064E+01  1.4481708064E+01  1.3843348271E+01
                       9.6544720431E+00  9.6544720431E+00  5.1546123399E+00
                       9.6544720429E+00  9.6544720429E+00  1.3775384692E+01
                       1.4674025332E+01  9.6544720431E+00  9.2889336377E+00
                       9.6544720431E+00  1.4674025332E+01  9.2889336377E+00
                       9.6544720428E+00  4.6349187535E+00  9.2889336377E+00
                       4.6349187535E+00  9.6544720428E+00  9.2889336377E+00
                       4.5821294106E-12  4.5821294106E-12 -1.7564978844E-01
            xcart10    4.7697323632E+00  4.7697323632E+00  4.5196638361E+00
                       1.4309197090E+01  1.4309197090E+01  1.3723299714E+01
                       9.5394647265E+00  9.5394647265E+00  5.1163346247E+00
                       9.5394647265E+00  9.5394647265E+00  1.3607679566E+01
                       1.4456077594E+01  9.5394647265E+00  9.2114164898E+00
                       9.5394647265E+00  1.4456077594E+01  9.2114164898E+00
                       9.5394647265E+00  4.6228518586E+00  9.2114164898E+00
                       4.6228518586E+00  9.5394647265E+00  9.2114164898E+00
                       1.0540207928E-12  1.0540207928E-12 -1.8355667723E-01
             xred1     2.4353631271E-01  2.4353631271E-01  2.5646368729E-01
                       7.4353631271E-01  7.4353631271E-01  7.5646368729E-01
                       2.6354875971E-01  2.6354875971E-01  7.3645124029E-01
                       7.6396675470E-01  7.6396675470E-01  2.3603324530E-01
                       2.2217508487E-01  7.7426081513E-01  7.7782491513E-01
                       7.7426081513E-01  2.2217508487E-01  7.7782491513E-01
                       2.2217508487E-01  7.7426081513E-01  2.2573918487E-01
                       7.7426081513E-01  2.2217508487E-01  2.2573918487E-01
                      -7.4599398184E-03 -7.4599398184E-03  7.4599398184E-03
             xred2     2.4312992378E-01  2.4312992378E-01  2.5687007622E-01
                       7.4312992378E-01  7.4312992378E-01  7.5687007622E-01
                       2.6607367362E-01  2.6607367362E-01  7.3392632638E-01
                       7.6120770667E-01  7.6120770667E-01  2.3879229333E-01
                       2.2430979994E-01  7.7263736449E-01  7.7569020006E-01
                       7.7263736449E-01  2.2430979994E-01  7.7569020006E-01
                       2.2430979994E-01  7.7263736449E-01  2.2736263551E-01
                       7.7263736449E-01  2.2430979994E-01  2.2736263551E-01
                      -7.4355566996E-03 -7.4355566996E-03  7.4355566996E-03
             xred3     2.4360085398E-01  2.4360085398E-01  2.5639914602E-01
                       7.4360085398E-01  7.4360085398E-01  7.5639914602E-01
                       2.6843844248E-01  2.6843844248E-01  7.3156155752E-01
                       7.5807677581E-01  7.5807677581E-01  2.4192322419E-01
                       2.2614624594E-01  7.7081184788E-01  7.7385375406E-01
                       7.7081184788E-01  2.2614624594E-01  7.7385375406E-01
                       2.2614624594E-01  7.7081184788E-01  2.2918815212E-01
                       7.7081184788E-01  2.2614624594E-01  2.2918815212E-01
                      -7.6331138890E-03 -7.6331138890E-03  7.6331138890E-03
             xred4     2.4380346099E-01  2.4380346099E-01  2.5619653901E-01
                       7.4380346099E-01  7.4380346099E-01  7.5619653901E-01
                       2.7046005437E-01  2.7046005437E-01  7.2953994563E-01
                       7.5525617891E-01  7.5525617891E-01  2.4474382109E-01
                       2.2828501791E-01  7.6894768436E-01  7.7171498209E-01
                       7.6894768436E-01  2.2828501791E-01  7.7171498209E-01
                       2.2828501791E-01  7.6894768436E-01  2.3105231564E-01
                       7.6894768436E-01  2.2828501791E-01  2.3105231564E-01
                      -7.7885597773E-03 -7.7885597773E-03  7.7885597773E-03
             xred5     2.4403174791E-01  2.4403174791E-01  2.5596825209E-01
                       7.4403174791E-01  7.4403174791E-01  7.5596825209E-01
                       2.7241044632E-01  2.7241044632E-01  7.2758955368E-01
                       7.5231580947E-01  7.5231580947E-01  2.4768419053E-01
                       2.3042359162E-01  7.6718057396E-01  7.6957640838E-01
                       7.6718057396E-01  2.3042359162E-01  7.6957640838E-01
                       2.3042359162E-01  7.6718057396E-01  2.3281942604E-01
                       7.6718057396E-01  2.3042359162E-01  2.3281942604E-01
                      -7.9980827534E-03 -7.9980827534E-03  7.9980827534E-03
             xred6     2.4424550176E-01  2.4424550176E-01  2.5575449824E-01
                       7.4424550176E-01  7.4424550176E-01  7.5575449824E-01
                       2.7399049226E-01  2.7399049226E-01  7.2600950774E-01
                       7.4966145562E-01  7.4966145562E-01  2.5033854438E-01
                       2.3274380090E-01  7.6529418014E-01  7.6725619910E-01
                       7.6529418014E-01  2.3274380090E-01  7.6725619910E-01
                       2.3274380090E-01  7.6529418014E-01  2.3470581986E-01
                       7.6529418014E-01  2.3274380090E-01  2.3470581986E-01
                      -8.2189134722E-03 -8.2189134722E-03  8.2189134722E-03
             xred7     2.4449595165E-01  2.4449595165E-01  2.5550404835E-01
                       7.4449595165E-01  7.4449595165E-01  7.5550404835E-01
                       2.7548915300E-01  2.7548915300E-01  7.2451084700E-01
                       7.4675724205E-01  7.4675724205E-01  2.5324275795E-01
                       2.3508534683E-01  7.6358820424E-01  7.6491465317E-01
                       7.6358820424E-01  2.3508534683E-01  7.6491465317E-01
                       2.3508534683E-01  7.6358820424E-01  2.3641179576E-01
                       7.6358820424E-01  2.3508534683E-01  2.3641179576E-01
                      -8.5854004724E-03 -8.5854004724E-03  8.5854004724E-03
             xred8     2.4481104833E-01  2.4481104833E-01  2.5518895167E-01
                       7.4481104833E-01  7.4481104833E-01  7.5518895167E-01
                       2.7653706382E-01  2.7653706382E-01  7.2346293618E-01
                       7.4416643066E-01  7.4416643066E-01  2.5583356934E-01
                       2.3758001512E-01  7.6174587921E-01  7.6241998488E-01
                       7.6174587921E-01  2.3758001512E-01  7.6241998488E-01
                       2.3758001512E-01  7.6174587921E-01  2.3825412079E-01
                       7.6174587921E-01  2.3758001512E-01  2.3825412079E-01
                      -8.9773798022E-03 -8.9773798022E-03  8.9773798022E-03
             xred9     2.4518502340E-01  2.4518502340E-01  2.5481497660E-01
                       7.4518502340E-01  7.4518502340E-01  7.5481497660E-01
                       2.7747188338E-01  2.7747188338E-01  7.2252811662E-01
                       7.4152655576E-01  7.4152655576E-01  2.5847344424E-01
                       2.4006166831E-01  7.5998168746E-01  7.5993833169E-01
                       7.5998168746E-01  2.4006166831E-01  7.5993833169E-01
                       2.4006166831E-01  7.5998168746E-01  2.4001831254E-01
                       7.5998168746E-01  2.4006166831E-01  2.4001831254E-01
                      -9.4551974813E-03 -9.4551974813E-03  9.4551974813E-03
             xred10    2.4553686696E-01  2.4553686696E-01  2.5446313304E-01
                       7.4553686696E-01  7.4553686696E-01  7.5446313304E-01
                       2.7795181669E-01  2.7795181669E-01  7.2204818331E-01
                       7.3925564562E-01  7.3925564562E-01  2.6074435438E-01
                       2.4272412069E-01  7.5812126391E-01  7.5727587931E-01
                       7.5812126391E-01  2.4272412069E-01  7.5727587931E-01
                       2.4272412069E-01  7.5812126391E-01  2.4187873609E-01
                       7.5812126391E-01  2.4272412069E-01  2.4187873609E-01
                      -9.9719654097E-03 -9.9719654097E-03  9.9719654097E-03
            znucl       55.00000   53.00000   40.00000   17.00000

================================================================================


- Timing analysis has been suppressed with timopt=0



================================================================================

 Suggested references for the acknowledgment of ABINIT usage.

 The users of ABINIT have little formal obligations with respect to the ABINIT group
 (those specified in the GNU General Public License, http://www.gnu.org/copyleft/gpl.txt).
 However, it is common practice in the scientific literature,
 to acknowledge the efforts of people that have made the research possible.
 In this spirit, please find below suggested citations of work written by ABINIT developers,
 corresponding to implementations inside of ABINIT that you have used in the present run.
 Note also that it will be of great value to readers of publications presenting these results,
 to read papers enabling them to understand the theoretical formalism and details
 of the ABINIT implementation.
 For information on why they are suggested, see also https://docs.abinit.org/theory/acknowledgments.
-
- [1] Implementation of the Projector Augmented-Wave Method in the ABINIT code.
- M. Torrent, F. Jollet, F. Bottin, G. Zerah, and X. Gonze Comput. Mat. Science 42, 337, (2008).
- Comment: PAW calculations. Strong suggestion to cite this paper.
- DOI and bibtex: see https://docs.abinit.org/theory/bibliography/#torrent2008
-
- [2] Libxc: A library of exchange and correlation functionals for density functional theory.
- M.A.L. Marques, M.J.T. Oliveira, T. Burnus, Computer Physics Communications 183, 2227 (2012).
- Comment: to be cited when LibXC is used (negative value of ixc)
- Strong suggestion to cite this paper.
- DOI and bibtex: see https://docs.abinit.org/theory/bibliography/#marques2012
-
- [3] The Abinit project: Impact, environment and recent developments.
- Computer Phys. Comm. 248, 107042 (2020).
- X.Gonze, B. Amadon, G. Antonius, F.Arnardi, L.Baguet, J.-M.Beuken,
- J.Bieder, F.Bottin, J.Bouchet, E.Bousquet, N.Brouwer, F.Bruneval,
- G.Brunin, T.Cavignac, J.-B. Charraud, Wei Chen, M.Cote, S.Cottenier,
- J.Denier, G.Geneste, Ph.Ghosez, M.Giantomassi, Y.Gillet, O.Gingras,
- D.R.Hamann, G.Hautier, Xu He, N.Helbig, N.Holzwarth, Y.Jia, F.Jollet,
- W.Lafargue-Dit-Hauret, K.Lejaeghere, M.A.L.Marques, A.Martin, C.Martins,
- H.P.C. Miranda, F.Naccarato, K. Persson, G.Petretto, V.Planes, Y.Pouillon,
- S.Prokhorenko, F.Ricci, G.-M.Rignanese, A.H.Romero, M.M.Schmitt, M.Torrent,
- M.J.van Setten, B.Van Troeye, M.J.Verstraete, G.Zerah and J.W.Zwanzig
- Comment: the fifth generic paper describing the ABINIT project.
- Note that a version of this paper, that is not formatted for Computer Phys. Comm. 
- is available at https://www.abinit.org/sites/default/files/ABINIT20.pdf .
- The licence allows the authors to put it on the Web.
- DOI and bibtex: see https://docs.abinit.org/theory/bibliography/#gonze2020
-
- [4] ABINIT: Overview, and focus on selected capabilities
- J. Chem. Phys. 152, 124102 (2020).
- A. Romero, D.C. Allan, B. Amadon, G. Antonius, T. Applencourt, L.Baguet,
- J.Bieder, F.Bottin, J.Bouchet, E.Bousquet, F.Bruneval,
- G.Brunin, D.Caliste, M.Cote,
- J.Denier, C. Dreyer, Ph.Ghosez, M.Giantomassi, Y.Gillet, O.Gingras,
- D.R.Hamann, G.Hautier, F.Jollet, G. Jomard,
- A.Martin, 
- H.P.C. Miranda, F.Naccarato, G.Petretto, N.A. Pike, V.Planes,
- S.Prokhorenko, T. Rangel, F.Ricci, G.-M.Rignanese, M.Royo, M.Stengel, M.Torrent,
- M.J.van Setten, B.Van Troeye, M.J.Verstraete, J.Wiktor, J.W.Zwanziger, and X.Gonze.
- Comment: a global overview of ABINIT, with focus on selected capabilities .
- Note that a version of this paper, that is not formatted for J. Chem. Phys 
- is available at https://www.abinit.org/sites/default/files/ABINIT20_JPC.pdf .
- The licence allows the authors to put it on the Web.
- DOI and bibtex: see https://docs.abinit.org/theory/bibliography/#romero2020
-
- [5] Recent developments in the ABINIT software package.
- Computer Phys. Comm. 205, 106 (2016).
- X.Gonze, F.Jollet, F.Abreu Araujo, D.Adams, B.Amadon, T.Applencourt,
- C.Audouze, J.-M.Beuken, J.Bieder, A.Bokhanchuk, E.Bousquet, F.Bruneval
- D.Caliste, M.Cote, F.Dahm, F.Da Pieve, M.Delaveau, M.Di Gennaro,
- B.Dorado, C.Espejo, G.Geneste, L.Genovese, A.Gerossier, M.Giantomassi,
- Y.Gillet, D.R.Hamann, L.He, G.Jomard, J.Laflamme Janssen, S.Le Roux,
- A.Levitt, A.Lherbier, F.Liu, I.Lukacevic, A.Martin, C.Martins,
- M.J.T.Oliveira, S.Ponce, Y.Pouillon, T.Rangel, G.-M.Rignanese,
- A.H.Romero, B.Rousseau, O.Rubel, A.A.Shukri, M.Stankovski, M.Torrent,
- M.J.Van Setten, B.Van Troeye, M.J.Verstraete, D.Waroquier, J.Wiktor,
- B.Xu, A.Zhou, J.W.Zwanziger.
- Comment: the fourth generic paper describing the ABINIT project.
- Note that a version of this paper, that is not formatted for Computer Phys. Comm. 
- is available at https://www.abinit.org/sites/default/files/ABINIT16.pdf .
- The licence allows the authors to put it on the Web.
- DOI and bibtex: see https://docs.abinit.org/theory/bibliography/#gonze2016
-
- Proc.   0 individual time (sec): cpu=       8300.8  wall=       8313.6

================================================================================

 Calculation completed.
.Delivered   0 WARNINGs and   4 COMMENTs to log file.
+Overall time at end (sec) : cpu=      33202.7  wall=      33254.2
