
.Version 9.2.2 of ABINIT 
.(MPI version, prepared for a x86_64_linux_gnu9.3 computer) 

.Copyright (C) 1998-2020 ABINIT group . 
 ABINIT comes with ABSOLUTELY NO WARRANTY.
 It is free software, and you are welcome to redistribute it
 under certain conditions (GNU General Public License,
 see ~abinit/COPYING or http://www.gnu.org/copyleft/gpl.txt).

 ABINIT is a project of the Universite Catholique de Louvain,
 Corning Inc. and other collaborators, see ~abinit/doc/developers/contributors.txt .
 Please read https://docs.abinit.org/theory/acknowledgments for suggested
 acknowledgments of the ABINIT effort.
 For more information, see https://www.abinit.org .

.Starting date : Sun 27 Nov 2022.
- ( at 16h07 )
  
- input  file    -> Cs2TiI6.in
- output file    -> Cs2TiI6.out
- root for input  files -> Cs2TiI6i
- root for output files -> Cs2TiI6o

- inpspheads : Reading pseudopotential header in XML form from 
-   ../../../Psps_for_tests/ATOMICDATA/Cs.GGA_PBE-JTH.xml
- inpspheads : Reading pseudopotential header in XML form from 
-   ../../../Psps_for_tests/ATOMICDATA/I.GGA_PBE-JTH.xml
- inpspheads : Reading pseudopotential header in XML form from 
-   ../../../Psps_for_tests/ATOMICDATA/Zr.GGA_PBE-JTH.xml
- inpspheads : Reading pseudopotential header in XML form from 
-   ../../../Psps_for_tests/ATOMICDATA/Br.GGA_PBE-JTH.xml

 DATASET    1 : space group Fm m 2 (# 42); Bravais oF (face-center ortho.)
================================================================================
 Values of the parameters that define the memory need for DATASET  1.
     intxc =       0    ionmov =       0      iscf =      17    lmnmax =      18
     lnmax =       6     mgfft =      54  mpssoang =       3    mqgrid =    3356
     natom =       9  nloc_mem =       2    nspden =       1   nspinor =       1
    nsppol =       1      nsym =       4    n1xccc =       1    ntypat =       4
    occopt =       1   xclevel =       2
-    mband =          42        mffmem =           1         mkmem =          47
       mpw =        6536          nfft =      157464          nkpt =         280
Pmy_natom=         2
 PAW method is used; the additional fine FFT grid is defined by:
   mgfftf=        90    nfftf =    729000
================================================================================
P This job should need less than                     424.322 Mbytes of memory.
  Rough estimation (10% accuracy) of disk space for files :
_ WF disk file :   1172.844 Mbytes ; DEN or POT disk file :      5.564 Mbytes.
================================================================================


 DATASET    2 : space group Fm m 2 (# 42); Bravais oF (face-center ortho.)
================================================================================
 Values of the parameters that define the memory need for DATASET  2.
     intxc =       0    ionmov =       0      iscf =      17    lmnmax =      18
     lnmax =       6     mgfft =      54  mpssoang =       3    mqgrid =    3355
     natom =       9  nloc_mem =       2    nspden =       1   nspinor =       1
    nsppol =       1      nsym =       4    n1xccc =       1    ntypat =       4
    occopt =       1   xclevel =       2
-    mband =          42        mffmem =           1         mkmem =          47
       mpw =        6523          nfft =      157464          nkpt =         280
Pmy_natom=         2
 PAW method is used; the additional fine FFT grid is defined by:
   mgfftf=        90    nfftf =    729000
================================================================================
P This job should need less than                     423.888 Mbytes of memory.
  Rough estimation (10% accuracy) of disk space for files :
_ WF disk file :   1170.511 Mbytes ; DEN or POT disk file :      5.564 Mbytes.
================================================================================


 DATASET    3 : space group Fm m 2 (# 42); Bravais oF (face-center ortho.)
================================================================================
 Values of the parameters that define the memory need for DATASET  3.
     intxc =       0    ionmov =       0      iscf =      17    lmnmax =      18
     lnmax =       6     mgfft =      54  mpssoang =       3    mqgrid =    3353
     natom =       9  nloc_mem =       2    nspden =       1   nspinor =       1
    nsppol =       1      nsym =       4    n1xccc =       1    ntypat =       4
    occopt =       1   xclevel =       2
-    mband =          42        mffmem =           1         mkmem =          47
       mpw =        6518          nfft =      157464          nkpt =         280
Pmy_natom=         2
 PAW method is used; the additional fine FFT grid is defined by:
   mgfftf=        90    nfftf =    729000
================================================================================
P This job should need less than                     423.725 Mbytes of memory.
  Rough estimation (10% accuracy) of disk space for files :
_ WF disk file :   1169.614 Mbytes ; DEN or POT disk file :      5.564 Mbytes.
================================================================================


 DATASET    4 : space group Fm m 2 (# 42); Bravais oF (face-center ortho.)
================================================================================
 Values of the parameters that define the memory need for DATASET  4.
     intxc =       0    ionmov =       0      iscf =      17    lmnmax =      18
     lnmax =       6     mgfft =      54  mpssoang =       3    mqgrid =    3351
     natom =       9  nloc_mem =       2    nspden =       1   nspinor =       1
    nsppol =       1      nsym =       4    n1xccc =       1    ntypat =       4
    occopt =       1   xclevel =       2
-    mband =          42        mffmem =           1         mkmem =          47
       mpw =        6507          nfft =      157464          nkpt =         280
Pmy_natom=         2
 PAW method is used; the additional fine FFT grid is defined by:
   mgfftf=        90    nfftf =    729000
================================================================================
P This job should need less than                     423.359 Mbytes of memory.
  Rough estimation (10% accuracy) of disk space for files :
_ WF disk file :   1167.640 Mbytes ; DEN or POT disk file :      5.564 Mbytes.
================================================================================


 DATASET    5 : space group Fm m 2 (# 42); Bravais oF (face-center ortho.)
================================================================================
 Values of the parameters that define the memory need for DATASET  5.
     intxc =       0    ionmov =       0      iscf =      17    lmnmax =      18
     lnmax =       6     mgfft =      54  mpssoang =       3    mqgrid =    3350
     natom =       9  nloc_mem =       2    nspden =       1   nspinor =       1
    nsppol =       1      nsym =       4    n1xccc =       1    ntypat =       4
    occopt =       1   xclevel =       2
-    mband =          42        mffmem =           1         mkmem =          47
       mpw =        6500          nfft =      157464          nkpt =         280
Pmy_natom=         2
 PAW method is used; the additional fine FFT grid is defined by:
   mgfftf=        90    nfftf =    729000
================================================================================
P This job should need less than                     423.128 Mbytes of memory.
  Rough estimation (10% accuracy) of disk space for files :
_ WF disk file :   1166.384 Mbytes ; DEN or POT disk file :      5.564 Mbytes.
================================================================================


 DATASET    6 : space group Fm m 2 (# 42); Bravais oF (face-center ortho.)
================================================================================
 Values of the parameters that define the memory need for DATASET  6.
     intxc =       0    ionmov =       0      iscf =      17    lmnmax =      18
     lnmax =       6     mgfft =      54  mpssoang =       3    mqgrid =    3348
     natom =       9  nloc_mem =       2    nspden =       1   nspinor =       1
    nsppol =       1      nsym =       4    n1xccc =       1    ntypat =       4
    occopt =       1   xclevel =       2
-    mband =          42        mffmem =           1         mkmem =          47
       mpw =        6492          nfft =      157464          nkpt =         280
Pmy_natom=         2
 PAW method is used; the additional fine FFT grid is defined by:
   mgfftf=        90    nfftf =    729000
================================================================================
P This job should need less than                     422.863 Mbytes of memory.
  Rough estimation (10% accuracy) of disk space for files :
_ WF disk file :   1164.948 Mbytes ; DEN or POT disk file :      5.564 Mbytes.
================================================================================


 DATASET    7 : space group Fm m 2 (# 42); Bravais oF (face-center ortho.)
================================================================================
 Values of the parameters that define the memory need for DATASET  7.
     intxc =       0    ionmov =       0      iscf =      17    lmnmax =      18
     lnmax =       6     mgfft =      54  mpssoang =       3    mqgrid =    3346
     natom =       9  nloc_mem =       2    nspden =       1   nspinor =       1
    nsppol =       1      nsym =       4    n1xccc =       1    ntypat =       4
    occopt =       1   xclevel =       2
-    mband =          42        mffmem =           1         mkmem =          47
       mpw =        6492          nfft =      157464          nkpt =         280
Pmy_natom=         2
 PAW method is used; the additional fine FFT grid is defined by:
   mgfftf=        90    nfftf =    729000
================================================================================
P This job should need less than                     422.870 Mbytes of memory.
  Rough estimation (10% accuracy) of disk space for files :
_ WF disk file :   1164.948 Mbytes ; DEN or POT disk file :      5.564 Mbytes.
================================================================================


 DATASET    8 : space group Fm m 2 (# 42); Bravais oF (face-center ortho.)
================================================================================
 Values of the parameters that define the memory need for DATASET  8.
     intxc =       0    ionmov =       0      iscf =      17    lmnmax =      18
     lnmax =       6     mgfft =      54  mpssoang =       3    mqgrid =    3345
     natom =       9  nloc_mem =       2    nspden =       1   nspinor =       1
    nsppol =       1      nsym =       4    n1xccc =       1    ntypat =       4
    occopt =       1   xclevel =       2
-    mband =          42        mffmem =           1         mkmem =          47
       mpw =        6492          nfft =      157464          nkpt =         280
Pmy_natom=         2
 PAW method is used; the additional fine FFT grid is defined by:
   mgfftf=        90    nfftf =    729000
================================================================================
P This job should need less than                     422.876 Mbytes of memory.
  Rough estimation (10% accuracy) of disk space for files :
_ WF disk file :   1164.948 Mbytes ; DEN or POT disk file :      5.564 Mbytes.
================================================================================


 DATASET    9 : space group Fm m 2 (# 42); Bravais oF (face-center ortho.)
================================================================================
 Values of the parameters that define the memory need for DATASET  9.
     intxc =       0    ionmov =       0      iscf =      17    lmnmax =      18
     lnmax =       6     mgfft =      54  mpssoang =       3    mqgrid =    3343
     natom =       9  nloc_mem =       2    nspden =       1   nspinor =       1
    nsppol =       1      nsym =       4    n1xccc =       1    ntypat =       4
    occopt =       1   xclevel =       2
-    mband =          42        mffmem =           1         mkmem =          47
       mpw =        6474          nfft =      157464          nkpt =         280
Pmy_natom=         2
 PAW method is used; the additional fine FFT grid is defined by:
   mgfftf=        90    nfftf =    729000
================================================================================
P This job should need less than                     422.273 Mbytes of memory.
  Rough estimation (10% accuracy) of disk space for files :
_ WF disk file :   1161.718 Mbytes ; DEN or POT disk file :      5.564 Mbytes.
================================================================================


 DATASET   10 : space group Fm m 2 (# 42); Bravais oF (face-center ortho.)
================================================================================
 Values of the parameters that define the memory need for DATASET 10.
     intxc =       0    ionmov =       0      iscf =      17    lmnmax =      18
     lnmax =       6     mgfft =      54  mpssoang =       3    mqgrid =    3341
     natom =       9  nloc_mem =       2    nspden =       1   nspinor =       1
    nsppol =       1      nsym =       4    n1xccc =       1    ntypat =       4
    occopt =       1   xclevel =       2
-    mband =          42        mffmem =           1         mkmem =          47
       mpw =        6456          nfft =      157464          nkpt =         280
Pmy_natom=         2
 PAW method is used; the additional fine FFT grid is defined by:
   mgfftf=        90    nfftf =    729000
================================================================================
P This job should need less than                     421.669 Mbytes of memory.
  Rough estimation (10% accuracy) of disk space for files :
_ WF disk file :   1158.488 Mbytes ; DEN or POT disk file :      5.564 Mbytes.
================================================================================

--------------------------------------------------------------------------------
------------- Echo of variables that govern the present computation ------------
--------------------------------------------------------------------------------
-
- outvars: echo of selected default values                                      
-   iomode0 =  0 , fftalg0 =112 , wfoptalg0 = 10
-
- outvars: echo of global parameters not present in the input file              
-  max_nthreads =    0
-
 -outvars: echo values of preprocessed input variables --------
            acell1     1.4568087619E+01  1.4381330249E+01  1.4371018966E+01 Bohr
            acell2     1.4560826401E+01  1.4373899828E+01  1.4364155654E+01 Bohr
            acell3     1.4553926899E+01  1.4366576162E+01  1.4356858660E+01 Bohr
            acell4     1.4547360504E+01  1.4358558397E+01  1.4349951629E+01 Bohr
            acell5     1.4540267078E+01  1.4351035913E+01  1.4343028422E+01 Bohr
            acell6     1.4533665616E+01  1.4343219575E+01  1.4335953138E+01 Bohr
            acell7     1.4527328885E+01  1.4335353951E+01  1.4328688063E+01 Bohr
            acell8     1.4520253641E+01  1.4328048394E+01  1.4321532542E+01 Bohr
            acell9     1.4513146510E+01  1.4320615562E+01  1.4314532793E+01 Bohr
            acell10    1.4506174765E+01  1.4313210370E+01  1.4307383163E+01 Bohr
              amu      1.32905430E+02  1.26904470E+02  9.12240000E+01
                       7.99040000E+01
           diemac      1.20000000E+01
             ecut      1.60000000E+01 Hartree
-          fftalg         112
           istwfk        2    0    0    0    0    0    3    0    0    0
                         0    0    0    0    0    0    0    0    0    0
                         0    0    0    0    0    0    0    0    0    0
                         0    0    0    0    0    0    0    0    0    0
                         0    0    7    0    0    0    0    0    0    0
                       outvar_i_n : Printing only first  50 k-points.
              ixc     -101130
           jdtset        1    2    3    4    5    6    7    8    9   10
              kpt      0.00000000E+00  0.00000000E+00  0.00000000E+00
                       8.33333333E-02  0.00000000E+00  0.00000000E+00
                       1.66666667E-01  0.00000000E+00  0.00000000E+00
                       2.50000000E-01  0.00000000E+00  0.00000000E+00
                       3.33333333E-01  0.00000000E+00  0.00000000E+00
                       4.16666667E-01  0.00000000E+00  0.00000000E+00
                       5.00000000E-01  0.00000000E+00  0.00000000E+00
                       8.33333333E-02  8.33333333E-02  0.00000000E+00
                       1.66666667E-01  8.33333333E-02  0.00000000E+00
                       2.50000000E-01  8.33333333E-02  0.00000000E+00
                       3.33333333E-01  8.33333333E-02  0.00000000E+00
                       4.16666667E-01  8.33333333E-02  0.00000000E+00
                       5.00000000E-01  8.33333333E-02  0.00000000E+00
                      -4.16666667E-01  8.33333333E-02  0.00000000E+00
                      -3.33333333E-01  8.33333333E-02  0.00000000E+00
                      -2.50000000E-01  8.33333333E-02  0.00000000E+00
                      -1.66666667E-01  8.33333333E-02  0.00000000E+00
                      -8.33333333E-02  8.33333333E-02  0.00000000E+00
                       1.66666667E-01  1.66666667E-01  0.00000000E+00
                       2.50000000E-01  1.66666667E-01  0.00000000E+00
                       3.33333333E-01  1.66666667E-01  0.00000000E+00
                       4.16666667E-01  1.66666667E-01  0.00000000E+00
                       5.00000000E-01  1.66666667E-01  0.00000000E+00
                      -4.16666667E-01  1.66666667E-01  0.00000000E+00
                      -3.33333333E-01  1.66666667E-01  0.00000000E+00
                      -2.50000000E-01  1.66666667E-01  0.00000000E+00
                      -1.66666667E-01  1.66666667E-01  0.00000000E+00
                       2.50000000E-01  2.50000000E-01  0.00000000E+00
                       3.33333333E-01  2.50000000E-01  0.00000000E+00
                       4.16666667E-01  2.50000000E-01  0.00000000E+00
                       5.00000000E-01  2.50000000E-01  0.00000000E+00
                      -4.16666667E-01  2.50000000E-01  0.00000000E+00
                      -3.33333333E-01  2.50000000E-01  0.00000000E+00
                      -2.50000000E-01  2.50000000E-01  0.00000000E+00
                       3.33333333E-01  3.33333333E-01  0.00000000E+00
                       4.16666667E-01  3.33333333E-01  0.00000000E+00
                       5.00000000E-01  3.33333333E-01  0.00000000E+00
                      -4.16666667E-01  3.33333333E-01  0.00000000E+00
                      -3.33333333E-01  3.33333333E-01  0.00000000E+00
                       4.16666667E-01  4.16666667E-01  0.00000000E+00
                       5.00000000E-01  4.16666667E-01  0.00000000E+00
                      -4.16666667E-01  4.16666667E-01  0.00000000E+00
                       5.00000000E-01  5.00000000E-01  0.00000000E+00
                       8.33333333E-02  0.00000000E+00  8.33333333E-02
                       1.66666667E-01  0.00000000E+00  8.33333333E-02
                       2.50000000E-01  0.00000000E+00  8.33333333E-02
                       3.33333333E-01  0.00000000E+00  8.33333333E-02
                       4.16666667E-01  0.00000000E+00  8.33333333E-02
                       5.00000000E-01  0.00000000E+00  8.33333333E-02
                      -4.16666667E-01  0.00000000E+00  8.33333333E-02
                       outvar_i_n : Printing only first  50 k-points.
         kptrlatt       12    0    0      0   12    0      0    0   12
          kptrlen1     1.72452228E+02
          kptrlen2     1.72369868E+02
          kptrlen3     1.72282304E+02
          kptrlen4     1.72199420E+02
          kptrlen5     1.72116341E+02
          kptrlen6     1.72031438E+02
          kptrlen7     1.71944257E+02
          kptrlen8     1.71858391E+02
          kptrlen9     1.71774394E+02
          kptrlen10    1.71688598E+02
P           mkmem          47
            natom           9
            nband          42
           ndtset          10
            ngfft          54      54      54
          ngfftdg          90      90      90
             nkpt         280
            nstep        2500
             nsym           4
           ntypat           4
              occ      2.000000  2.000000  2.000000  2.000000  2.000000  2.000000
                       2.000000  2.000000  2.000000  2.000000  2.000000  2.000000
                       2.000000  2.000000  2.000000  2.000000  2.000000  2.000000
                       2.000000  2.000000  2.000000  2.000000  2.000000  2.000000
                       2.000000  2.000000  2.000000  2.000000  2.000000  2.000000
                       2.000000  2.000000  2.000000  2.000000  2.000000  2.000000
                       0.000000  0.000000  0.000000  0.000000  0.000000  0.000000
        pawecutdg      4.00000000E+01 Hartree
            prtwf           0
            rprim1     0.0000000000E+00  7.0661271207E-01  7.0760050533E-01
                       6.9728964458E-01  0.0000000000E+00  7.1678947506E-01
                       6.9778995363E-01  7.1630243656E-01  0.0000000000E+00
            rprim2     0.0000000000E+00  7.0663966081E-01  7.0757359318E-01
                       6.9730422328E-01  0.0000000000E+00  7.1677529268E-01
                       6.9777725166E-01  7.1631481003E-01  0.0000000000E+00
            rprim3     0.0000000000E+00  7.0664073521E-01  7.0757252020E-01
                       6.9727904401E-01  0.0000000000E+00  7.1679978710E-01
                       6.9775100033E-01  7.1634038106E-01  0.0000000000E+00
            rprim4     0.0000000000E+00  7.0669386280E-01  7.0751945859E-01
                       6.9725548682E-01  0.0000000000E+00  7.1682270200E-01
                       6.9767368452E-01  7.1641568236E-01  0.0000000000E+00
            rprim5     0.0000000000E+00  7.0672244011E-01  7.0749091347E-01
                       6.9725845992E-01  0.0000000000E+00  7.1681981004E-01
                       6.9764772853E-01  7.1644095840E-01  0.0000000000E+00
            rprim6     0.0000000000E+00  7.0675788200E-01  7.0745550830E-01
                       6.9722850811E-01  0.0000000000E+00  7.1684894328E-01
                       6.9758191097E-01  7.1650504359E-01  0.0000000000E+00
            rprim7     0.0000000000E+00  7.0678661369E-01  7.0742680378E-01
                       6.9717553790E-01  0.0000000000E+00  7.1690045987E-01
                       6.9749987282E-01  7.1658490593E-01  0.0000000000E+00
            rprim8     0.0000000000E+00  7.0679367459E-01  7.0741974920E-01
                       6.9716622907E-01  0.0000000000E+00  7.1690951246E-01
                       6.9748341800E-01  7.1660092215E-01  0.0000000000E+00
            rprim9     0.0000000000E+00  7.0681435086E-01  7.0739909063E-01
                       6.9716614846E-01  0.0000000000E+00  7.1690959085E-01
                       6.9746239987E-01  7.1662137895E-01  0.0000000000E+00
            rprim10    0.0000000000E+00  7.0682651264E-01  7.0738693869E-01
                       6.9715172414E-01  0.0000000000E+00  7.1692361764E-01
                       6.9743566477E-01  7.1664739831E-01  0.0000000000E+00
          spgroup          42
           symrel1     1  0  0   0  1  0   0  0  1       0  1 -1   0  1  0  -1  1  0
                       1  0  0   1  0 -1   1 -1  0       0  1 -1   1  0 -1   0  0 -1
           symrel2     1  0  0   0  1  0   0  0  1       1  0  0   1  0 -1   1 -1  0
                       0  1 -1   0  1  0  -1  1  0       0  1 -1   1  0 -1   0  0 -1
           symrel3     1  0  0   0  1  0   0  0  1       1  0  0   1  0 -1   1 -1  0
                       0  1 -1   0  1  0  -1  1  0       0  1 -1   1  0 -1   0  0 -1
           symrel4     1  0  0   0  1  0   0  0  1       0  1 -1   0  1  0  -1  1  0
                       1  0  0   1  0 -1   1 -1  0       0  1 -1   1  0 -1   0  0 -1
           symrel5     1  0  0   0  1  0   0  0  1       1  0  0   1  0 -1   1 -1  0
                       0  1 -1   0  1  0  -1  1  0       0  1 -1   1  0 -1   0  0 -1
           symrel6     1  0  0   0  1  0   0  0  1       1  0  0   1  0 -1   1 -1  0
                       0  1 -1   0  1  0  -1  1  0       0  1 -1   1  0 -1   0  0 -1
           symrel7     1  0  0   0  1  0   0  0  1       1  0  0   1  0 -1   1 -1  0
                       0  1 -1   0  1  0  -1  1  0       0  1 -1   1  0 -1   0  0 -1
           symrel8     1  0  0   0  1  0   0  0  1       1  0  0   1  0 -1   1 -1  0
                       0  1 -1   0  1  0  -1  1  0       0  1 -1   1  0 -1   0  0 -1
           symrel9     1  0  0   0  1  0   0  0  1       1  0  0   1  0 -1   1 -1  0
                       0  1 -1   0  1  0  -1  1  0       0  1 -1   1  0 -1   0  0 -1
           symrel10    1  0  0   0  1  0   0  0  1       1  0  0   1  0 -1   1 -1  0
                       0  1 -1   0  1  0  -1  1  0       0  1 -1   1  0 -1   0  0 -1
           toldfe      1.00000000E-08 Hartree
            typat      1  1  4  2  4  2  2  4  3
           useylm           1
              wtk        0.00058    0.00463    0.00463    0.00463    0.00463    0.00463
                         0.00231    0.00116    0.00463    0.00463    0.00463    0.00463
                         0.00463    0.00463    0.00463    0.00463    0.00463    0.00231
                         0.00116    0.00463    0.00463    0.00463    0.00463    0.00463
                         0.00463    0.00463    0.00231    0.00116    0.00463    0.00463
                         0.00463    0.00463    0.00463    0.00231    0.00116    0.00463
                         0.00463    0.00463    0.00231    0.00116    0.00463    0.00231
                         0.00058    0.00116    0.00463    0.00463    0.00463    0.00463
                         0.00463    0.00463
                       outvars : Printing only first  50 k-points.
           xangst1     2.6532819977E+00  2.7236740082E+00  2.7329346516E+00
                       7.9598459931E+00  8.1710220247E+00  8.1878976650E+00
                       5.3065639954E+00  5.4473480164E+00  2.6852897377E+00
                       5.3065639954E+00  5.4473480166E+00  8.1388818462E+00
                       8.0096552809E+00  5.4473480164E+00  5.4696740809E+00
                       5.3065639954E+00  8.0573175518E+00  5.4395359314E+00
                       5.3065639954E+00  2.8373784812E+00  5.4395359312E+00
                       2.6034727099E+00  5.4473480166E+00  5.4696740811E+00
                       4.3746048610E-14  3.4749849610E-12  7.6280182537E-02
           xangst2     2.6519665682E+00  2.7224202623E+00  2.7313508934E+00
                       7.9558997045E+00  8.1672607870E+00  8.1833876076E+00
                       5.3039331363E+00  5.4448405246E+00  2.6851510150E+00
                       5.3039331364E+00  5.4448405247E+00  8.1338630537E+00
                       8.0047180722E+00  5.4448405246E+00  5.4665316765E+00
                       5.3039331363E+00  8.0528618915E+00  5.4364862592E+00
                       5.3039331364E+00  2.8368191578E+00  5.4364862592E+00
                       2.6031482005E+00  5.4448405247E+00  5.4665316765E+00
                       1.4981104444E-12  2.1518486264E-12  7.6505272308E-02
           xangst3     2.6505196487E+00  2.7211344080E+00  2.7299032751E+00
                       7.9515589461E+00  8.1634032239E+00  8.1793483324E+00
                       5.3010392974E+00  5.4422688159E+00  2.6850671671E+00
                       5.3010392975E+00  5.4422688161E+00  8.1293812812E+00
                       7.9992501106E+00  5.4422688159E+00  5.4638699671E+00
                       5.3010392974E+00  8.0483332573E+00  5.4337298979E+00
                       5.3010392975E+00  2.8362043746E+00  5.4337298978E+00
                       2.6028284842E+00  5.4422688161E+00  5.4638699673E+00
                       1.2089186549E-12  2.8771895613E-12  7.6660672530E-02
           xangst4     2.6489509382E+00  2.7201111868E+00  2.7284070142E+00
                       7.9468528147E+00  8.1603335604E+00  8.1749849326E+00
                       5.2979018765E+00  5.4402223736E+00  2.6850008050E+00
                       5.2979018764E+00  5.4402223736E+00  8.1243569606E+00
                       7.9932832114E+00  5.4402223736E+00  5.4607774391E+00
                       5.2979018765E+00  8.0447890084E+00  5.4307328510E+00
                       5.2979018764E+00  2.8356557388E+00  5.4307328508E+00
                       2.6025205415E+00  5.4402223736E+00  5.4607774392E+00
                      -2.0704523472E-12 -2.6550012912E-14  7.6853055415E-02
           xangst5     2.6475744355E+00  2.7188947780E+00  2.7267786097E+00
                       7.9427233064E+00  8.1566843340E+00  8.1704810902E+00
                       5.2951488709E+00  5.4377895560E+00  2.6848866277E+00
                       5.2951488709E+00  5.4377895560E+00  8.1193830017E+00
                       7.9880989741E+00  5.4377895560E+00  5.4577739294E+00
                       5.2951488709E+00  8.0405074031E+00  5.4277390590E+00
                       5.2951488709E+00  2.8350717089E+00  5.4277390590E+00
                       2.6021987677E+00  5.4377895560E+00  5.4577739294E+00
                       3.9502893134E-13  7.4590715101E-13  7.7064538235E-02
           xangst6     2.6460187568E+00  2.7177966557E+00  2.7252318223E+00
                       7.9380562704E+00  8.1533899671E+00  8.1661904971E+00
                       5.2920375136E+00  5.4355933113E+00  2.6848535752E+00
                       5.2920375136E+00  5.4355933114E+00  8.1146628988E+00
                       7.9822672670E+00  5.4355933113E+00  5.4548469582E+00
                       5.2920375136E+00  8.0367629742E+00  5.4248680759E+00
                       5.2920375136E+00  2.8344236485E+00  5.4248680759E+00
                       2.6018077602E+00  5.4355933114E+00  5.4548469583E+00
                       7.1043887619E-13  1.5543569806E-12  7.7300537050E-02
           xangst7     2.6443668021E+00  2.7167221243E+00  2.7239093115E+00
                       7.9331004063E+00  8.1501663729E+00  8.1622750415E+00
                       5.2887336042E+00  5.4334442485E+00  2.6845195824E+00
                       5.2887336042E+00  5.4334442487E+00  8.1100212391E+00
                       7.9759415093E+00  5.4334442485E+00  5.4522101474E+00
                       5.2887336042E+00  8.0329879696E+00  5.4222772615E+00
                       5.2887336042E+00  2.8339005276E+00  5.4222772614E+00
                       2.6015256991E+00  5.4334442487E+00  5.4522101476E+00
                       5.8373767789E-13  3.2496275571E-12  7.7225847963E-02
           xangst8     2.6429838945E+00  2.7154261266E+00  2.7224145615E+00
                       7.9289516836E+00  8.1462783797E+00  8.1580774388E+00
                       5.2859677890E+00  5.4308522530E+00  2.6845913882E+00
                       5.2859677891E+00  5.4308522532E+00  8.1054215042E+00
                       7.9707220152E+00  5.4308522530E+00  5.4492539834E+00
                       5.2859677890E+00  8.0284547592E+00  5.4193390779E+00
                       5.2859677891E+00  2.8332497471E+00  5.4193390778E+00
                       2.6012135629E+00  5.4308522532E+00  5.4492539835E+00
                       1.4547126727E-12  2.6550134725E-12  7.7612003283E-02
           xangst9     2.6416125123E+00  2.7141764224E+00  2.7208623587E+00
                       7.9248375369E+00  8.1425292671E+00  8.1537060204E+00
                       5.2832250246E+00  5.4283528447E+00  2.6844385983E+00
                       5.2832250246E+00  5.4283528448E+00  8.1005387954E+00
                       7.9655697858E+00  5.4283528447E+00  5.4462975078E+00
                       5.2832250246E+00  8.0240179834E+00  5.4164111460E+00
                       5.2832250246E+00  2.8326877061E+00  5.4164111460E+00
                       2.6008802634E+00  5.4283528448E+00  5.4462975078E+00
                       4.2536564216E-13  9.7386072397E-13  7.7786213021E-02
           xangst10    2.6401919076E+00  2.7129192803E+00  2.7193957553E+00
                       7.9205757229E+00  8.1387578408E+00  8.1495363351E+00
                       5.2803838153E+00  5.4258385605E+00  2.6842585013E+00
                       5.2803838153E+00  5.4258385606E+00  8.0958935772E+00
                       7.9602538915E+00  5.4258385605E+00  5.4434612112E+00
                       5.2803838153E+00  8.0196076131E+00  5.4135898792E+00
                       5.2803838153E+00  2.8320695080E+00  5.4135898790E+00
                       2.6005137390E+00  5.4258385606E+00  5.4434612114E+00
                       6.8425164199E-14  1.9104679128E-12  7.7938288437E-02
            xcart1     5.0139763290E+00  5.1469979508E+00  5.1644980306E+00
                       1.5041928987E+01  1.5440993852E+01  1.5472884191E+01
                       1.0027952658E+01  1.0293995901E+01  5.0744621916E+00
                       1.0027952658E+01  1.0293995902E+01  1.5380257717E+01
                       1.5136054900E+01  1.0293995901E+01  1.0336186049E+01
                       1.0027952658E+01  1.5226123539E+01  1.0279233200E+01
                       1.0027952658E+01  5.3618682647E+00  1.0279233200E+01
                       4.9198504161E+00  1.0293995902E+01  1.0336186050E+01
                       8.2668051268E-14  6.5667698922E-12  1.4414865436E-01
            xcart2     5.0114905274E+00  5.1446287144E+00  5.1615051614E+00
                       1.5034471582E+01  1.5433886143E+01  1.5464361418E+01
                       1.0022981055E+01  1.0289257429E+01  5.0742000437E+00
                       1.0022981055E+01  1.0289257429E+01  1.5370773574E+01
                       1.5126724927E+01  1.0289257429E+01  1.0330247765E+01
                       1.0022981055E+01  1.5217703561E+01  1.0273470155E+01
                       1.0022981055E+01  5.3608112968E+00  1.0273470155E+01
                       4.9192371823E+00  1.0289257429E+01  1.0330247765E+01
                       2.8310184566E-12  4.0664045833E-12  1.4457401238E-01
            xcart3     5.0087562459E+00  5.1421988019E+00  5.1587695592E+00
                       1.5026268738E+01  1.5426596406E+01  1.5456728294E+01
                       1.0017512492E+01  1.0284397604E+01  5.0740415942E+00
                       1.0017512492E+01  1.0284397604E+01  1.5362304251E+01
                       1.5116391977E+01  1.0284397604E+01  1.0325217864E+01
                       1.0017512492E+01  1.5209145682E+01  1.0268261387E+01
                       1.0017512492E+01  5.3596495249E+00  1.0268261387E+01
                       4.9186330061E+00  1.0284397604E+01  1.0325217864E+01
                       2.2845251747E-12  5.4371003033E-12  1.4486767624E-01
            xcart4     5.0057918127E+00  5.1402651941E+00  5.1559420358E+00
                       1.5017375438E+01  1.5420795582E+01  1.5448482663E+01
                       1.0011583626E+01  1.0280530388E+01  5.0739161881E+00
                       1.0011583625E+01  1.0280530388E+01  1.5352809661E+01
                       1.5105116172E+01  1.0280530388E+01  1.0319373832E+01
                       1.0011583626E+01  1.5202448023E+01  1.0262597789E+01
                       1.0011583625E+01  5.3586127535E+00  1.0262597789E+01
                       4.9180510787E+00  1.0280530388E+01  1.0319373833E+01
                      -3.9125879074E-12 -5.0172253229E-14  1.4523122721E-01
            xcart5     5.0031905995E+00  5.1379665146E+00  5.1528647974E+00
                       1.5009571798E+01  1.5413899544E+01  1.5439971634E+01
                       1.0006381199E+01  1.0275933029E+01  5.0737004241E+00
                       1.0006381199E+01  1.0275933029E+01  1.5343410241E+01
                       1.5095319383E+01  1.0275933029E+01  1.0313698022E+01
                       1.0006381199E+01  1.5194356961E+01  1.0256940342E+01
                       1.0006381199E+01  5.3575090970E+00  1.0256940342E+01
                       4.9174430143E+00  1.0275933029E+01  1.0313698022E+01
                       7.4649649479E-13  1.4095602360E-12  1.4563087182E-01
            xcart6     5.0002507928E+00  5.1358913641E+00  5.1499417928E+00
                       1.5000752379E+01  1.5407674092E+01  1.5431863588E+01
                       1.0000501586E+01  1.0271782728E+01  5.0736379641E+00
                       1.0000501586E+01  1.0271782728E+01  1.5334490539E+01
                       1.5084299054E+01  1.0271782728E+01  1.0308166848E+01
                       1.0000501586E+01  1.5187281016E+01  1.0251514971E+01
                       1.0000501586E+01  5.3562844403E+00  1.0251514970E+01
                       4.9167041172E+00  1.0271782728E+01  1.0308166848E+01
                       1.3425349102E-12  2.9373090061E-12  1.4607684495E-01
            xcart7     4.9971290508E+00  5.1338607941E+00  5.1474426095E+00
                       1.4991387153E+01  1.5401582382E+01  1.5424464450E+01
                       9.9942581017E+00  1.0267721588E+01  5.0730068091E+00
                       9.9942581017E+00  1.0267721588E+01  1.5325719074E+01
                       1.5072345105E+01  1.0267721588E+01  1.0303183998E+01
                       9.9942581017E+00  1.5180147291E+01  1.0246619041E+01
                       9.9942581017E+00  5.3552958850E+00  1.0246619041E+01
                       4.9161710989E+00  1.0267721588E+01  1.0303183998E+01
                       1.1031043447E-12  6.1409061168E-12  1.4593570303E-01
            xcart8     4.9945157343E+00  5.1314117133E+00  5.1446179415E+00
                       1.4983547203E+01  1.5394235140E+01  1.5416532130E+01
                       9.9890314685E+00  1.0262823426E+01  5.0731425023E+00
                       9.9890314687E+00  1.0262823427E+01  1.5317026835E+01
                       1.5062481690E+01  1.0262823426E+01  1.0297597657E+01
                       9.9890314685E+00  1.5171580765E+01  1.0241066679E+01
                       9.9890314687E+00  5.3540660880E+00  1.0241066678E+01
                       4.9155812471E+00  1.0262823427E+01  1.0297597657E+01
                       2.7490085535E-12  5.0172483421E-12  1.4666543083E-01
            xcart9     4.9919241974E+00  5.1290501146E+00  5.1416847033E+00
                       1.4975772592E+01  1.5387150344E+01  1.5408271347E+01
                       9.9838483949E+00  1.0258100229E+01  5.0728537713E+00
                       9.9838483949E+00  1.0258100229E+01  1.5307799852E+01
                       1.5052745388E+01  1.0258100229E+01  1.0292010728E+01
                       9.9838483949E+00  1.5163196474E+01  1.0235533689E+01
                       9.9838483949E+00  5.3530039845E+00  1.0235533689E+01
                       4.9149514022E+00  1.0258100229E+01  1.0292010728E+01
                       8.0382457002E-13  1.8403300599E-12  1.4699463952E-01
            xcart10    4.9892396437E+00  5.1266744603E+00  5.1389132245E+00
                       1.4967718931E+01  1.5380023381E+01  1.5400391783E+01
                       9.9784792874E+00  1.0253348921E+01  5.0725134373E+00
                       9.9784792874E+00  1.0253348921E+01  1.5299021662E+01
                       1.5042699803E+01  1.0253348921E+01  1.0286650904E+01
                       9.9784792874E+00  1.5154862082E+01  1.0230202267E+01
                       9.9784792874E+00  5.3518357594E+00  1.0230202267E+01
                       4.9142587716E+00  1.0253348921E+01  1.0286650904E+01
                       1.2930482093E-13  3.6102611409E-12  1.4728202041E-01
             xred1     2.5049983335E-01  2.5049983335E-01  2.4950016665E-01
                       7.5049983335E-01  7.5049983335E-01  7.4950016665E-01
                       2.4613271722E-01  2.4613271722E-01  7.5386728278E-01
                       7.4600706056E-01  7.4600706056E-01  2.5399293944E-01
                       2.4665523434E-01  7.5604158827E-01  7.5334476566E-01
                       7.3814927752E-01  2.5902264059E-01  7.4097735941E-01
                       2.5902264059E-01  7.3814927752E-01  2.6185072248E-01
                       7.5604158827E-01  2.4665523434E-01  2.4395841173E-01
                       6.9918148253E-03  6.9918148253E-03 -6.9918148253E-03
             xred2     2.5048904076E-01  2.5048904076E-01  2.4951095924E-01
                       7.5048904076E-01  7.5048904076E-01  7.4951095924E-01
                       2.4625210318E-01  2.4625210318E-01  7.5374789682E-01
                       7.4594720103E-01  7.4594720103E-01  2.5405279897E-01
                       2.4672722512E-01  7.5593140745E-01  7.5327277488E-01
                       7.3806862894E-01  2.5907914247E-01  7.4092085753E-01
                       2.5907914247E-01  7.3806862894E-01  2.6193137106E-01
                       7.5593140745E-01  2.4672722512E-01  2.4406859255E-01
                       7.0162103008E-03  7.0162103008E-03 -7.0162103008E-03
             xred3     2.5047534624E-01  2.5047534624E-01  2.4952465376E-01
                       7.5047534624E-01  7.5047534624E-01  7.4952465376E-01
                       2.4636152295E-01  2.4636152295E-01  7.5363847705E-01
                       7.4589074628E-01  7.4589074628E-01  2.5410925372E-01
                       2.4682523662E-01  7.5582180537E-01  7.5317476338E-01
                       7.3798622086E-01  2.5912997001E-01  7.4087002999E-01
                       2.5912997001E-01  7.3798622086E-01  2.6201377914E-01
                       7.5582180537E-01  2.4682523662E-01  2.4417819463E-01
                       7.0338054356E-03  7.0338054356E-03 -7.0338054356E-03
             xred4     2.5046984134E-01  2.5046984134E-01  2.4953015866E-01
                       7.5046984134E-01  7.5046984134E-01  7.4953015866E-01
                       2.4648511829E-01  2.4648511829E-01  7.5351488171E-01
                       7.4582215496E-01  7.4582215496E-01  2.5417784504E-01
                       2.4692156601E-01  7.5568548761E-01  7.5307843399E-01
                       7.3792594115E-01  2.5916488031E-01  7.4083511969E-01
                       2.5916488031E-01  7.3792594115E-01  2.6207405885E-01
                       7.5568548761E-01  2.4692156601E-01  2.4431451239E-01
                       7.0551690039E-03  7.0551690039E-03 -7.0551690039E-03
             xred5     2.5045257520E-01  2.5045257520E-01  2.4954742480E-01
                       7.5045257520E-01  7.5045257520E-01  7.4954742480E-01
                       2.4660482799E-01  2.4660482799E-01  7.5339517201E-01
                       7.4575925400E-01  7.4575925400E-01  2.5424074600E-01
                       2.4700780691E-01  7.5557709719E-01  7.5299219309E-01
                       7.3785140435E-01  2.5921613900E-01  7.4078386100E-01
                       2.5921613900E-01  7.3785140435E-01  2.6214859565E-01
                       7.5557709719E-01  2.4700780691E-01  2.4442290281E-01
                       7.0783201792E-03  7.0783201792E-03 -7.0783201792E-03
             xred6     2.5043673231E-01  2.5043673231E-01  2.4956326769E-01
                       7.5043673231E-01  7.5043673231E-01  7.4956326769E-01
                       2.4672615027E-01  2.4672615027E-01  7.5327384973E-01
                       7.4570157428E-01  7.4570157428E-01  2.5429842572E-01
                       2.4709914746E-01  7.5545339599E-01  7.5290085254E-01
                       7.3779326220E-01  2.5924942828E-01  7.4075057172E-01
                       2.5924942828E-01  7.3779326220E-01  2.6220673780E-01
                       7.5545339599E-01  2.4709914746E-01  2.4454660401E-01
                       7.1035769310E-03  7.1035769310E-03 -7.1035769310E-03
             xred7     2.5043454658E-01  2.5043454658E-01  2.4956545342E-01
                       7.5043454658E-01  7.5043454658E-01  7.4956545342E-01
                       2.4681307912E-01  2.4681307912E-01  7.5318692088E-01
                       7.4563036413E-01  7.4563036413E-01  2.5436963587E-01
                       2.4722262403E-01  7.5532307042E-01  7.5277737597E-01
                       7.3773776757E-01  2.5930390462E-01  7.4069609538E-01
                       2.5930390462E-01  7.3773776757E-01  2.6226223243E-01
                       7.5532307042E-01  2.4722262403E-01  2.4467692958E-01
                       7.1000969590E-03  7.1000969590E-03 -7.1000969590E-03
             xred8     2.5042157902E-01  2.5042157902E-01  2.4957842098E-01
                       7.5042157902E-01  7.5042157902E-01  7.4957842098E-01
                       2.4694241059E-01  2.4694241059E-01  7.5305758941E-01
                       7.4557801754E-01  7.4557801754E-01  2.5442198246E-01
                       2.4729912118E-01  7.5520123736E-01  7.5270087882E-01
                       7.3765083573E-01  2.5934607158E-01  7.4065392842E-01
                       2.5934607158E-01  7.3765083573E-01  2.6234916427E-01
                       7.5520123736E-01  2.4729912118E-01  2.4479876264E-01
                       7.1391479783E-03  7.1391479783E-03 -7.1391479783E-03
             xred9     2.5040867437E-01  2.5040867437E-01  2.4959132563E-01
                       7.5040867437E-01  7.5040867437E-01  7.4959132563E-01
                       2.4705649246E-01  2.4705649246E-01  7.5294350754E-01
                       7.4551554397E-01  7.4551554397E-01  2.5448445603E-01
                       2.4738332960E-01  7.5509306158E-01  7.5261667040E-01
                       7.3757171650E-01  2.5940362152E-01  7.4059637848E-01
                       2.5940362152E-01  7.3757171650E-01  2.6242828350E-01
                       7.5509306158E-01  2.4738332960E-01  2.4490693842E-01
                       7.1588856468E-03  7.1588856468E-03 -7.1588856468E-03
             xred10    2.5039828301E-01  2.5039828301E-01  2.4960171699E-01
                       7.5039828301E-01  7.5039828301E-01  7.4960171699E-01
                       2.4716289218E-01  2.4716289218E-01  7.5283710782E-01
                       7.4545893042E-01  7.4545893042E-01  2.5454106958E-01
                       2.4746941652E-01  7.5498367495E-01  7.5253058348E-01
                       7.3749614326E-01  2.5945592448E-01  7.4054407552E-01
                       2.5945592448E-01  7.3749614326E-01  2.6250385674E-01
                       7.5498367495E-01  2.4746941652E-01  2.4501632505E-01
                       7.1764521832E-03  7.1764521832E-03 -7.1764521832E-03
            znucl       55.00000   53.00000   40.00000   35.00000

================================================================================

 chkinp: Checking input parameters for consistency, jdtset=   1.

 chkinp: Checking input parameters for consistency, jdtset=   2.

 chkinp: Checking input parameters for consistency, jdtset=   3.

 chkinp: Checking input parameters for consistency, jdtset=   4.

 chkinp: Checking input parameters for consistency, jdtset=   5.

 chkinp: Checking input parameters for consistency, jdtset=   6.

 chkinp: Checking input parameters for consistency, jdtset=   7.

 chkinp: Checking input parameters for consistency, jdtset=   8.

 chkinp: Checking input parameters for consistency, jdtset=   9.

 chkinp: Checking input parameters for consistency, jdtset=  10.

================================================================================
== DATASET  1 ==================================================================
-   mpi_nproc: 6, omp_nthreads: -1 (-1 if OMP is not activated)


--- !DatasetInfo
iteration_state: {dtset: 1, }
dimensions: {natom: 9, nkpt: 280, mband: 42, nsppol: 1, nspinor: 1, nspden: 1, mpw: 6536, }
cutoff_energies: {ecut:  16.0, pawecutdg:  40.0, }
electrons: {nelect:   7.20000000E+01, charge:   0.00000000E+00, occopt:   1.00000000E+00, tsmear:   1.00000000E-02, }
meta: {optdriver: 0, ionmov: 0, optcell: 0, iscf: 17, paral_kgb: 0, }
...

 Real(R)+Recip(G) space primitive vectors, cartesian coordinates (Bohr,Bohr^-1):
 R(1)=  0.0000000 10.2939959 10.3083862  G(1)= -0.0498606  0.0485720  0.0485042
 R(2)= 10.0279527  0.0000000 10.3083862  G(2)=  0.0498606 -0.0485720  0.0485042
 R(3)= 10.0279527 10.2939959  0.0000000  G(3)=  0.0498606  0.0485720 -0.0485042
 Unit cell volume ucvol=  2.1282221E+03 bohr^3
 Angles (23,13,12)=  6.08851579E+01  5.95923841E+01  5.95224580E+01 degrees

 Coarse grid specifications (used for wave-functions):

 getcut: wavevector=  0.0000  0.0000  0.0000  ngfft=  54  54  54
         ecut(hartree)=     16.000   => boxcut(ratio)=   2.05932

 Fine grid specifications (used for densities):

 getcut: wavevector=  0.0000  0.0000  0.0000  ngfft=  90  90  90
         ecut(hartree)=     40.000   => boxcut(ratio)=   2.17021

--- Pseudopotential description ------------------------------------------------
- pspini: atom type   1  psp file is ../../../Psps_for_tests/ATOMICDATA/Cs.GGA_PBE-JTH.xml
- pspatm: opening atomic psp file    ../../../Psps_for_tests/ATOMICDATA/Cs.GGA_PBE-JTH.xml
- pspatm : Reading pseudopotential header in XML form from ../../../Psps_for_tests/ATOMICDATA/Cs.GGA_PBE-JTH.xml
 Pseudopotential format is: paw10
 basis_size (lnmax)=  6 (lmn_size= 18), orbitals=   0   0   1   1   2   2
 Spheres core radius: rc_sph= 2.20660278
 1 radial meshes are used:
  - mesh 1: r(i)=AA*[exp(BB*(i-1))-1], size=1500 , AA= 0.15922E-03 BB= 0.87573E-02
 Shapefunction is SIN type: shapef(r)=[sin(pi*r/rshp)/(pi*r/rshp)]**2
 Radius for shape functions =  2.00394208
 mmax= 1500
 Radial grid used for partial waves is grid 1
 Radial grid used for projectors is grid 1
 Radial grid used for (t)core density is grid 1
 Radial grid used for Vloc is grid 1
 Radial grid used for pseudo valence density is grid 1
 Mesh size for Vloc has been set to 1341 to avoid numerical noise.
 Compensation charge density is not taken into account in XC energy/potential
 pspatm: atomic psp has been read  and splines computed

- pspini: atom type   2  psp file is ../../../Psps_for_tests/ATOMICDATA/I.GGA_PBE-JTH.xml
- pspatm: opening atomic psp file    ../../../Psps_for_tests/ATOMICDATA/I.GGA_PBE-JTH.xml
- pspatm : Reading pseudopotential header in XML form from ../../../Psps_for_tests/ATOMICDATA/I.GGA_PBE-JTH.xml
 Pseudopotential format is: paw10
 basis_size (lnmax)=  4 (lmn_size=  8), orbitals=   0   0   1   1
 Spheres core radius: rc_sph= 2.30022271
 1 radial meshes are used:
  - mesh 1: r(i)=AA*[exp(BB*(i-1))-1], size=2000 , AA= 0.12610E-03 BB= 0.66836E-02
 Shapefunction is SIN type: shapef(r)=[sin(pi*r/rshp)/(pi*r/rshp)]**2
 Radius for shape functions =  2.10879093
 mmax= 2000
 Radial grid used for partial waves is grid 1
 Radial grid used for projectors is grid 1
 Radial grid used for (t)core density is grid 1
 Radial grid used for Vloc is grid 1
 Radial grid used for pseudo valence density is grid 1
 Mesh size for Vloc has been set to 1792 to avoid numerical noise.
 Compensation charge density is not taken into account in XC energy/potential
 pspatm: atomic psp has been read  and splines computed

- pspini: atom type   3  psp file is ../../../Psps_for_tests/ATOMICDATA/Zr.GGA_PBE-JTH.xml
- pspatm: opening atomic psp file    ../../../Psps_for_tests/ATOMICDATA/Zr.GGA_PBE-JTH.xml
- pspatm : Reading pseudopotential header in XML form from ../../../Psps_for_tests/ATOMICDATA/Zr.GGA_PBE-JTH.xml
 Pseudopotential format is: paw10
 basis_size (lnmax)=  6 (lmn_size= 18), orbitals=   0   0   1   1   2   2
 Spheres core radius: rc_sph= 2.21000000
 1 radial meshes are used:
  - mesh 1: r(i)=AA*[exp(BB*(i-1))-1], size= 941 , AA= 0.35256E-03 BB= 0.14102E-01
 Shapefunction is BESSEL type: shapef(r,l)=aa(1,l)*jl(q(1,l)*r)+aa(2,l)*jl(q(2,l)*r)
 Radius for shape functions =  2.21000000
 mmax=  941
 Radial grid used for partial waves is grid 1
 Radial grid used for projectors is grid 1
 Radial grid used for (t)core density is grid 1
 Radial grid used for Vloc is grid 1
 Radial grid used for pseudo valence density is grid 1
 Mesh size for Vloc has been set to  777 to avoid numerical noise.
 Compensation charge density is not taken into account in XC energy/potential
 pspatm: atomic psp has been read  and splines computed

- pspini: atom type   4  psp file is ../../../Psps_for_tests/ATOMICDATA/Br.GGA_PBE-JTH.xml
- pspatm: opening atomic psp file    ../../../Psps_for_tests/ATOMICDATA/Br.GGA_PBE-JTH.xml
- pspatm : Reading pseudopotential header in XML form from ../../../Psps_for_tests/ATOMICDATA/Br.GGA_PBE-JTH.xml
 Pseudopotential format is: paw10
 basis_size (lnmax)=  4 (lmn_size=  8), orbitals=   0   0   1   1
 Spheres core radius: rc_sph= 2.20000000
 1 radial meshes are used:
  - mesh 1: r(i)=AA*[exp(BB*(i-1))-1], size= 927 , AA= 0.40483E-03 BB= 0.14169E-01
 Shapefunction is BESSEL type: shapef(r,l)=aa(1,l)*jl(q(1,l)*r)+aa(2,l)*jl(q(2,l)*r)
 Radius for shape functions =  2.02066386
 mmax=  927
 Radial grid used for partial waves is grid 1
 Radial grid used for projectors is grid 1
 Radial grid used for (t)core density is grid 1
 Radial grid used for Vloc is grid 1
 Radial grid used for pseudo valence density is grid 1
 Mesh size for Vloc has been set to  763 to avoid numerical noise.
 Compensation charge density is not taken into account in XC energy/potential
 pspatm: atomic psp has been read  and splines computed

   3.31466423E+04                                ecore*ucvol(ha*bohr**3)
--------------------------------------------------------------------------------

_setup2: Arith. and geom. avg. npw (full set) are    6505.896    6505.886

================================================================================

--- !BeginCycle
iteration_state: {dtset: 1, }
solver: {iscf: 17, nstep: 2500, nline: 4, wfoptalg: 10, }
tolerances: {toldfe: 1.00E-08, }
...

     iter   Etot(hartree)      deltaE(h)  residm     nres2
 ETOT  1  -164.46547008909    -1.645E+02 2.404E-01 1.881E+01
 ETOT  2  -164.67943209871    -2.140E-01 1.628E-02 5.066E+00
 ETOT  3  -164.67538184156     4.050E-03 6.185E-03 1.060E+00
 ETOT  4  -164.67607597032    -6.941E-04 3.563E-03 7.722E-02
 ETOT  5  -164.67569442453     3.815E-04 2.006E-03 6.172E-03
 ETOT  6  -164.67574286348    -4.844E-05 1.283E-03 8.100E-04
 ETOT  7  -164.67574202595     8.375E-07 9.356E-04 1.766E-04
 ETOT  8  -164.67574339749    -1.372E-06 1.217E-03 3.325E-05
 ETOT  9  -164.67574339017     7.319E-09 7.985E-04 1.060E-05
 ETOT 10  -164.67574345802    -6.785E-08 5.461E-04 1.192E-06
 ETOT 11  -164.67574346870    -1.068E-08 3.238E-04 1.111E-06
 ETOT 12  -164.67574346636     2.335E-09 2.674E-04 1.878E-07
 ETOT 13  -164.67574346683    -4.689E-10 1.106E-04 3.454E-08

 At SCF step   13, etot is converged : 
  for the second time, diff in etot=  4.689E-10 < toldfe=  1.000E-08

 Cartesian components of stress tensor (hartree/bohr^3)
  sigma(1 1)= -1.22402781E-04  sigma(3 2)= -6.95120884E-13
  sigma(2 2)= -1.22384252E-04  sigma(3 1)=  3.72928387E-13
  sigma(3 3)= -1.22366044E-04  sigma(2 1)=  3.41109264E-13


--- !ResultsGS
iteration_state: {dtset: 1, }
comment   : Summary of ground state results
lattice_vectors:
- [  0.0000000,  10.2939959,  10.3083862, ]
- [ 10.0279527,   0.0000000,  10.3083862, ]
- [ 10.0279527,  10.2939959,   0.0000000, ]
lattice_lengths: [  14.56809,   14.38133,   14.37102, ]
lattice_angles: [ 60.885,  59.592,  59.522, ] # degrees, (23, 13, 12)
lattice_volume:   2.1282221E+03
convergence: {deltae: -4.689E-10, res2:  3.454E-08, residm:  1.106E-04, diffor: null, }
etotal    :  -1.64675743E+02
entropy   :   0.00000000E+00
fermie    :  -3.31604275E-02
cartesian_stress_tensor: # hartree/bohr^3
- [ -1.22402781E-04,   3.41109264E-13,   3.72928387E-13, ]
- [  3.41109264E-13,  -1.22384252E-04,  -6.95120884E-13, ]
- [  3.72928387E-13,  -6.95120884E-13,  -1.22366044E-04, ]
pressure_GPa:   3.6007E+00
xred      :
- [  2.5050E-01,   2.5050E-01,   2.4950E-01, Cs]
- [  7.5050E-01,   7.5050E-01,   7.4950E-01, Cs]
- [  2.4613E-01,   2.4613E-01,   7.5387E-01, Br]
- [  7.4601E-01,   7.4601E-01,   2.5399E-01,  I]
- [  2.4666E-01,   7.5604E-01,   7.5334E-01, Br]
- [  7.3815E-01,   2.5902E-01,   7.4098E-01,  I]
- [  2.5902E-01,   7.3815E-01,   2.6185E-01,  I]
- [  7.5604E-01,   2.4666E-01,   2.4396E-01, Br]
- [  6.9918E-03,   6.9918E-03,  -6.9918E-03, Zr]
cartesian_forces: # hartree/bohr
- [ -3.56035963E-16,   3.46834436E-16,  -6.79472321E-06, ]
- [ -3.56035662E-16,   3.46834071E-16,  -6.79472321E-06, ]
- [ -5.68281065E-16,   5.53594374E-16,  -1.08452911E-05, ]
- [  8.55554740E-16,  -8.33443467E-16,   1.63276978E-05, ]
- [ -1.18578072E-06,  -1.19464077E-18,   1.00663937E-08, ]
- [ -1.89604807E-16,  -1.03333591E-05,   5.61656187E-06, ]
- [  7.78206150E-16,   1.03333591E-05,   5.61656187E-06, ]
- [  1.18578072E-06,   1.66980970E-19,   1.00663937E-08, ]
- [ -1.64858238E-16,   1.60597721E-16,  -3.14621682E-06, ]
force_length_stats: {min:   1.18582345E-06, max:   1.63276978E-05, mean:   7.75583893E-06, }
...

 Integrated electronic density in atomic spheres:
 ------------------------------------------------
 Atom  Sphere_radius  Integrated_density
    1        2.20660          5.37914070
    2        2.20660          5.37914070
    3        2.20000          4.94256253
    4        2.30022          4.04475532
    5        2.20000          4.94265208
    6        2.30022          4.03355662
    7        2.30022          4.03355662
    8        2.20000          4.94265208
    9        2.21000          8.85945425

 PAW TEST:
 ==== Compensation charge inside spheres ============
 The following values must be close to each other ...
 Compensation charge over spherical meshes =     -5.049843555062907
 Compensation charge over fine fft grid    =     -5.049843593389133

 ==== Results concerning PAW augmentation regions ====

 Total pseudopotential strength Dij (hartree):
 Atom #  1
   0.42626  -0.14123   0.00000  -0.00000   0.00000   0.00000   0.00000   0.00000   0.00000   0.00000  -0.00000   0.00000 ...
  -0.14123   0.04246   0.00000   0.00000   0.00000   0.00000  -0.00000   0.00000  -0.00000   0.00000   0.00000   0.00000 ...
   0.00000   0.00000  -0.09184   0.00000  -0.00000  -0.16762   0.00000  -0.00000   0.00000  -0.00000   0.00000  -0.00000 ...
  -0.00000   0.00000   0.00000  -0.09184   0.00000   0.00000  -0.16762   0.00000  -0.00000   0.00000  -0.00000   0.00000 ...
   0.00000   0.00000  -0.00000   0.00000  -0.09184  -0.00000   0.00000  -0.16762   0.00000  -0.00000   0.00000  -0.00000 ...
   0.00000   0.00000  -0.16762   0.00000  -0.00000   0.39981   0.00000   0.00001   0.00000   0.00000   0.00000   0.00000 ...
   0.00000  -0.00000   0.00000  -0.16762   0.00000   0.00000   0.39981   0.00000   0.00000   0.00000   0.00000   0.00000 ...
   0.00000   0.00000  -0.00000   0.00000  -0.16762   0.00001   0.00000   0.39981   0.00000   0.00000   0.00000   0.00000 ...
   0.00000  -0.00000   0.00000  -0.00000   0.00000   0.00000   0.00000   0.00000   0.00547   0.00000  -0.00000   0.00000 ...
   0.00000   0.00000  -0.00000   0.00000  -0.00000   0.00000   0.00000   0.00000   0.00000   0.00547   0.00000   0.00000 ...
  -0.00000   0.00000   0.00000  -0.00000   0.00000   0.00000   0.00000   0.00000  -0.00000   0.00000   0.00547   0.00000 ...
   0.00000   0.00000  -0.00000   0.00000  -0.00000   0.00000   0.00000   0.00000   0.00000   0.00000   0.00000   0.00547 ...
   ...  only 12  components have been written...
 Atom #  9
   3.06481  -0.89242   0.00000  -0.00003   0.00000   0.00000   0.00000   0.00000   0.00000   0.00000  -0.00001   0.00000 ...
  -0.89242   0.26662   0.00000   0.00001   0.00000   0.00000  -0.00000   0.00000   0.00000   0.00000   0.00000   0.00000 ...
   0.00000   0.00000   0.27250   0.00000   0.00000  -0.05556   0.00000   0.00000   0.00000   0.00006   0.00000   0.00000 ...
  -0.00003   0.00001   0.00000   0.27254   0.00000   0.00000  -0.05557   0.00000   0.00000   0.00000   0.00007   0.00000 ...
   0.00000   0.00000   0.00000   0.00000   0.27259   0.00000   0.00000  -0.05557   0.00000   0.00000   0.00000   0.00006 ...
   0.00000   0.00000  -0.05556   0.00000   0.00000   0.01519   0.00000   0.00000   0.00000  -0.00001   0.00000   0.00000 ...
   0.00000  -0.00000   0.00000  -0.05557   0.00000   0.00000   0.01519   0.00000   0.00000   0.00000  -0.00001   0.00000 ...
   0.00000   0.00000   0.00000   0.00000  -0.05557   0.00000   0.00000   0.01520   0.00000   0.00000   0.00000  -0.00001 ...
   0.00000   0.00000   0.00000   0.00000   0.00000   0.00000   0.00000   0.00000  -0.01009   0.00000   0.00000   0.00000 ...
   0.00000   0.00000   0.00006   0.00000   0.00000  -0.00001   0.00000   0.00000   0.00000  -0.01011   0.00000   0.00000 ...
  -0.00001   0.00000   0.00000   0.00007   0.00000   0.00000  -0.00001   0.00000   0.00000   0.00000  -0.01002   0.00000 ...
   0.00000   0.00000   0.00000   0.00000   0.00006   0.00000   0.00000  -0.00001   0.00000   0.00000   0.00000  -0.01009 ...
   ...  only 12  components have been written...


 Augmentation waves occupancies Rhoij:
 Atom #  1
   1.99874  -0.01226   0.00000  -0.00001   0.00000   0.00000  -0.00001   0.00000   0.00243   0.00000  -0.00023   0.00000 ...
  -0.01226   0.20684   0.00000  -0.00068   0.00000   0.00000   0.00003   0.00000  -0.01999   0.00000  -0.00001   0.00000 ...
   0.00000   0.00000   2.00681   0.00000  -0.00161  -0.00464   0.00000   0.00027   0.00000   0.00099   0.00000  -0.00215 ...
  -0.00001  -0.00068   0.00000   2.00811   0.00000   0.00000  -0.00487   0.00000  -0.00220   0.00000  -0.00056   0.00000 ...
   0.00000   0.00000  -0.00161   0.00000   2.00864   0.00027   0.00000  -0.00502   0.00000  -0.00205   0.00000  -0.00136 ...
   0.00000   0.00000  -0.00464   0.00000   0.00027   0.00013   0.00000  -0.00002   0.00000  -0.00008   0.00000   0.00008 ...
  -0.00001   0.00003   0.00000  -0.00487   0.00000   0.00000   0.00016   0.00000   0.00008   0.00000   0.00003   0.00000 ...
   0.00000   0.00000   0.00027   0.00000  -0.00502  -0.00002   0.00000   0.00017   0.00000   0.00007   0.00000   0.00007 ...
   0.00243  -0.01999   0.00000  -0.00220   0.00000   0.00000   0.00008   0.00000   0.07780   0.00000   0.01609   0.00000 ...
   0.00000   0.00000   0.00099   0.00000  -0.00205  -0.00008   0.00000   0.00007   0.00000   0.04913   0.00000  -0.00008 ...
  -0.00023  -0.00001   0.00000  -0.00056   0.00000   0.00000   0.00003   0.00000   0.01609   0.00000   0.05255   0.00000 ...
   0.00000   0.00000  -0.00215   0.00000  -0.00136   0.00008   0.00000   0.00007   0.00000  -0.00008   0.00000   0.09783 ...
   ...  only 12  components have been written...
 Atom #  9
   1.99374  -0.06184   0.00000   0.00049   0.00000   0.00000   0.00199   0.00000   0.00000   0.00000  -0.00013   0.00000 ...
  -0.06184   1.07095   0.00000  -0.00035   0.00000   0.00000   0.01310   0.00000   0.00000   0.00000  -0.00639   0.00000 ...
   0.00000   0.00000   1.97040   0.00000   0.00000  -0.17793   0.00000   0.00000   0.00000   0.00341   0.00000   0.00000 ...
   0.00049  -0.00035   0.00000   1.96980   0.00000   0.00000  -0.18304   0.00000   0.00000   0.00000   0.00089   0.00000 ...
   0.00000   0.00000   0.00000   0.00000   1.96889   0.00000   0.00000  -0.18890   0.00000   0.00000   0.00000   0.00337 ...
   0.00000   0.00000  -0.17793   0.00000   0.00000   1.55448   0.00000   0.00000   0.00000  -0.05575   0.00000   0.00000 ...
   0.00199   0.01310   0.00000  -0.18304   0.00000   0.00000   1.63341   0.00000   0.00000   0.00000   0.07811   0.00000 ...
   0.00000   0.00000   0.00000   0.00000  -0.18890   0.00000   0.00000   1.75107   0.00000   0.00000   0.00000  -0.04545 ...
   0.00000   0.00000   0.00000   0.00000   0.00000   0.00000   0.00000   0.00000   0.50756   0.00000   0.00000   0.00000 ...
   0.00000   0.00000   0.00341   0.00000   0.00000  -0.05575   0.00000   0.00000   0.00000   0.49877   0.00000   0.00000 ...
  -0.00013  -0.00639   0.00000   0.00089   0.00000   0.00000   0.07811   0.00000   0.00000   0.00000   1.44053   0.00000 ...
   0.00000   0.00000   0.00000   0.00000   0.00337   0.00000   0.00000  -0.04545   0.00000   0.00000   0.00000   0.51098 ...
   ...  only 12  components have been written...


================================================================================

 ----iterations are completed or convergence reached----

 Mean square residual over all n,k,spin=   20.483E-08; max=  11.057E-05
 reduced coordinates (array xred) for    9 atoms
       0.250499833350      0.250499833350      0.249500166650
       0.750499833350      0.750499833350      0.749500166650
       0.246132717220      0.246132717220      0.753867282780
       0.746007060560      0.746007060560      0.253992939440
       0.246655234340      0.756041588270      0.753344765660
       0.738149277520      0.259022640590      0.740977359410
       0.259022640590      0.738149277520      0.261850722480
       0.756041588270      0.246655234340      0.243958411730
       0.006991814825      0.006991814825     -0.006991814825
 rms dE/dt=  8.0804E-05; max dE/dt=  1.0637E-04; dE/dt below (all hartree)
    1       0.000042482591      0.000042482591     -0.000000000000
    2       0.000042482591      0.000042482591      0.000000000000
    3       0.000084237409      0.000084237409     -0.000000000000
    4      -0.000195872254     -0.000195872254     -0.000000000000
    5      -0.000027663808     -0.000015772855      0.000011890953
    6       0.000020913827     -0.000085457729      0.000106371556
    7      -0.000191829284     -0.000085457729     -0.000106371556
    8      -0.000027663808     -0.000039554761     -0.000011890953
    9       0.000004872378      0.000004872378     -0.000000000000

 cartesian coordinates (angstrom) at end:
    1      2.65328199769192     2.72367400824034     2.73293465158061
    2      7.95984599307577     8.17102202472052     8.18789766499334
    3      5.30656399538226     5.44734801635401     2.68528973765175
    4      5.30656399538538     5.44734801660245     8.13888184619911
    5      8.00965528088864     5.44734801635427     5.46967408086238
    6      5.30656399538234     8.05731755180294     5.43953593143711
    7      5.30656399538533     2.83737848115602     5.43953593117066
    8      2.60347270987906     5.44734801660744     5.46967408114566
    9      0.00000000000004     0.00000000000347     0.07628018253728

 cartesian forces (hartree/bohr) at end:
    1     -0.00000000000000     0.00000000000000    -0.00000679472321
    2     -0.00000000000000     0.00000000000000    -0.00000679472321
    3     -0.00000000000000     0.00000000000000    -0.00001084529112
    4      0.00000000000000    -0.00000000000000     0.00001632769783
    5     -0.00000118578072    -0.00000000000000     0.00000001006639
    6     -0.00000000000000    -0.00001033335906     0.00000561656187
    7      0.00000000000000     0.00001033335905     0.00000561656187
    8      0.00000118578072     0.00000000000000     0.00000001006639
    9     -0.00000000000000     0.00000000000000    -0.00000314621682
 frms,max,avg= 5.3260706E-06 1.6327698E-05   0.000E+00  0.000E+00  2.674E-06 h/b

 cartesian forces (eV/Angstrom) at end:
    1     -0.00000000000002     0.00000000000002    -0.00034939868607
    2     -0.00000000000002     0.00000000000002    -0.00034939868607
    3     -0.00000000000003     0.00000000000003    -0.00055768724523
    4      0.00000000000004    -0.00000000000004     0.00083960390944
    5     -0.00006097529127    -0.00000000000000     0.00000051763473
    6     -0.00000000000001    -0.00053136264232     0.00028881519922
    7      0.00000000000004     0.00053136264229     0.00028881519917
    8      0.00006097529127     0.00000000000000     0.00000051763473
    9     -0.00000000000001     0.00000000000001    -0.00016178495993
 frms,max,avg= 2.7387754E-04 8.3960391E-04   0.000E+00  0.000E+00  1.375E-04 e/A
 length scales= 14.568087619000 14.381330249000 14.371018966000 bohr
              =  7.709099940717  7.610272196977  7.604815701022 angstroms
 prteigrs : about to open file Cs2TiI6o_DS1_EIG
 Fermi (or HOMO) energy (hartree) =  -0.03316   Average Vxc (hartree)=  -0.32146
 Eigenvalues (hartree) for nkpt= 280  k points:
 kpt#   1, nband= 42, wtk=  0.00058, kpt=  0.0000  0.0000  0.0000 (reduced coord)
  -1.85432   -1.04677   -1.04609   -1.04538   -0.78484   -0.78431   -0.56185   -0.55174
  -0.54931   -0.46988   -0.45960   -0.45274   -0.31118   -0.30908   -0.30826   -0.30451
  -0.30444   -0.30391   -0.19887   -0.14777   -0.14669   -0.14329   -0.14320   -0.14301
  -0.13650   -0.13606   -0.11543   -0.09500   -0.08884   -0.08681   -0.06135   -0.05529
  -0.05017   -0.04904   -0.04778   -0.03316    0.02324    0.02699    0.03070    0.11420
   0.12143    0.12382
 prteigrs : prtvol=0 or 1, do not print more k-points.


--- !EnergyTerms
iteration_state     : {dtset: 1, }
comment             : Components of total free energy in Hartree
kinetic             :  4.77078975331688E+01
hartree             :  3.13058255688703E+01
xc                  : -6.24412898706525E+01
Ewald energy        : -1.29133366446690E+02
psp_core            :  1.55748043850036E+01
local_psp           : -9.81532670839021E+01
spherical_terms     :  3.04636360531334E+01
total_energy        : -1.64675759861068E+02
total_energy_eV     : -4.48105531401671E+03
...


--- !EnergyTermsDC
iteration_state     : {dtset: 1, }
comment             : '"Double-counting" decomposition of free energy'
band_energy         : -2.68776011421476E+01
Ewald energy        : -1.29133366446690E+02
psp_core            :  1.55748043850036E+01
xc_dc               : -5.09490878045635E+01
spherical_terms     :  2.67095075415644E+01
total_energy_dc     : -1.64675743466833E+02
total_energy_dc_eV  : -4.48105486790688E+03
...


 Cartesian components of stress tensor (hartree/bohr^3)
  sigma(1 1)= -1.22402781E-04  sigma(3 2)= -6.95120884E-13
  sigma(2 2)= -1.22384252E-04  sigma(3 1)=  3.72928387E-13
  sigma(3 3)= -1.22366044E-04  sigma(2 1)=  3.41109264E-13

-Cartesian components of stress tensor (GPa)         [Pressure=  3.6007E+00 GPa]
- sigma(1 1)= -3.60121355E+00  sigma(3 2)= -2.04511591E-08
- sigma(2 2)= -3.60066839E+00  sigma(3 1)=  1.09719301E-08
- sigma(3 3)= -3.60013271E+00  sigma(2 1)=  1.00357793E-08

================================================================================
== DATASET  2 ==================================================================
-   mpi_nproc: 6, omp_nthreads: -1 (-1 if OMP is not activated)


--- !DatasetInfo
iteration_state: {dtset: 2, }
dimensions: {natom: 9, nkpt: 280, mband: 42, nsppol: 1, nspinor: 1, nspden: 1, mpw: 6523, }
cutoff_energies: {ecut:  16.0, pawecutdg:  40.0, }
electrons: {nelect:   7.20000000E+01, charge:   0.00000000E+00, occopt:   1.00000000E+00, tsmear:   1.00000000E-02, }
meta: {optdriver: 0, ionmov: 0, optcell: 0, iscf: 17, paral_kgb: 0, }
...

 Real(R)+Recip(G) space primitive vectors, cartesian coordinates (Bohr,Bohr^-1):
 R(1)=  0.0000000 10.2892574 10.3028563  G(1)= -0.0498854  0.0485944  0.0485302
 R(2)= 10.0229811  0.0000000 10.3028563  G(2)=  0.0498854 -0.0485944  0.0485302
 R(3)= 10.0229811 10.2892574  0.0000000  G(3)=  0.0498854  0.0485944 -0.0485302
 Unit cell volume ucvol=  2.1250472E+03 bohr^3
 Angles (23,13,12)=  6.08850716E+01  5.95905208E+01  5.95244076E+01 degrees

 Coarse grid specifications (used for wave-functions):

 getcut: wavevector=  0.0000  0.0000  0.0000  ngfft=  54  54  54
         ecut(hartree)=     16.000   => boxcut(ratio)=   2.06035

 Fine grid specifications (used for densities):

 getcut: wavevector=  0.0000  0.0000  0.0000  ngfft=  90  90  90
         ecut(hartree)=     40.000   => boxcut(ratio)=   2.17129

--- Pseudopotential description ------------------------------------------------
- pspini: atom type   1  psp file is ../../../Psps_for_tests/ATOMICDATA/Cs.GGA_PBE-JTH.xml
- pspatm: opening atomic psp file    ../../../Psps_for_tests/ATOMICDATA/Cs.GGA_PBE-JTH.xml
- pspatm : Reading pseudopotential header in XML form from ../../../Psps_for_tests/ATOMICDATA/Cs.GGA_PBE-JTH.xml
 Pseudopotential format is: paw10
 basis_size (lnmax)=  6 (lmn_size= 18), orbitals=   0   0   1   1   2   2
 Spheres core radius: rc_sph= 2.20660278
 1 radial meshes are used:
  - mesh 1: r(i)=AA*[exp(BB*(i-1))-1], size=1500 , AA= 0.15922E-03 BB= 0.87573E-02
 Shapefunction is SIN type: shapef(r)=[sin(pi*r/rshp)/(pi*r/rshp)]**2
 Radius for shape functions =  2.00394208
 mmax= 1500
 Radial grid used for partial waves is grid 1
 Radial grid used for projectors is grid 1
 Radial grid used for (t)core density is grid 1
 Radial grid used for Vloc is grid 1
 Radial grid used for pseudo valence density is grid 1
 Mesh size for Vloc has been set to 1341 to avoid numerical noise.
 Compensation charge density is not taken into account in XC energy/potential
 pspatm: atomic psp has been read  and splines computed

- pspini: atom type   2  psp file is ../../../Psps_for_tests/ATOMICDATA/I.GGA_PBE-JTH.xml
- pspatm: opening atomic psp file    ../../../Psps_for_tests/ATOMICDATA/I.GGA_PBE-JTH.xml
- pspatm : Reading pseudopotential header in XML form from ../../../Psps_for_tests/ATOMICDATA/I.GGA_PBE-JTH.xml
 Pseudopotential format is: paw10
 basis_size (lnmax)=  4 (lmn_size=  8), orbitals=   0   0   1   1
 Spheres core radius: rc_sph= 2.30022271
 1 radial meshes are used:
  - mesh 1: r(i)=AA*[exp(BB*(i-1))-1], size=2000 , AA= 0.12610E-03 BB= 0.66836E-02
 Shapefunction is SIN type: shapef(r)=[sin(pi*r/rshp)/(pi*r/rshp)]**2
 Radius for shape functions =  2.10879093
 mmax= 2000
 Radial grid used for partial waves is grid 1
 Radial grid used for projectors is grid 1
 Radial grid used for (t)core density is grid 1
 Radial grid used for Vloc is grid 1
 Radial grid used for pseudo valence density is grid 1
 Mesh size for Vloc has been set to 1792 to avoid numerical noise.
 Compensation charge density is not taken into account in XC energy/potential
 pspatm: atomic psp has been read  and splines computed

- pspini: atom type   3  psp file is ../../../Psps_for_tests/ATOMICDATA/Zr.GGA_PBE-JTH.xml
- pspatm: opening atomic psp file    ../../../Psps_for_tests/ATOMICDATA/Zr.GGA_PBE-JTH.xml
- pspatm : Reading pseudopotential header in XML form from ../../../Psps_for_tests/ATOMICDATA/Zr.GGA_PBE-JTH.xml
 Pseudopotential format is: paw10
 basis_size (lnmax)=  6 (lmn_size= 18), orbitals=   0   0   1   1   2   2
 Spheres core radius: rc_sph= 2.21000000
 1 radial meshes are used:
  - mesh 1: r(i)=AA*[exp(BB*(i-1))-1], size= 941 , AA= 0.35256E-03 BB= 0.14102E-01
 Shapefunction is BESSEL type: shapef(r,l)=aa(1,l)*jl(q(1,l)*r)+aa(2,l)*jl(q(2,l)*r)
 Radius for shape functions =  2.21000000
 mmax=  941
 Radial grid used for partial waves is grid 1
 Radial grid used for projectors is grid 1
 Radial grid used for (t)core density is grid 1
 Radial grid used for Vloc is grid 1
 Radial grid used for pseudo valence density is grid 1
 Mesh size for Vloc has been set to  777 to avoid numerical noise.
 Compensation charge density is not taken into account in XC energy/potential
 pspatm: atomic psp has been read  and splines computed

- pspini: atom type   4  psp file is ../../../Psps_for_tests/ATOMICDATA/Br.GGA_PBE-JTH.xml
- pspatm: opening atomic psp file    ../../../Psps_for_tests/ATOMICDATA/Br.GGA_PBE-JTH.xml
- pspatm : Reading pseudopotential header in XML form from ../../../Psps_for_tests/ATOMICDATA/Br.GGA_PBE-JTH.xml
 Pseudopotential format is: paw10
 basis_size (lnmax)=  4 (lmn_size=  8), orbitals=   0   0   1   1
 Spheres core radius: rc_sph= 2.20000000
 1 radial meshes are used:
  - mesh 1: r(i)=AA*[exp(BB*(i-1))-1], size= 927 , AA= 0.40483E-03 BB= 0.14169E-01
 Shapefunction is BESSEL type: shapef(r,l)=aa(1,l)*jl(q(1,l)*r)+aa(2,l)*jl(q(2,l)*r)
 Radius for shape functions =  2.02066386
 mmax=  927
 Radial grid used for partial waves is grid 1
 Radial grid used for projectors is grid 1
 Radial grid used for (t)core density is grid 1
 Radial grid used for Vloc is grid 1
 Radial grid used for pseudo valence density is grid 1
 Mesh size for Vloc has been set to  763 to avoid numerical noise.
 Compensation charge density is not taken into account in XC energy/potential
 pspatm: atomic psp has been read  and splines computed

--------------------------------------------------------------------------------

_setup2: Arith. and geom. avg. npw (full set) are    6496.054    6496.043

================================================================================

--- !BeginCycle
iteration_state: {dtset: 2, }
solver: {iscf: 17, nstep: 2500, nline: 4, wfoptalg: 10, }
tolerances: {toldfe: 1.00E-08, }
...

     iter   Etot(hartree)      deltaE(h)  residm     nres2
 ETOT  1  -164.46949432308    -1.645E+02 2.416E-01 1.881E+01
 ETOT  2  -164.67901933705    -2.095E-01 2.497E-02 5.050E+00
 ETOT  3  -164.67497691794     4.042E-03 6.688E-03 1.054E+00
 ETOT  4  -164.67566769256    -6.908E-04 2.919E-03 7.663E-02
 ETOT  5  -164.67528971151     3.780E-04 1.705E-03 6.134E-03
 ETOT  6  -164.67533769679    -4.799E-05 1.418E-03 7.924E-04
 ETOT  7  -164.67533694631     7.505E-07 8.325E-04 1.696E-04
 ETOT  8  -164.67533829844    -1.352E-06 1.054E-03 3.124E-05
 ETOT  9  -164.67533830266    -4.221E-09 1.158E-03 1.010E-05
 ETOT 10  -164.67533837037    -6.771E-08 5.355E-04 1.162E-06
 ETOT 11  -164.67533838037    -9.994E-09 3.156E-04 1.055E-06
 ETOT 12  -164.67533837836     2.003E-09 3.976E-04 2.239E-07

 At SCF step   12, etot is converged : 
  for the second time, diff in etot=  2.003E-09 < toldfe=  1.000E-08

 Cartesian components of stress tensor (hartree/bohr^3)
  sigma(1 1)= -1.23858190E-04  sigma(3 2)= -2.23335240E-13
  sigma(2 2)= -1.23840413E-04  sigma(3 1)= -1.20401512E-13
  sigma(3 3)= -1.23874117E-04  sigma(2 1)=  3.50133099E-13


--- !ResultsGS
iteration_state: {dtset: 2, }
comment   : Summary of ground state results
lattice_vectors:
- [  0.0000000,  10.2892574,  10.3028563, ]
- [ 10.0229811,   0.0000000,  10.3028563, ]
- [ 10.0229811,  10.2892574,   0.0000000, ]
lattice_lengths: [  14.56083,   14.37390,   14.36416, ]
lattice_angles: [ 60.885,  59.591,  59.524, ] # degrees, (23, 13, 12)
lattice_volume:   2.1250472E+03
convergence: {deltae:  2.003E-09, res2:  2.239E-07, residm:  3.976E-04, diffor: null, }
etotal    :  -1.64675338E+02
entropy   :   0.00000000E+00
fermie    :  -3.28104657E-02
cartesian_stress_tensor: # hartree/bohr^3
- [ -1.23858190E-04,   3.50133099E-13,  -1.20401512E-13, ]
- [  3.50133099E-13,  -1.23840413E-04,  -2.23335240E-13, ]
- [ -1.20401512E-13,  -2.23335240E-13,  -1.23874117E-04, ]
pressure_GPa:   3.6440E+00
xred      :
- [  2.5049E-01,   2.5049E-01,   2.4951E-01, Cs]
- [  7.5049E-01,   7.5049E-01,   7.4951E-01, Cs]
- [  2.4625E-01,   2.4625E-01,   7.5375E-01, Br]
- [  7.4595E-01,   7.4595E-01,   2.5405E-01,  I]
- [  2.4673E-01,   7.5593E-01,   7.5327E-01, Br]
- [  7.3807E-01,   2.5908E-01,   7.4092E-01,  I]
- [  2.5908E-01,   7.3807E-01,   2.6193E-01,  I]
- [  7.5593E-01,   2.4673E-01,   2.4407E-01, Br]
- [  7.0162E-03,   7.0162E-03,  -7.0162E-03, Zr]
cartesian_forces: # hartree/bohr
- [ -1.29832624E-17,   1.26469487E-17,  -4.48147649E-06, ]
- [ -1.29832662E-17,   1.26469450E-17,  -4.48147649E-06, ]
- [  8.08613087E-18,  -7.87640287E-18,   2.79099882E-06, ]
- [  8.53549663E-18,  -8.31412952E-18,   2.94624251E-06, ]
- [ -8.18419118E-06,  -1.66690575E-16,   2.20339485E-06, ]
- [ -1.95999006E-16,  -7.52559064E-06,   7.44992377E-06, ]
- [  2.39166707E-16,   7.52559064E-06,   7.44992377E-06, ]
- [  8.18419118E-06,   1.54254566E-16,   2.20339485E-06, ]
- [ -4.65882562E-17,   4.53821762E-17,  -1.60809256E-05, ]
force_length_stats: {min:   2.79099882E-06, max:   1.60809256E-05, mean:   7.65679802E-06, }
...

 Integrated electronic density in atomic spheres:
 ------------------------------------------------
 Atom  Sphere_radius  Integrated_density
    1        2.20660          5.37757272
    2        2.20660          5.37757272
    3        2.20000          4.94082645
    4        2.30022          4.04106694
    5        2.20000          4.94240987
    6        2.30022          4.03473683
    7        2.30022          4.03473683
    8        2.20000          4.94240987
[...]
                       5.2832250246E+00  2.8326877061E+00  5.4164111460E+00
                       2.6008802634E+00  5.4283528448E+00  5.4462975078E+00
                       4.2536564216E-13  9.7386072397E-13  7.7786213021E-02
           xangst10    2.6401919076E+00  2.7129192803E+00  2.7193957553E+00
                       7.9205757229E+00  8.1387578408E+00  8.1495363351E+00
                       5.2803838153E+00  5.4258385605E+00  2.6842585013E+00
                       5.2803838153E+00  5.4258385606E+00  8.0958935772E+00
                       7.9602538915E+00  5.4258385605E+00  5.4434612112E+00
                       5.2803838153E+00  8.0196076131E+00  5.4135898792E+00
                       5.2803838153E+00  2.8320695080E+00  5.4135898790E+00
                       2.6005137390E+00  5.4258385606E+00  5.4434612114E+00
                       6.8425164199E-14  1.9104679128E-12  7.7938288437E-02
            xcart1     5.0139763290E+00  5.1469979508E+00  5.1644980306E+00
                       1.5041928987E+01  1.5440993852E+01  1.5472884191E+01
                       1.0027952658E+01  1.0293995901E+01  5.0744621916E+00
                       1.0027952658E+01  1.0293995902E+01  1.5380257717E+01
                       1.5136054900E+01  1.0293995901E+01  1.0336186049E+01
                       1.0027952658E+01  1.5226123539E+01  1.0279233200E+01
                       1.0027952658E+01  5.3618682647E+00  1.0279233200E+01
                       4.9198504161E+00  1.0293995902E+01  1.0336186050E+01
                       8.2668051268E-14  6.5667698922E-12  1.4414865436E-01
            xcart2     5.0114905274E+00  5.1446287144E+00  5.1615051614E+00
                       1.5034471582E+01  1.5433886143E+01  1.5464361418E+01
                       1.0022981055E+01  1.0289257429E+01  5.0742000437E+00
                       1.0022981055E+01  1.0289257429E+01  1.5370773574E+01
                       1.5126724927E+01  1.0289257429E+01  1.0330247765E+01
                       1.0022981055E+01  1.5217703561E+01  1.0273470155E+01
                       1.0022981055E+01  5.3608112968E+00  1.0273470155E+01
                       4.9192371823E+00  1.0289257429E+01  1.0330247765E+01
                       2.8310184566E-12  4.0664045833E-12  1.4457401238E-01
            xcart3     5.0087562459E+00  5.1421988019E+00  5.1587695592E+00
                       1.5026268738E+01  1.5426596406E+01  1.5456728294E+01
                       1.0017512492E+01  1.0284397604E+01  5.0740415942E+00
                       1.0017512492E+01  1.0284397604E+01  1.5362304251E+01
                       1.5116391977E+01  1.0284397604E+01  1.0325217864E+01
                       1.0017512492E+01  1.5209145682E+01  1.0268261387E+01
                       1.0017512492E+01  5.3596495249E+00  1.0268261387E+01
                       4.9186330061E+00  1.0284397604E+01  1.0325217864E+01
                       2.2845251747E-12  5.4371003033E-12  1.4486767624E-01
            xcart4     5.0057918127E+00  5.1402651941E+00  5.1559420358E+00
                       1.5017375438E+01  1.5420795582E+01  1.5448482663E+01
                       1.0011583626E+01  1.0280530388E+01  5.0739161881E+00
                       1.0011583625E+01  1.0280530388E+01  1.5352809661E+01
                       1.5105116172E+01  1.0280530388E+01  1.0319373832E+01
                       1.0011583626E+01  1.5202448023E+01  1.0262597789E+01
                       1.0011583625E+01  5.3586127535E+00  1.0262597789E+01
                       4.9180510787E+00  1.0280530388E+01  1.0319373833E+01
                      -3.9125879074E-12 -5.0172253229E-14  1.4523122721E-01
            xcart5     5.0031905995E+00  5.1379665146E+00  5.1528647974E+00
                       1.5009571798E+01  1.5413899544E+01  1.5439971634E+01
                       1.0006381199E+01  1.0275933029E+01  5.0737004241E+00
                       1.0006381199E+01  1.0275933029E+01  1.5343410241E+01
                       1.5095319383E+01  1.0275933029E+01  1.0313698022E+01
                       1.0006381199E+01  1.5194356961E+01  1.0256940342E+01
                       1.0006381199E+01  5.3575090970E+00  1.0256940342E+01
                       4.9174430143E+00  1.0275933029E+01  1.0313698022E+01
                       7.4649649479E-13  1.4095602360E-12  1.4563087182E-01
            xcart6     5.0002507928E+00  5.1358913641E+00  5.1499417928E+00
                       1.5000752379E+01  1.5407674092E+01  1.5431863588E+01
                       1.0000501586E+01  1.0271782728E+01  5.0736379641E+00
                       1.0000501586E+01  1.0271782728E+01  1.5334490539E+01
                       1.5084299054E+01  1.0271782728E+01  1.0308166848E+01
                       1.0000501586E+01  1.5187281016E+01  1.0251514971E+01
                       1.0000501586E+01  5.3562844403E+00  1.0251514970E+01
                       4.9167041172E+00  1.0271782728E+01  1.0308166848E+01
                       1.3425349102E-12  2.9373090061E-12  1.4607684495E-01
            xcart7     4.9971290508E+00  5.1338607941E+00  5.1474426095E+00
                       1.4991387153E+01  1.5401582382E+01  1.5424464450E+01
                       9.9942581017E+00  1.0267721588E+01  5.0730068091E+00
                       9.9942581017E+00  1.0267721588E+01  1.5325719074E+01
                       1.5072345105E+01  1.0267721588E+01  1.0303183998E+01
                       9.9942581017E+00  1.5180147291E+01  1.0246619041E+01
                       9.9942581017E+00  5.3552958850E+00  1.0246619041E+01
                       4.9161710989E+00  1.0267721588E+01  1.0303183998E+01
                       1.1031043447E-12  6.1409061168E-12  1.4593570303E-01
            xcart8     4.9945157343E+00  5.1314117133E+00  5.1446179415E+00
                       1.4983547203E+01  1.5394235140E+01  1.5416532130E+01
                       9.9890314685E+00  1.0262823426E+01  5.0731425023E+00
                       9.9890314687E+00  1.0262823427E+01  1.5317026835E+01
                       1.5062481690E+01  1.0262823426E+01  1.0297597657E+01
                       9.9890314685E+00  1.5171580765E+01  1.0241066679E+01
                       9.9890314687E+00  5.3540660880E+00  1.0241066678E+01
                       4.9155812471E+00  1.0262823427E+01  1.0297597657E+01
                       2.7490085535E-12  5.0172483421E-12  1.4666543083E-01
            xcart9     4.9919241974E+00  5.1290501146E+00  5.1416847033E+00
                       1.4975772592E+01  1.5387150344E+01  1.5408271347E+01
                       9.9838483949E+00  1.0258100229E+01  5.0728537713E+00
                       9.9838483949E+00  1.0258100229E+01  1.5307799852E+01
                       1.5052745388E+01  1.0258100229E+01  1.0292010728E+01
                       9.9838483949E+00  1.5163196474E+01  1.0235533689E+01
                       9.9838483949E+00  5.3530039845E+00  1.0235533689E+01
                       4.9149514022E+00  1.0258100229E+01  1.0292010728E+01
                       8.0382457002E-13  1.8403300599E-12  1.4699463952E-01
            xcart10    4.9892396437E+00  5.1266744603E+00  5.1389132245E+00
                       1.4967718931E+01  1.5380023381E+01  1.5400391783E+01
                       9.9784792874E+00  1.0253348921E+01  5.0725134373E+00
                       9.9784792874E+00  1.0253348921E+01  1.5299021662E+01
                       1.5042699803E+01  1.0253348921E+01  1.0286650904E+01
                       9.9784792874E+00  1.5154862082E+01  1.0230202267E+01
                       9.9784792874E+00  5.3518357594E+00  1.0230202267E+01
                       4.9142587716E+00  1.0253348921E+01  1.0286650904E+01
                       1.2930482093E-13  3.6102611409E-12  1.4728202041E-01
             xred1     2.5049983335E-01  2.5049983335E-01  2.4950016665E-01
                       7.5049983335E-01  7.5049983335E-01  7.4950016665E-01
                       2.4613271722E-01  2.4613271722E-01  7.5386728278E-01
                       7.4600706056E-01  7.4600706056E-01  2.5399293944E-01
                       2.4665523434E-01  7.5604158827E-01  7.5334476566E-01
                       7.3814927752E-01  2.5902264059E-01  7.4097735941E-01
                       2.5902264059E-01  7.3814927752E-01  2.6185072248E-01
                       7.5604158827E-01  2.4665523434E-01  2.4395841173E-01
                       6.9918148253E-03  6.9918148253E-03 -6.9918148253E-03
             xred2     2.5048904076E-01  2.5048904076E-01  2.4951095924E-01
                       7.5048904076E-01  7.5048904076E-01  7.4951095924E-01
                       2.4625210318E-01  2.4625210318E-01  7.5374789682E-01
                       7.4594720103E-01  7.4594720103E-01  2.5405279897E-01
                       2.4672722512E-01  7.5593140745E-01  7.5327277488E-01
                       7.3806862894E-01  2.5907914247E-01  7.4092085753E-01
                       2.5907914247E-01  7.3806862894E-01  2.6193137106E-01
                       7.5593140745E-01  2.4672722512E-01  2.4406859255E-01
                       7.0162103008E-03  7.0162103008E-03 -7.0162103008E-03
             xred3     2.5047534624E-01  2.5047534624E-01  2.4952465376E-01
                       7.5047534624E-01  7.5047534624E-01  7.4952465376E-01
                       2.4636152295E-01  2.4636152295E-01  7.5363847705E-01
                       7.4589074628E-01  7.4589074628E-01  2.5410925372E-01
                       2.4682523662E-01  7.5582180537E-01  7.5317476338E-01
                       7.3798622086E-01  2.5912997001E-01  7.4087002999E-01
                       2.5912997001E-01  7.3798622086E-01  2.6201377914E-01
                       7.5582180537E-01  2.4682523662E-01  2.4417819463E-01
                       7.0338054356E-03  7.0338054356E-03 -7.0338054356E-03
             xred4     2.5046984134E-01  2.5046984134E-01  2.4953015866E-01
                       7.5046984134E-01  7.5046984134E-01  7.4953015866E-01
                       2.4648511829E-01  2.4648511829E-01  7.5351488171E-01
                       7.4582215496E-01  7.4582215496E-01  2.5417784504E-01
                       2.4692156601E-01  7.5568548761E-01  7.5307843399E-01
                       7.3792594115E-01  2.5916488031E-01  7.4083511969E-01
                       2.5916488031E-01  7.3792594115E-01  2.6207405885E-01
                       7.5568548761E-01  2.4692156601E-01  2.4431451239E-01
                       7.0551690039E-03  7.0551690039E-03 -7.0551690039E-03
             xred5     2.5045257520E-01  2.5045257520E-01  2.4954742480E-01
                       7.5045257520E-01  7.5045257520E-01  7.4954742480E-01
                       2.4660482799E-01  2.4660482799E-01  7.5339517201E-01
                       7.4575925400E-01  7.4575925400E-01  2.5424074600E-01
                       2.4700780691E-01  7.5557709719E-01  7.5299219309E-01
                       7.3785140435E-01  2.5921613900E-01  7.4078386100E-01
                       2.5921613900E-01  7.3785140435E-01  2.6214859565E-01
                       7.5557709719E-01  2.4700780691E-01  2.4442290281E-01
                       7.0783201792E-03  7.0783201792E-03 -7.0783201792E-03
             xred6     2.5043673231E-01  2.5043673231E-01  2.4956326769E-01
                       7.5043673231E-01  7.5043673231E-01  7.4956326769E-01
                       2.4672615027E-01  2.4672615027E-01  7.5327384973E-01
                       7.4570157428E-01  7.4570157428E-01  2.5429842572E-01
                       2.4709914746E-01  7.5545339599E-01  7.5290085254E-01
                       7.3779326220E-01  2.5924942828E-01  7.4075057172E-01
                       2.5924942828E-01  7.3779326220E-01  2.6220673780E-01
                       7.5545339599E-01  2.4709914746E-01  2.4454660401E-01
                       7.1035769310E-03  7.1035769310E-03 -7.1035769310E-03
             xred7     2.5043454658E-01  2.5043454658E-01  2.4956545342E-01
                       7.5043454658E-01  7.5043454658E-01  7.4956545342E-01
                       2.4681307912E-01  2.4681307912E-01  7.5318692088E-01
                       7.4563036413E-01  7.4563036413E-01  2.5436963587E-01
                       2.4722262403E-01  7.5532307042E-01  7.5277737597E-01
                       7.3773776757E-01  2.5930390462E-01  7.4069609538E-01
                       2.5930390462E-01  7.3773776757E-01  2.6226223243E-01
                       7.5532307042E-01  2.4722262403E-01  2.4467692958E-01
                       7.1000969590E-03  7.1000969590E-03 -7.1000969590E-03
             xred8     2.5042157902E-01  2.5042157902E-01  2.4957842098E-01
                       7.5042157902E-01  7.5042157902E-01  7.4957842098E-01
                       2.4694241059E-01  2.4694241059E-01  7.5305758941E-01
                       7.4557801754E-01  7.4557801754E-01  2.5442198246E-01
                       2.4729912118E-01  7.5520123736E-01  7.5270087882E-01
                       7.3765083573E-01  2.5934607158E-01  7.4065392842E-01
                       2.5934607158E-01  7.3765083573E-01  2.6234916427E-01
                       7.5520123736E-01  2.4729912118E-01  2.4479876264E-01
                       7.1391479783E-03  7.1391479783E-03 -7.1391479783E-03
             xred9     2.5040867437E-01  2.5040867437E-01  2.4959132563E-01
                       7.5040867437E-01  7.5040867437E-01  7.4959132563E-01
                       2.4705649246E-01  2.4705649246E-01  7.5294350754E-01
                       7.4551554397E-01  7.4551554397E-01  2.5448445603E-01
                       2.4738332960E-01  7.5509306158E-01  7.5261667040E-01
                       7.3757171650E-01  2.5940362152E-01  7.4059637848E-01
                       2.5940362152E-01  7.3757171650E-01  2.6242828350E-01
                       7.5509306158E-01  2.4738332960E-01  2.4490693842E-01
                       7.1588856468E-03  7.1588856468E-03 -7.1588856468E-03
             xred10    2.5039828301E-01  2.5039828301E-01  2.4960171699E-01
                       7.5039828301E-01  7.5039828301E-01  7.4960171699E-01
                       2.4716289218E-01  2.4716289218E-01  7.5283710782E-01
                       7.4545893042E-01  7.4545893042E-01  2.5454106958E-01
                       2.4746941652E-01  7.5498367495E-01  7.5253058348E-01
                       7.3749614326E-01  2.5945592448E-01  7.4054407552E-01
                       2.5945592448E-01  7.3749614326E-01  2.6250385674E-01
                       7.5498367495E-01  2.4746941652E-01  2.4501632505E-01
                       7.1764521832E-03  7.1764521832E-03 -7.1764521832E-03
            znucl       55.00000   53.00000   40.00000   35.00000

================================================================================


- Timing analysis has been suppressed with timopt=0



================================================================================

 Suggested references for the acknowledgment of ABINIT usage.

 The users of ABINIT have little formal obligations with respect to the ABINIT group
 (those specified in the GNU General Public License, http://www.gnu.org/copyleft/gpl.txt).
 However, it is common practice in the scientific literature,
 to acknowledge the efforts of people that have made the research possible.
 In this spirit, please find below suggested citations of work written by ABINIT developers,
 corresponding to implementations inside of ABINIT that you have used in the present run.
 Note also that it will be of great value to readers of publications presenting these results,
 to read papers enabling them to understand the theoretical formalism and details
 of the ABINIT implementation.
 For information on why they are suggested, see also https://docs.abinit.org/theory/acknowledgments.
-
- [1] Implementation of the Projector Augmented-Wave Method in the ABINIT code.
- M. Torrent, F. Jollet, F. Bottin, G. Zerah, and X. Gonze Comput. Mat. Science 42, 337, (2008).
- Comment: PAW calculations. Strong suggestion to cite this paper.
- DOI and bibtex: see https://docs.abinit.org/theory/bibliography/#torrent2008
-
- [2] Libxc: A library of exchange and correlation functionals for density functional theory.
- M.A.L. Marques, M.J.T. Oliveira, T. Burnus, Computer Physics Communications 183, 2227 (2012).
- Comment: to be cited when LibXC is used (negative value of ixc)
- Strong suggestion to cite this paper.
- DOI and bibtex: see https://docs.abinit.org/theory/bibliography/#marques2012
-
- [3] The Abinit project: Impact, environment and recent developments.
- Computer Phys. Comm. 248, 107042 (2020).
- X.Gonze, B. Amadon, G. Antonius, F.Arnardi, L.Baguet, J.-M.Beuken,
- J.Bieder, F.Bottin, J.Bouchet, E.Bousquet, N.Brouwer, F.Bruneval,
- G.Brunin, T.Cavignac, J.-B. Charraud, Wei Chen, M.Cote, S.Cottenier,
- J.Denier, G.Geneste, Ph.Ghosez, M.Giantomassi, Y.Gillet, O.Gingras,
- D.R.Hamann, G.Hautier, Xu He, N.Helbig, N.Holzwarth, Y.Jia, F.Jollet,
- W.Lafargue-Dit-Hauret, K.Lejaeghere, M.A.L.Marques, A.Martin, C.Martins,
- H.P.C. Miranda, F.Naccarato, K. Persson, G.Petretto, V.Planes, Y.Pouillon,
- S.Prokhorenko, F.Ricci, G.-M.Rignanese, A.H.Romero, M.M.Schmitt, M.Torrent,
- M.J.van Setten, B.Van Troeye, M.J.Verstraete, G.Zerah and J.W.Zwanzig
- Comment: the fifth generic paper describing the ABINIT project.
- Note that a version of this paper, that is not formatted for Computer Phys. Comm. 
- is available at https://www.abinit.org/sites/default/files/ABINIT20.pdf .
- The licence allows the authors to put it on the Web.
- DOI and bibtex: see https://docs.abinit.org/theory/bibliography/#gonze2020
-
- [4] ABINIT: Overview, and focus on selected capabilities
- J. Chem. Phys. 152, 124102 (2020).
- A. Romero, D.C. Allan, B. Amadon, G. Antonius, T. Applencourt, L.Baguet,
- J.Bieder, F.Bottin, J.Bouchet, E.Bousquet, F.Bruneval,
- G.Brunin, D.Caliste, M.Cote,
- J.Denier, C. Dreyer, Ph.Ghosez, M.Giantomassi, Y.Gillet, O.Gingras,
- D.R.Hamann, G.Hautier, F.Jollet, G. Jomard,
- A.Martin, 
- H.P.C. Miranda, F.Naccarato, G.Petretto, N.A. Pike, V.Planes,
- S.Prokhorenko, T. Rangel, F.Ricci, G.-M.Rignanese, M.Royo, M.Stengel, M.Torrent,
- M.J.van Setten, B.Van Troeye, M.J.Verstraete, J.Wiktor, J.W.Zwanziger, and X.Gonze.
- Comment: a global overview of ABINIT, with focus on selected capabilities .
- Note that a version of this paper, that is not formatted for J. Chem. Phys 
- is available at https://www.abinit.org/sites/default/files/ABINIT20_JPC.pdf .
- The licence allows the authors to put it on the Web.
- DOI and bibtex: see https://docs.abinit.org/theory/bibliography/#romero2020
-
- [5] Recent developments in the ABINIT software package.
- Computer Phys. Comm. 205, 106 (2016).
- X.Gonze, F.Jollet, F.Abreu Araujo, D.Adams, B.Amadon, T.Applencourt,
- C.Audouze, J.-M.Beuken, J.Bieder, A.Bokhanchuk, E.Bousquet, F.Bruneval
- D.Caliste, M.Cote, F.Dahm, F.Da Pieve, M.Delaveau, M.Di Gennaro,
- B.Dorado, C.Espejo, G.Geneste, L.Genovese, A.Gerossier, M.Giantomassi,
- Y.Gillet, D.R.Hamann, L.He, G.Jomard, J.Laflamme Janssen, S.Le Roux,
- A.Levitt, A.Lherbier, F.Liu, I.Lukacevic, A.Martin, C.Martins,
- M.J.T.Oliveira, S.Ponce, Y.Pouillon, T.Rangel, G.-M.Rignanese,
- A.H.Romero, B.Rousseau, O.Rubel, A.A.Shukri, M.Stankovski, M.Torrent,
- M.J.Van Setten, B.Van Troeye, M.J.Verstraete, D.Waroquier, J.Wiktor,
- B.Xu, A.Zhou, J.W.Zwanziger.
- Comment: the fourth generic paper describing the ABINIT project.
- Note that a version of this paper, that is not formatted for Computer Phys. Comm. 
- is available at https://www.abinit.org/sites/default/files/ABINIT16.pdf .
- The licence allows the authors to put it on the Web.
- DOI and bibtex: see https://docs.abinit.org/theory/bibliography/#gonze2016
-
- Proc.   0 individual time (sec): cpu=      13813.9  wall=      13817.7

================================================================================

 Calculation completed.
.Delivered   0 WARNINGs and   0 COMMENTs to log file.
+Overall time at end (sec) : cpu=      82840.3  wall=      82906.4
