
.Version 9.2.2 of ABINIT 
.(MPI version, prepared for a x86_64_linux_gnu9.3 computer) 

.Copyright (C) 1998-2020 ABINIT group . 
 ABINIT comes with ABSOLUTELY NO WARRANTY.
 It is free software, and you are welcome to redistribute it
 under certain conditions (GNU General Public License,
 see ~abinit/COPYING or http://www.gnu.org/copyleft/gpl.txt).

 ABINIT is a project of the Universite Catholique de Louvain,
 Corning Inc. and other collaborators, see ~abinit/doc/developers/contributors.txt .
 Please read https://docs.abinit.org/theory/acknowledgments for suggested
 acknowledgments of the ABINIT effort.
 For more information, see https://www.abinit.org .

.Starting date : Thu  8 Dec 2022.
- ( at 10h01 )
  
- The starting date is more than 2 years after the initial release
- of this version of ABINIT, namely Nov 2020.
- Note that the use beyond 3 years after the release will not be supported.
- Action: please, switch to a more recent version of ABINIT.

- input  file    -> Cs2TiI6.in
- output file    -> Cs2TiI6.out
- root for input  files -> Cs2TiI6i
- root for output files -> Cs2TiI6o

- inpspheads : Reading pseudopotential header in XML form from 
-   ../../../Psps_for_tests/ATOMICDATA/Cs.GGA_PBE-JTH.xml
- inpspheads : Reading pseudopotential header in XML form from 
-   ../../../Psps_for_tests/ATOMICDATA/I.GGA_PBE-JTH.xml
- inpspheads : Reading pseudopotential header in XML form from 
-   ../../../Psps_for_tests/ATOMICDATA/Zr.GGA_PBE-JTH.xml
- inpspheads : Reading pseudopotential header in XML form from 
-   ../../../Psps_for_tests/ATOMICDATA/Cl.GGA_PBE-JTH.xml

 DATASET    1 : space group Im m 2 (# 44); Bravais oI (body-center ortho.)
================================================================================
 Values of the parameters that define the memory need for DATASET  1.
     intxc =       0    ionmov =       0      iscf =      17    lmnmax =      18
     lnmax =       6     mgfft =      60  mpssoang =       3    mqgrid =    3676
     natom =       9  nloc_mem =       2    nspden =       1   nspinor =       1
    nsppol =       1      nsym =       4    n1xccc =       1    ntypat =       4
    occopt =       1   xclevel =       2
-    mband =          42        mffmem =           1         mkmem =          47
       mpw =        8408          nfft =      216000          nkpt =         280
Pmy_natom=         2
 PAW method is used; the additional fine FFT grid is defined by:
   mgfftf=        90    nfftf =    729000
================================================================================
P This job should need less than                     495.656 Mbytes of memory.
  Rough estimation (10% accuracy) of disk space for files :
_ WF disk file :   1508.762 Mbytes ; DEN or POT disk file :      5.564 Mbytes.
================================================================================


 DATASET    2 : space group Im m 2 (# 44); Bravais oI (body-center ortho.)
================================================================================
 Values of the parameters that define the memory need for DATASET  2.
     intxc =       0    ionmov =       0      iscf =      17    lmnmax =      18
     lnmax =       6     mgfft =      60  mpssoang =       3    mqgrid =    3676
     natom =       9  nloc_mem =       2    nspden =       1   nspinor =       1
    nsppol =       1      nsym =       4    n1xccc =       1    ntypat =       4
    occopt =       1   xclevel =       2
-    mband =          42        mffmem =           1         mkmem =          47
       mpw =        8408          nfft =      216000          nkpt =         280
Pmy_natom=         2
 PAW method is used; the additional fine FFT grid is defined by:
   mgfftf=        90    nfftf =    729000
================================================================================
P This job should need less than                     495.656 Mbytes of memory.
  Rough estimation (10% accuracy) of disk space for files :
_ WF disk file :   1508.762 Mbytes ; DEN or POT disk file :      5.564 Mbytes.
================================================================================


 DATASET    3 : space group Im m 2 (# 44); Bravais oI (body-center ortho.)
================================================================================
 Values of the parameters that define the memory need for DATASET  3.
     intxc =       0    ionmov =       0      iscf =      17    lmnmax =      18
     lnmax =       6     mgfft =      60  mpssoang =       3    mqgrid =    3676
     natom =       9  nloc_mem =       2    nspden =       1   nspinor =       1
    nsppol =       1      nsym =       4    n1xccc =       1    ntypat =       4
    occopt =       1   xclevel =       2
-    mband =          42        mffmem =           1         mkmem =          47
       mpw =        8408          nfft =      216000          nkpt =         280
Pmy_natom=         2
 PAW method is used; the additional fine FFT grid is defined by:
   mgfftf=        90    nfftf =    729000
================================================================================
P This job should need less than                     495.656 Mbytes of memory.
  Rough estimation (10% accuracy) of disk space for files :
_ WF disk file :   1508.762 Mbytes ; DEN or POT disk file :      5.564 Mbytes.
================================================================================


 DATASET    4 : space group I4/m m m (#139); Bravais tI (body-center tetrag.)
================================================================================
 Values of the parameters that define the memory need for DATASET  4.
     intxc =       0    ionmov =       0      iscf =      17    lmnmax =      18
     lnmax =       6     mgfft =      60  mpssoang =       3    mqgrid =    3643
     natom =       9  nloc_mem =       2    nspden =       1   nspinor =       1
    nsppol =       1      nsym =      16    n1xccc =       1    ntypat =       4
    occopt =       1   xclevel =       2
-    mband =          42        mffmem =           1         mkmem =          28
       mpw =        8371          nfft =      216000          nkpt =         163
Pmy_natom=         2
 PAW method is used; the additional fine FFT grid is defined by:
   mgfftf=        96    nfftf =    884736
================================================================================
P This job should need less than                     416.664 Mbytes of memory.
  Rough estimation (10% accuracy) of disk space for files :
_ WF disk file :    874.451 Mbytes ; DEN or POT disk file :      6.752 Mbytes.
================================================================================

--------------------------------------------------------------------------------
------------- Echo of variables that govern the present computation ------------
--------------------------------------------------------------------------------
-
- outvars: echo of selected default values                                      
-   iomode0 =  0 , fftalg0 =112 , wfoptalg0 = 10
-
- outvars: echo of global parameters not present in the input file              
-  max_nthreads =    0
-
 -outvars: echo values of preprocessed input variables --------
            acell1     1.5743583964E+01  1.5795554602E+01  1.5743583964E+01 Bohr
            acell2     1.5795554269E+01  1.5743584043E+01  1.5743584043E+01 Bohr
            acell3     1.5496161884E+01  1.5743530264E+01  1.5743530264E+01 Bohr
            acell4     1.5546725663E+01  1.5546725663E+01  1.5974160276E+01 Bohr
              amu      1.32905430E+02  1.26904470E+02  9.12240000E+01
                       3.54527000E+01
           diemac      1.20000000E+01
             ecut      1.60000000E+01 Hartree
-          fftalg         112
           istwfk1       2    0    0    0    0    0    3    0    0    0
                         0    0    0    0    0    0    0    0    0    0
                         0    0    0    0    0    0    0    0    0    0
                         0    0    0    0    0    0    0    0    0    0
                         0    0    0    0    0    0    0    0    0    0
           istwfk2       2    0    0    0    0    0    3    0    0    0
                         0    0    0    0    0    0    0    0    0    0
                         0    0    0    0    0    0    0    0    0    0
                         0    0    0    0    0    0    0    0    0    0
                         0    0    0    0    0    0    0    0    0    0
           istwfk3       2    0    0    0    0    0    3    0    0    0
                         0    0    0    0    0    0    0    0    0    0
                         0    0    0    0    0    0    0    0    0    0
                         0    0    0    0    0    0    0    0    0    0
                         0    0    0    0    0    0    0    0    0    0
           istwfk4       2    0    0    0    0    0    3    0    0    0
                         0    0    0    0    0    0    0    0    0    0
                         0    0    0    0    0    0    0    0    0    0
                         0    0    0    0    0    0    0    0    0    0
                         0    0    7    0    0    0    0    0    0    0
                       outvar_i_n : Printing only first  50 k-points.
              ixc     -101130
           jdtset        1    2    3    4
              kpt1     0.00000000E+00  0.00000000E+00  0.00000000E+00
                       8.33333333E-02  0.00000000E+00  0.00000000E+00
                       1.66666667E-01  0.00000000E+00  0.00000000E+00
                       2.50000000E-01  0.00000000E+00  0.00000000E+00
                       3.33333333E-01  0.00000000E+00  0.00000000E+00
                       4.16666667E-01  0.00000000E+00  0.00000000E+00
                       5.00000000E-01  0.00000000E+00  0.00000000E+00
                       0.00000000E+00  8.33333333E-02  0.00000000E+00
                       8.33333333E-02  8.33333333E-02  0.00000000E+00
                       1.66666667E-01  8.33333333E-02  0.00000000E+00
                       2.50000000E-01  8.33333333E-02  0.00000000E+00
                       3.33333333E-01  8.33333333E-02  0.00000000E+00
                       4.16666667E-01  8.33333333E-02  0.00000000E+00
                       5.00000000E-01  8.33333333E-02  0.00000000E+00
                      -4.16666667E-01  8.33333333E-02  0.00000000E+00
                      -3.33333333E-01  8.33333333E-02  0.00000000E+00
                      -2.50000000E-01  8.33333333E-02  0.00000000E+00
                      -1.66666667E-01  8.33333333E-02  0.00000000E+00
                      -8.33333333E-02  8.33333333E-02  0.00000000E+00
                       0.00000000E+00  1.66666667E-01  0.00000000E+00
                       8.33333333E-02  1.66666667E-01  0.00000000E+00
                       1.66666667E-01  1.66666667E-01  0.00000000E+00
                       2.50000000E-01  1.66666667E-01  0.00000000E+00
                       3.33333333E-01  1.66666667E-01  0.00000000E+00
                       4.16666667E-01  1.66666667E-01  0.00000000E+00
                       5.00000000E-01  1.66666667E-01  0.00000000E+00
                      -4.16666667E-01  1.66666667E-01  0.00000000E+00
                      -3.33333333E-01  1.66666667E-01  0.00000000E+00
                      -2.50000000E-01  1.66666667E-01  0.00000000E+00
                      -1.66666667E-01  1.66666667E-01  0.00000000E+00
                      -8.33333333E-02  1.66666667E-01  0.00000000E+00
                       0.00000000E+00  2.50000000E-01  0.00000000E+00
                       8.33333333E-02  2.50000000E-01  0.00000000E+00
                       1.66666667E-01  2.50000000E-01  0.00000000E+00
                       2.50000000E-01  2.50000000E-01  0.00000000E+00
                       3.33333333E-01  2.50000000E-01  0.00000000E+00
                       4.16666667E-01  2.50000000E-01  0.00000000E+00
                       5.00000000E-01  2.50000000E-01  0.00000000E+00
                      -4.16666667E-01  2.50000000E-01  0.00000000E+00
                      -3.33333333E-01  2.50000000E-01  0.00000000E+00
                      -2.50000000E-01  2.50000000E-01  0.00000000E+00
                      -1.66666667E-01  2.50000000E-01  0.00000000E+00
                      -8.33333333E-02  2.50000000E-01  0.00000000E+00
                       0.00000000E+00  3.33333333E-01  0.00000000E+00
                       8.33333333E-02  3.33333333E-01  0.00000000E+00
                       1.66666667E-01  3.33333333E-01  0.00000000E+00
                       2.50000000E-01  3.33333333E-01  0.00000000E+00
                       3.33333333E-01  3.33333333E-01  0.00000000E+00
                       4.16666667E-01  3.33333333E-01  0.00000000E+00
                       5.00000000E-01  3.33333333E-01  0.00000000E+00
              kpt2     0.00000000E+00  0.00000000E+00  0.00000000E+00
                       8.33333333E-02  0.00000000E+00  0.00000000E+00
                       1.66666667E-01  0.00000000E+00  0.00000000E+00
                       2.50000000E-01  0.00000000E+00  0.00000000E+00
                       3.33333333E-01  0.00000000E+00  0.00000000E+00
                       4.16666667E-01  0.00000000E+00  0.00000000E+00
                       5.00000000E-01  0.00000000E+00  0.00000000E+00
                       0.00000000E+00  8.33333333E-02  0.00000000E+00
                       8.33333333E-02  8.33333333E-02  0.00000000E+00
                       1.66666667E-01  8.33333333E-02  0.00000000E+00
                       2.50000000E-01  8.33333333E-02  0.00000000E+00
                       3.33333333E-01  8.33333333E-02  0.00000000E+00
                       4.16666667E-01  8.33333333E-02  0.00000000E+00
                       5.00000000E-01  8.33333333E-02  0.00000000E+00
                      -4.16666667E-01  8.33333333E-02  0.00000000E+00
                      -3.33333333E-01  8.33333333E-02  0.00000000E+00
                      -2.50000000E-01  8.33333333E-02  0.00000000E+00
                      -1.66666667E-01  8.33333333E-02  0.00000000E+00
                      -8.33333333E-02  8.33333333E-02  0.00000000E+00
                       0.00000000E+00  1.66666667E-01  0.00000000E+00
                       8.33333333E-02  1.66666667E-01  0.00000000E+00
                       1.66666667E-01  1.66666667E-01  0.00000000E+00
                       2.50000000E-01  1.66666667E-01  0.00000000E+00
                       3.33333333E-01  1.66666667E-01  0.00000000E+00
                       4.16666667E-01  1.66666667E-01  0.00000000E+00
                       5.00000000E-01  1.66666667E-01  0.00000000E+00
                      -4.16666667E-01  1.66666667E-01  0.00000000E+00
                      -3.33333333E-01  1.66666667E-01  0.00000000E+00
                      -2.50000000E-01  1.66666667E-01  0.00000000E+00
                      -1.66666667E-01  1.66666667E-01  0.00000000E+00
                      -8.33333333E-02  1.66666667E-01  0.00000000E+00
                       0.00000000E+00  2.50000000E-01  0.00000000E+00
                       8.33333333E-02  2.50000000E-01  0.00000000E+00
                       1.66666667E-01  2.50000000E-01  0.00000000E+00
                       2.50000000E-01  2.50000000E-01  0.00000000E+00
                       3.33333333E-01  2.50000000E-01  0.00000000E+00
                       4.16666667E-01  2.50000000E-01  0.00000000E+00
                       5.00000000E-01  2.50000000E-01  0.00000000E+00
                      -4.16666667E-01  2.50000000E-01  0.00000000E+00
                      -3.33333333E-01  2.50000000E-01  0.00000000E+00
                      -2.50000000E-01  2.50000000E-01  0.00000000E+00
                      -1.66666667E-01  2.50000000E-01  0.00000000E+00
                      -8.33333333E-02  2.50000000E-01  0.00000000E+00
                       0.00000000E+00  3.33333333E-01  0.00000000E+00
                       8.33333333E-02  3.33333333E-01  0.00000000E+00
                       1.66666667E-01  3.33333333E-01  0.00000000E+00
                       2.50000000E-01  3.33333333E-01  0.00000000E+00
                       3.33333333E-01  3.33333333E-01  0.00000000E+00
                       4.16666667E-01  3.33333333E-01  0.00000000E+00
                       5.00000000E-01  3.33333333E-01  0.00000000E+00
              kpt3     0.00000000E+00  0.00000000E+00  0.00000000E+00
                       8.33333333E-02  0.00000000E+00  0.00000000E+00
                       1.66666667E-01  0.00000000E+00  0.00000000E+00
                       2.50000000E-01  0.00000000E+00  0.00000000E+00
                       3.33333333E-01  0.00000000E+00  0.00000000E+00
                       4.16666667E-01  0.00000000E+00  0.00000000E+00
                       5.00000000E-01  0.00000000E+00  0.00000000E+00
                       0.00000000E+00  8.33333333E-02  0.00000000E+00
                       8.33333333E-02  8.33333333E-02  0.00000000E+00
                       1.66666667E-01  8.33333333E-02  0.00000000E+00
                       2.50000000E-01  8.33333333E-02  0.00000000E+00
                       3.33333333E-01  8.33333333E-02  0.00000000E+00
                       4.16666667E-01  8.33333333E-02  0.00000000E+00
                       5.00000000E-01  8.33333333E-02  0.00000000E+00
                      -4.16666667E-01  8.33333333E-02  0.00000000E+00
                      -3.33333333E-01  8.33333333E-02  0.00000000E+00
                      -2.50000000E-01  8.33333333E-02  0.00000000E+00
                      -1.66666667E-01  8.33333333E-02  0.00000000E+00
                      -8.33333333E-02  8.33333333E-02  0.00000000E+00
                       0.00000000E+00  1.66666667E-01  0.00000000E+00
                       8.33333333E-02  1.66666667E-01  0.00000000E+00
                       1.66666667E-01  1.66666667E-01  0.00000000E+00
                       2.50000000E-01  1.66666667E-01  0.00000000E+00
                       3.33333333E-01  1.66666667E-01  0.00000000E+00
                       4.16666667E-01  1.66666667E-01  0.00000000E+00
                       5.00000000E-01  1.66666667E-01  0.00000000E+00
                      -4.16666667E-01  1.66666667E-01  0.00000000E+00
                      -3.33333333E-01  1.66666667E-01  0.00000000E+00
                      -2.50000000E-01  1.66666667E-01  0.00000000E+00
                      -1.66666667E-01  1.66666667E-01  0.00000000E+00
                      -8.33333333E-02  1.66666667E-01  0.00000000E+00
                       0.00000000E+00  2.50000000E-01  0.00000000E+00
                       8.33333333E-02  2.50000000E-01  0.00000000E+00
                       1.66666667E-01  2.50000000E-01  0.00000000E+00
                       2.50000000E-01  2.50000000E-01  0.00000000E+00
                       3.33333333E-01  2.50000000E-01  0.00000000E+00
                       4.16666667E-01  2.50000000E-01  0.00000000E+00
                       5.00000000E-01  2.50000000E-01  0.00000000E+00
                      -4.16666667E-01  2.50000000E-01  0.00000000E+00
                      -3.33333333E-01  2.50000000E-01  0.00000000E+00
                      -2.50000000E-01  2.50000000E-01  0.00000000E+00
                      -1.66666667E-01  2.50000000E-01  0.00000000E+00
                      -8.33333333E-02  2.50000000E-01  0.00000000E+00
                       0.00000000E+00  3.33333333E-01  0.00000000E+00
                       8.33333333E-02  3.33333333E-01  0.00000000E+00
                       1.66666667E-01  3.33333333E-01  0.00000000E+00
                       2.50000000E-01  3.33333333E-01  0.00000000E+00
                       3.33333333E-01  3.33333333E-01  0.00000000E+00
                       4.16666667E-01  3.33333333E-01  0.00000000E+00
                       5.00000000E-01  3.33333333E-01  0.00000000E+00
              kpt4     0.00000000E+00  0.00000000E+00  0.00000000E+00
                       8.33333333E-02  0.00000000E+00  0.00000000E+00
                       1.66666667E-01  0.00000000E+00  0.00000000E+00
                       2.50000000E-01  0.00000000E+00  0.00000000E+00
                       3.33333333E-01  0.00000000E+00  0.00000000E+00
                       4.16666667E-01  0.00000000E+00  0.00000000E+00
                       5.00000000E-01  0.00000000E+00  0.00000000E+00
                       8.33333333E-02  8.33333333E-02  0.00000000E+00
                       1.66666667E-01  8.33333333E-02  0.00000000E+00
                       2.50000000E-01  8.33333333E-02  0.00000000E+00
                       3.33333333E-01  8.33333333E-02  0.00000000E+00
                       4.16666667E-01  8.33333333E-02  0.00000000E+00
                       5.00000000E-01  8.33333333E-02  0.00000000E+00
                      -4.16666667E-01  8.33333333E-02  0.00000000E+00
                      -3.33333333E-01  8.33333333E-02  0.00000000E+00
                      -2.50000000E-01  8.33333333E-02  0.00000000E+00
                      -1.66666667E-01  8.33333333E-02  0.00000000E+00
                      -8.33333333E-02  8.33333333E-02  0.00000000E+00
                       1.66666667E-01  1.66666667E-01  0.00000000E+00
                       2.50000000E-01  1.66666667E-01  0.00000000E+00
                       3.33333333E-01  1.66666667E-01  0.00000000E+00
                       4.16666667E-01  1.66666667E-01  0.00000000E+00
                       5.00000000E-01  1.66666667E-01  0.00000000E+00
                      -4.16666667E-01  1.66666667E-01  0.00000000E+00
                      -3.33333333E-01  1.66666667E-01  0.00000000E+00
                      -2.50000000E-01  1.66666667E-01  0.00000000E+00
                      -1.66666667E-01  1.66666667E-01  0.00000000E+00
                       2.50000000E-01  2.50000000E-01  0.00000000E+00
                       3.33333333E-01  2.50000000E-01  0.00000000E+00
                       4.16666667E-01  2.50000000E-01  0.00000000E+00
                       5.00000000E-01  2.50000000E-01  0.00000000E+00
                      -4.16666667E-01  2.50000000E-01  0.00000000E+00
                      -3.33333333E-01  2.50000000E-01  0.00000000E+00
                      -2.50000000E-01  2.50000000E-01  0.00000000E+00
                       3.33333333E-01  3.33333333E-01  0.00000000E+00
                       4.16666667E-01  3.33333333E-01  0.00000000E+00
                       5.00000000E-01  3.33333333E-01  0.00000000E+00
                      -4.16666667E-01  3.33333333E-01  0.00000000E+00
                      -3.33333333E-01  3.33333333E-01  0.00000000E+00
                       4.16666667E-01  4.16666667E-01  0.00000000E+00
                       5.00000000E-01  4.16666667E-01  0.00000000E+00
                      -4.16666667E-01  4.16666667E-01  0.00000000E+00
                       5.00000000E-01  5.00000000E-01  0.00000000E+00
                       8.33333333E-02  0.00000000E+00  8.33333333E-02
                       1.66666667E-01  0.00000000E+00  8.33333333E-02
                       2.50000000E-01  0.00000000E+00  8.33333333E-02
                       3.33333333E-01  0.00000000E+00  8.33333333E-02
                       4.16666667E-01  0.00000000E+00  8.33333333E-02
                       5.00000000E-01  0.00000000E+00  8.33333333E-02
                      -4.16666667E-01  0.00000000E+00  8.33333333E-02
                       outvar_i_n : Printing only first  50 k-points.
         kptrlatt       12    0    0      0   12    0      0    0   12
          kptrlen1     1.85943616E+02
          kptrlen2     1.85943612E+02
          kptrlen3     1.85953943E+02
          kptrlen4     1.86560708E+02
P           mkmem1         47
P           mkmem2         47
P           mkmem3         47
P           mkmem4         28
            natom           9
            nband1         42
            nband2         42
            nband3         42
            nband4         42
           ndtset           4
            ngfft          60      60      60
          ngfftdg1         90      90      90
          ngfftdg2         90      90      90
          ngfftdg3         90      90      90
          ngfftdg4         96      96      96
             nkpt1        280
             nkpt2        280
             nkpt3        280
             nkpt4        163
            nstep        2500
             nsym1          4
             nsym2          4
             nsym3          4
             nsym4         16
           ntypat           4
              occ1     2.000000  2.000000  2.000000  2.000000  2.000000  2.000000
                       2.000000  2.000000  2.000000  2.000000  2.000000  2.000000
                       2.000000  2.000000  2.000000  2.000000  2.000000  2.000000
                       2.000000  2.000000  2.000000  2.000000  2.000000  2.000000
                       2.000000  2.000000  2.000000  2.000000  2.000000  2.000000
                       2.000000  2.000000  2.000000  2.000000  2.000000  2.000000
                       0.000000  0.000000  0.000000  0.000000  0.000000  0.000000
              occ2     2.000000  2.000000  2.000000  2.000000  2.000000  2.000000
                       2.000000  2.000000  2.000000  2.000000  2.000000  2.000000
                       2.000000  2.000000  2.000000  2.000000  2.000000  2.000000
                       2.000000  2.000000  2.000000  2.000000  2.000000  2.000000
                       2.000000  2.000000  2.000000  2.000000  2.000000  2.000000
                       2.000000  2.000000  2.000000  2.000000  2.000000  2.000000
                       0.000000  0.000000  0.000000  0.000000  0.000000  0.000000
              occ3     2.000000  2.000000  2.000000  2.000000  2.000000  2.000000
                       2.000000  2.000000  2.000000  2.000000  2.000000  2.000000
                       2.000000  2.000000  2.000000  2.000000  2.000000  2.000000
                       2.000000  2.000000  2.000000  2.000000  2.000000  2.000000
                       2.000000  2.000000  2.000000  2.000000  2.000000  2.000000
                       2.000000  2.000000  2.000000  2.000000  2.000000  2.000000
                       0.000000  0.000000  0.000000  0.000000  0.000000  0.000000
              occ4     2.000000  2.000000  2.000000  2.000000  2.000000  2.000000
                       2.000000  2.000000  2.000000  2.000000  2.000000  2.000000
                       2.000000  2.000000  2.000000  2.000000  2.000000  2.000000
                       2.000000  2.000000  2.000000  2.000000  2.000000  2.000000
                       2.000000  2.000000  2.000000  2.000000  2.000000  2.000000
                       2.000000  2.000000  2.000000  2.000000  2.000000  2.000000
                       0.000000  0.000000  0.000000  0.000000  0.000000  0.000000
        pawecutdg      4.00000000E+01 Hartree
            prtwf           0
            rprim1     6.7427829732E-03  7.1145608901E-01  7.0269820570E-01
                       7.0710678119E-01  0.0000000000E+00  7.0710678119E-01
                       7.0269820570E-01  7.1145608901E-01  6.7427829732E-03
            rprim2     0.0000000000E+00  7.0710678119E-01  7.0710678119E-01
                       7.1145610699E-01  6.7427825722E-03  7.0269818750E-01
                       7.1145610699E-01  7.0269818750E-01  6.7427825722E-03
            rprim3     0.0000000000E+00  7.0710678119E-01  7.0710678119E-01
                       7.1143424933E-01 -6.7240479235E-03  7.0272049640E-01
                       7.1143424933E-01  7.0272049640E-01 -6.7240479235E-03
            rprim4     0.0000000000E+00  7.2654765382E-01  6.8711607952E-01
                       7.2654765382E-01  0.0000000000E+00  6.8711607952E-01
                       7.0710678119E-01  7.0710678119E-01  0.0000000000E+00
          spgroup1         44
          spgroup2         44
          spgroup3         44
          spgroup4        139
           symafm1       1    1    1    1
           symafm2       1    1    1    1
           symafm3       1    1    1    1
           symafm4       1    1    1    1    1    1    1    1    1    1
                         1    1    1    1    1    1
           symrel1     1  0  0   0  1  0   0  0  1       0  1 -1   0  1  0  -1  1  0
                       0  0 -1   0 -1  0  -1  0  0       1 -1  0   0 -1  0   0 -1  1
           symrel2     1  0  0   0  1  0   0  0  1       1  0  0   1  0 -1   1 -1  0
                      -1  0  0   0  0 -1   0 -1  0      -1  0  0  -1  1  0  -1  0  1
           symrel3     1  0  0   0  1  0   0  0  1       1  0  0   1  0 -1   1 -1  0
                       1  0  0   0  0  1   0  1  0       1  0  0   1 -1  0   1  0 -1
           symrel4     1  0  0   0  1  0   0  0  1      -1  0  0   0 -1  0   0  0 -1
                      -1  0  1   0 -1  1   0  0  1       1  0 -1   0  1 -1   0  0 -1
                       0  1 -1   1  0 -1   0  0 -1       0 -1  1  -1  0  1   0  0  1
                       0 -1  0  -1  0  0   0  0 -1       0  1  0   1  0  0   0  0  1
                       1  0  0   1  0 -1   1 -1  0      -1  0  0  -1  0  1  -1  1  0
                       0 -1  0   0 -1  1   1 -1  0       0  1  0   0  1 -1  -1  1  0
                       0  1 -1   0  1  0  -1  1  0       0 -1  1   0 -1  0   1 -1  0
                      -1  0  1  -1  0  0  -1  1  0       1  0 -1   1  0  0   1 -1  0
            tnons1     0.0000000  0.0000000  0.0000000     0.0000000  0.0000000  0.0000000
                       0.0000000  0.0000000  0.0000000     0.0000000  0.0000000  0.0000000
            tnons2     0.0000000  0.0000000  0.0000000    -0.0000000  0.0000000  0.0000000
                       0.0000000  0.0000000  0.0000000     0.0000000  0.0000000  0.0000000
            tnons3     0.0000000  0.0000000  0.0000000     0.0000000  0.0000000  0.0000000
                       0.0000000 -0.0000000  0.0000000     0.0000000 -0.0000000  0.0000000
            tnons4     0.0000000  0.0000000  0.0000000    -0.0000000  0.0000000  0.0000000
                      -0.0000000  0.0000000  0.0000000     0.0000000  0.0000000  0.0000000
                      -0.0000000  0.0000000  0.0000000    -0.0000000 -0.0000000  0.0000000
                      -0.0000000 -0.0000000  0.0000000    -0.0000000  0.0000000  0.0000000
                      -0.0000000  0.0000000  0.0000000    -0.0000000 -0.0000000  0.0000000
                      -0.0000000  0.0000000  0.0000000    -0.0000000  0.0000000  0.0000000
                      -0.0000000  0.0000000 -0.0000000    -0.0000000  0.0000000  0.0000000
                      -0.0000000 -0.0000000  0.0000000    -0.0000000  0.0000000 -0.0000000
           toldfe      1.00000000E-08 Hartree
            typat1     1  1  4  2  4  2  2  2  3
            typat2     1  1  4  2  2  4  2  2  3
            typat3     1  1  2  4  2  4  2  2  3
            typat4     1  1  4  4  2  2  2  2  3
           useylm           1
              wtk1       0.00058    0.00231    0.00231    0.00231    0.00231    0.00231
                         0.00116    0.00231    0.00231    0.00463    0.00463    0.00463
                         0.00463    0.00463    0.00463    0.00463    0.00463    0.00463
                         0.00463    0.00231    0.00463    0.00231    0.00463    0.00463
                         0.00463    0.00463    0.00463    0.00463    0.00463    0.00463
                         0.00463    0.00231    0.00463    0.00463    0.00231    0.00463
                         0.00463    0.00463    0.00463    0.00463    0.00463    0.00463
                         0.00463    0.00231    0.00463    0.00463    0.00463    0.00231
                         0.00463    0.00463
              wtk2       0.00058    0.00231    0.00231    0.00231    0.00231    0.00231
                         0.00116    0.00231    0.00231    0.00463    0.00463    0.00463
                         0.00463    0.00463    0.00463    0.00463    0.00463    0.00463
                         0.00463    0.00231    0.00463    0.00231    0.00463    0.00463
                         0.00463    0.00463    0.00463    0.00463    0.00463    0.00463
                         0.00463    0.00231    0.00463    0.00463    0.00231    0.00463
                         0.00463    0.00463    0.00463    0.00463    0.00463    0.00463
                         0.00463    0.00231    0.00463    0.00463    0.00463    0.00231
                         0.00463    0.00463
              wtk3       0.00058    0.00231    0.00231    0.00231    0.00231    0.00231
                         0.00116    0.00231    0.00231    0.00463    0.00463    0.00463
                         0.00463    0.00463    0.00463    0.00463    0.00463    0.00463
                         0.00463    0.00231    0.00463    0.00231    0.00463    0.00463
                         0.00463    0.00463    0.00463    0.00463    0.00463    0.00463
                         0.00463    0.00231    0.00463    0.00463    0.00231    0.00463
                         0.00463    0.00463    0.00463    0.00463    0.00463    0.00463
                         0.00463    0.00231    0.00463    0.00463    0.00463    0.00231
                         0.00463    0.00463
              wtk4       0.00058    0.00463    0.00463    0.00463    0.00463    0.00463
                         0.00231    0.00116    0.00463    0.00463    0.00463    0.00463
                         0.00463    0.00463    0.00463    0.00463    0.00463    0.00231
                         0.00116    0.00463    0.00463    0.00463    0.00463    0.00463
                         0.00463    0.00463    0.00231    0.00116    0.00463    0.00463
                         0.00463    0.00463    0.00463    0.00231    0.00116    0.00463
                         0.00463    0.00463    0.00231    0.00116    0.00463    0.00231
                         0.00058    0.00231    0.00926    0.00926    0.00926    0.00926
                         0.00926    0.00926
                       outvars : Printing only first  50 k-points.
           xangst1     2.9412132088E+00  2.9962744881E+00  2.9692431149E+00
                       8.8516695325E+00  8.8582143493E+00  8.8796994386E+00
                       5.7996977142E+00  5.9272444187E+00  2.5961772776E+00
                       5.9151227490E+00  5.9272444187E+00  8.9484199332E+00
                       9.2247353698E+00  5.9272444187E+00  6.0212149333E+00
                       5.8868669609E+00  8.9552780322E+00  5.9340456868E+00
                       5.8868669606E+00  2.8992108053E+00  5.9340456865E+00
                       2.8724927142E+00  5.9272444187E+00  5.9057898984E+00
                      -9.5014620187E-02 -1.1989186555E-18  9.5014620187E-02
           xangst2     2.9962741767E+00  2.9412127954E+00  2.9692434034E+00
                       8.8582150198E+00  8.8516689941E+00  8.8796996022E+00
                       5.9272445982E+00  5.7996977602E+00  2.5961771545E+00
                       5.9272445982E+00  5.9151227778E+00  8.9484195645E+00
                       8.9552783827E+00  5.8868668442E+00  5.9340455532E+00
                       5.9272445982E+00  9.2247352430E+00  6.0212146373E+00
                       5.9272445982E+00  2.8724928331E+00  5.9057896197E+00
                       2.8992108138E+00  5.8868668443E+00  5.9340455533E+00
                       2.8755325744E-18 -9.5014502155E-02  9.5014502155E-02
           xangst3     2.9301318090E+00  2.8855394416E+00  2.8855394416E+00
                       8.9239526959E+00  8.6839675629E+00  8.6839675629E+00
                       5.9270422525E+00  5.8027069879E+00  2.7602068983E+00
                       5.9270422525E+00  5.6874757071E+00  9.1127578310E+00
                       8.9548940797E+00  5.7749461688E+00  5.7749461688E+00
                       5.9270422525E+00  9.1127578310E+00  5.6874757071E+00
                       5.9270422525E+00  2.7602068983E+00  5.8027069879E+00
                       2.8991904252E+00  5.7749461689E+00  5.7749461689E+00
                      -2.3074152259E-34 -9.5121796276E-02 -9.5121796276E-02
           xangst4     2.9886439253E+00  2.9886439253E+00  2.8264426789E+00
                       8.9659317759E+00  8.9659317759E+00  8.4793280368E+00
                       5.9772878506E+00  5.9772878506E+00  2.4472216108E+00
                       5.9772878506E+00  5.9772878506E+00  8.8585491049E+00
                       9.0474230671E+00  5.9772878506E+00  5.6528853578E+00
                       5.9772878506E+00  9.0474230671E+00  5.6528853578E+00
                       5.9772878506E+00  2.9071526340E+00  5.6528853578E+00
                       2.9071526340E+00  5.9772878506E+00  5.6528853578E+00
                       3.7686820147E-20 -1.2069046187E-20 -1.4646878323E-20
            xcart1     5.5580874631E+00  5.6621382015E+00  5.6110563091E+00
                       1.6727231235E+01  1.6739599147E+01  1.6780200081E+01
                       1.0959840333E+01  1.1200868674E+01  4.9060640471E+00
                       1.1177962038E+01  1.1200868674E+01  1.6910062996E+01
                       1.7432223497E+01  1.1200868674E+01  1.1378447211E+01
                       1.1124566337E+01  1.6923022925E+01  1.1213721208E+01
                       1.1124566336E+01  5.4787144234E+00  1.1213721208E+01
                       5.4282245486E+00  1.1200868674E+01  1.1160325506E+01
                      -1.7955161077E-01 -2.2656279146E-18  1.7955161077E-01
            xcart2     5.6621376131E+00  5.5580866818E+00  5.6110568543E+00
                       1.6739600414E+01  1.6727230218E+01  1.6780200390E+01
                       1.1200869013E+01  1.0959840420E+01  4.9060638144E+00
                       1.1200869013E+01  1.1177962092E+01  1.6910062299E+01
                       1.6923023587E+01  1.1124566116E+01  1.1213720956E+01
                       1.1200869013E+01  1.7432223258E+01  1.1378446652E+01
                       1.1200869013E+01  5.4282247732E+00  1.1160324980E+01
                       5.4787144395E+00  1.1124566116E+01  1.1213720956E+01
                       5.4339690518E-18 -1.7955138773E-01  1.7955138773E-01
            xcart3     5.5371466523E+00  5.4528792903E+00  5.4528792903E+00
                       1.6863826618E+01  1.6410320441E+01  1.6410320441E+01
                       1.1200486635E+01  1.0965527037E+01  5.2160351078E+00
                       1.1200486635E+01  1.0747771474E+01  1.7220616616E+01
                       1.6922297360E+01  1.0913066691E+01  1.0913066691E+01
                       1.1200486635E+01  1.7220616616E+01  1.0747771474E+01
                       1.1200486635E+01  5.2160351078E+00  1.0965527037E+01
                       5.4786759108E+00  1.0913066691E+01  1.0913066691E+01
                      -4.3603828518E-34 -1.7975414423E-01 -1.7975414423E-01
            xcart4     5.6477185275E+00  5.6477185275E+00  5.3412025935E+00
                       1.6943155583E+01  1.6943155583E+01  1.6023607780E+01
                       1.1295437055E+01  1.1295437055E+01  4.6245786308E+00
                       1.1295437055E+01  1.1295437055E+01  1.6740231743E+01
                       1.7097151805E+01  1.1295437055E+01  1.0682405187E+01
                       1.1295437055E+01  1.7097151805E+01  1.0682405187E+01
                       1.1295437055E+01  5.4937223048E+00  1.0682405187E+01
                       5.4937223048E+00  1.1295437055E+01  1.0682405187E+01
                       7.1217768897E-20 -2.2807191978E-20 -2.7678588732E-20
             xred1     2.5517158367E-01  2.4724557683E-01  2.5033726268E-01
                       7.4966273732E-01  7.5275442317E-01  7.4482841633E-01
                       2.2374423846E-01  2.1025607261E-01  7.7625576154E-01
                       7.6157654999E-01  7.5739383461E-01  2.3842345001E-01
                       2.2374423846E-01  7.8974392739E-01  7.7625576154E-01
                       7.5950196332E-01  2.4456649671E-01  7.5136504326E-01
                       2.4863495674E-01  7.5543350329E-01  2.4049803668E-01
                       7.6157654999E-01  2.4260616539E-01  2.3842345001E-01
                       1.6387182025E-02  7.3416509469E-19 -1.6387182025E-02
             xred2     2.4724561075E-01  2.5517161033E-01  2.5033716817E-01
                       7.5275438925E-01  7.4966283183E-01  7.4482838967E-01
                       2.1025608112E-01  2.2374421819E-01  7.7625578181E-01
                       7.5739383242E-01  7.6157652108E-01  2.3842347892E-01
                       2.4456649002E-01  7.5950196864E-01  7.5136505132E-01
                       7.8974391888E-01  2.2374421819E-01  7.7625578181E-01
                       2.4260616758E-01  7.6157652108E-01  2.3842347892E-01
                       7.5543350998E-01  2.4863494868E-01  2.4049803136E-01
                       1.8446034080E-18  1.6387162005E-02 -1.6387162005E-02
             xred3     2.5045836096E-01  2.4718330697E-01  2.4718330697E-01
                       7.4482497490E-01  7.5281669303E-01  7.5281669303E-01
                       2.3838234321E-01  2.4261757029E-01  7.5738242971E-01
                       7.7622807669E-01  7.8976414446E-01  2.1023585554E-01
                       2.4052340941E-01  7.5542688058E-01  7.5542688058E-01
                       7.7622807669E-01  2.1023585554E-01  7.8976414446E-01
                       2.3838234321E-01  7.5738242971E-01  2.4261757029E-01
                       7.5137717057E-01  2.4457311942E-01  2.4457311942E-01
                      -1.6404755614E-02 -7.3202751594E-19  7.3202751594E-19
             xred4     2.5000000000E-01  2.5000000000E-01  2.5000000000E-01
                       7.5000000000E-01  7.5000000000E-01  7.5000000000E-01
                       2.1645774289E-01  2.1645774289E-01  7.8354225711E-01
                       7.8354225711E-01  7.8354225711E-01  2.1645774289E-01
                       2.4318325524E-01  7.5681674476E-01  7.5681674476E-01
                       7.5681674476E-01  2.4318325524E-01  7.5681674476E-01
                       2.4318325524E-01  7.5681674476E-01  2.4318325524E-01
                       7.5681674476E-01  2.4318325524E-01  2.4318325524E-01
                      -5.4575994689E-21  2.8665548261E-21  3.4384485616E-21
            znucl       55.00000   53.00000   40.00000   17.00000

================================================================================

 chkinp: Checking input parameters for consistency, jdtset=   1.

 chkinp: Checking input parameters for consistency, jdtset=   2.

 chkinp: Checking input parameters for consistency, jdtset=   3.

 chkinp: Checking input parameters for consistency, jdtset=   4.

================================================================================
== DATASET  1 ==================================================================
-   mpi_nproc: 6, omp_nthreads: -1 (-1 if OMP is not activated)


--- !DatasetInfo
iteration_state: {dtset: 1, }
dimensions: {natom: 9, nkpt: 280, mband: 42, nsppol: 1, nspinor: 1, nspden: 1, mpw: 8408, }
cutoff_energies: {ecut:  16.0, pawecutdg:  40.0, }
electrons: {nelect:   7.20000000E+01, charge:   0.00000000E+00, occopt:   1.00000000E+00, tsmear:   1.00000000E-02, }
meta: {optdriver: 0, ionmov: 0, optcell: 0, iscf: 17, paral_kgb: 0, }
...

 Real(R)+Recip(G) space primitive vectors, cartesian coordinates (Bohr,Bohr^-1):
 R(1)=  0.1061556 11.2008687 11.0629882  G(1)= -0.0456336  0.0446394  0.0456336
 R(2)= 11.1691438  0.0000000 11.1691438  G(2)=  0.0447662 -0.0446394  0.0447662
 R(3)= 11.0629882 11.2008687  0.1061556  G(3)=  0.0456336  0.0446394 -0.0456336
 Unit cell volume ucvol=  2.7414896E+03 bohr^3
 Angles (23,13,12)=  5.98907413E+01  5.89593524E+01  5.98907413E+01 degrees

 Coarse grid specifications (used for wave-functions):

 getcut: wavevector=  0.0000  0.0000  0.0000  ngfft=  60  60  60
         ecut(hartree)=     16.000   => boxcut(ratio)=   2.10956

 Fine grid specifications (used for densities):

 getcut: wavevector=  0.0000  0.0000  0.0000  ngfft=  90  90  90
         ecut(hartree)=     40.000   => boxcut(ratio)=   2.00155

--- Pseudopotential description ------------------------------------------------
- pspini: atom type   1  psp file is ../../../Psps_for_tests/ATOMICDATA/Cs.GGA_PBE-JTH.xml
- pspatm: opening atomic psp file    ../../../Psps_for_tests/ATOMICDATA/Cs.GGA_PBE-JTH.xml
- pspatm : Reading pseudopotential header in XML form from ../../../Psps_for_tests/ATOMICDATA/Cs.GGA_PBE-JTH.xml
 Pseudopotential format is: paw10
 basis_size (lnmax)=  6 (lmn_size= 18), orbitals=   0   0   1   1   2   2
 Spheres core radius: rc_sph= 2.20660278
 1 radial meshes are used:
  - mesh 1: r(i)=AA*[exp(BB*(i-1))-1], size=1500 , AA= 0.15922E-03 BB= 0.87573E-02
 Shapefunction is SIN type: shapef(r)=[sin(pi*r/rshp)/(pi*r/rshp)]**2
 Radius for shape functions =  2.00394208
 mmax= 1500
 Radial grid used for partial waves is grid 1
 Radial grid used for projectors is grid 1
 Radial grid used for (t)core density is grid 1
 Radial grid used for Vloc is grid 1
 Radial grid used for pseudo valence density is grid 1
 Mesh size for Vloc has been set to 1341 to avoid numerical noise.
 Compensation charge density is not taken into account in XC energy/potential
 pspatm: atomic psp has been read  and splines computed

- pspini: atom type   2  psp file is ../../../Psps_for_tests/ATOMICDATA/I.GGA_PBE-JTH.xml
- pspatm: opening atomic psp file    ../../../Psps_for_tests/ATOMICDATA/I.GGA_PBE-JTH.xml
- pspatm : Reading pseudopotential header in XML form from ../../../Psps_for_tests/ATOMICDATA/I.GGA_PBE-JTH.xml
 Pseudopotential format is: paw10
 basis_size (lnmax)=  4 (lmn_size=  8), orbitals=   0   0   1   1
 Spheres core radius: rc_sph= 2.30022271
 1 radial meshes are used:
  - mesh 1: r(i)=AA*[exp(BB*(i-1))-1], size=2000 , AA= 0.12610E-03 BB= 0.66836E-02
 Shapefunction is SIN type: shapef(r)=[sin(pi*r/rshp)/(pi*r/rshp)]**2
 Radius for shape functions =  2.10879093
 mmax= 2000
 Radial grid used for partial waves is grid 1
 Radial grid used for projectors is grid 1
 Radial grid used for (t)core density is grid 1
 Radial grid used for Vloc is grid 1
 Radial grid used for pseudo valence density is grid 1
 Mesh size for Vloc has been set to 1792 to avoid numerical noise.
 Compensation charge density is not taken into account in XC energy/potential
 pspatm: atomic psp has been read  and splines computed

- pspini: atom type   3  psp file is ../../../Psps_for_tests/ATOMICDATA/Zr.GGA_PBE-JTH.xml
- pspatm: opening atomic psp file    ../../../Psps_for_tests/ATOMICDATA/Zr.GGA_PBE-JTH.xml
- pspatm : Reading pseudopotential header in XML form from ../../../Psps_for_tests/ATOMICDATA/Zr.GGA_PBE-JTH.xml
 Pseudopotential format is: paw10
 basis_size (lnmax)=  6 (lmn_size= 18), orbitals=   0   0   1   1   2   2
 Spheres core radius: rc_sph= 2.21000000
 1 radial meshes are used:
  - mesh 1: r(i)=AA*[exp(BB*(i-1))-1], size= 941 , AA= 0.35256E-03 BB= 0.14102E-01
 Shapefunction is BESSEL type: shapef(r,l)=aa(1,l)*jl(q(1,l)*r)+aa(2,l)*jl(q(2,l)*r)
 Radius for shape functions =  2.21000000
 mmax=  941
 Radial grid used for partial waves is grid 1
 Radial grid used for projectors is grid 1
 Radial grid used for (t)core density is grid 1
 Radial grid used for Vloc is grid 1
 Radial grid used for pseudo valence density is grid 1
 Mesh size for Vloc has been set to  777 to avoid numerical noise.
 Compensation charge density is not taken into account in XC energy/potential
 pspatm: atomic psp has been read  and splines computed

- pspini: atom type   4  psp file is ../../../Psps_for_tests/ATOMICDATA/Cl.GGA_PBE-JTH.xml
- pspatm: opening atomic psp file    ../../../Psps_for_tests/ATOMICDATA/Cl.GGA_PBE-JTH.xml
- pspatm : Reading pseudopotential header in XML form from ../../../Psps_for_tests/ATOMICDATA/Cl.GGA_PBE-JTH.xml
 Pseudopotential format is: paw10
 basis_size (lnmax)=  4 (lmn_size=  8), orbitals=   0   0   1   1
 Spheres core radius: rc_sph= 1.80315674
 1 radial meshes are used:
  - mesh 1: r(i)=AA*[exp(BB*(i-1))-1], size=1400 , AA= 0.50355E-03 BB= 0.85603E-02
 Shapefunction is SIN type: shapef(r)=[sin(pi*r/rshp)/(pi*r/rshp)]**2
 Radius for shape functions =  1.61320365
 mmax= 1400
 Radial grid used for partial waves is grid 1
 Radial grid used for projectors is grid 1
 Radial grid used for (t)core density is grid 1
 Radial grid used for Vloc is grid 1
 Radial grid used for pseudo valence density is grid 1
 Mesh size for Vloc has been set to 1238 to avoid numerical noise.
 Compensation charge density is not taken into account in XC energy/potential
 pspatm: atomic psp has been read  and splines computed

   3.31979095E+04                                ecore*ucvol(ha*bohr**3)
--------------------------------------------------------------------------------

_setup2: Arith. and geom. avg. npw (full set) are    8380.134    8380.128

================================================================================

--- !BeginCycle
iteration_state: {dtset: 1, }
solver: {iscf: 17, nstep: 2500, nline: 4, wfoptalg: 10, }
tolerances: {toldfe: 1.00E-08, }
...

     iter   Etot(hartree)      deltaE(h)  residm     nres2
 ETOT  1  -165.65268865445    -1.657E+02 1.917E-01 1.575E+01
 ETOT  2  -165.82582159500    -1.731E-01 1.511E-02 3.629E+00
 ETOT  3  -165.82236571803     3.456E-03 3.811E-03 7.527E-01
 ETOT  4  -165.82294630179    -5.806E-04 4.734E-03 6.340E-02
 ETOT  5  -165.82262353346     3.228E-04 1.344E-03 8.068E-03
 ETOT  6  -165.82268213821    -5.860E-05 1.616E-03 1.391E-03
 ETOT  7  -165.82268299657    -8.584E-07 7.085E-04 4.379E-04
 ETOT  8  -165.82268469376    -1.697E-06 4.312E-04 7.639E-05
 ETOT  9  -165.82268465105     4.270E-08 1.463E-04 2.190E-05
 ETOT 10  -165.82268465087     1.791E-10 2.294E-04 1.973E-06
 ETOT 11  -165.82268466682    -1.595E-08 1.013E-04 7.717E-07
 ETOT 12  -165.82268466670     1.216E-10 1.611E-04 1.689E-07
 ETOT 13  -165.82268466755    -8.511E-10 7.509E-05 5.636E-08

 At SCF step   13, etot is converged : 
  for the second time, diff in etot=  8.511E-10 < toldfe=  1.000E-08

 Cartesian components of stress tensor (hartree/bohr^3)
  sigma(1 1)=  3.21350859E-06  sigma(3 2)= -1.87174947E-13
  sigma(2 2)=  3.08286361E-06  sigma(3 1)= -6.91385750E-09
  sigma(3 3)=  3.21350859E-06  sigma(2 1)= -1.87174679E-13


--- !ResultsGS
iteration_state: {dtset: 1, }
comment   : Summary of ground state results
lattice_vectors:
- [  0.1061556,  11.2008687,  11.0629882, ]
- [ 11.1691438,   0.0000000,  11.1691438, ]
- [ 11.0629882,  11.2008687,   0.1061556, ]
lattice_lengths: [  15.74358,   15.79555,   15.74358, ]
lattice_angles: [ 59.891,  58.959,  59.891, ] # degrees, (23, 13, 12)
lattice_volume:   2.7414896E+03
convergence: {deltae: -8.511E-10, res2:  5.636E-08, residm:  7.509E-05, diffor: null, }
etotal    :  -1.65822685E+02
entropy   :   0.00000000E+00
fermie    :  -7.87100447E-02
cartesian_stress_tensor: # hartree/bohr^3
- [  3.21350859E-06,  -1.87174679E-13,  -6.91385750E-09, ]
- [ -1.87174679E-13,   3.08286361E-06,  -1.87174947E-13, ]
- [ -6.91385750E-09,  -1.87174947E-13,   3.21350859E-06, ]
pressure_GPa:  -9.3263E-02
xred      :
- [  2.5517E-01,   2.4725E-01,   2.5034E-01, Cs]
- [  7.4966E-01,   7.5275E-01,   7.4483E-01, Cs]
- [  2.2374E-01,   2.1026E-01,   7.7626E-01, Cl]
- [  7.6158E-01,   7.5739E-01,   2.3842E-01,  I]
- [  2.2374E-01,   7.8974E-01,   7.7626E-01, Cl]
- [  7.5950E-01,   2.4457E-01,   7.5137E-01,  I]
- [  2.4863E-01,   7.5543E-01,   2.4050E-01,  I]
- [  7.6158E-01,   2.4261E-01,   2.3842E-01,  I]
- [  1.6387E-02,   7.3417E-19,  -1.6387E-02, Zr]
cartesian_forces: # hartree/bohr
- [ -5.30630394E-06,  -5.30221749E-06,   5.30630394E-06, ]
- [ -5.30630394E-06,   5.30221749E-06,   5.30630394E-06, ]
- [ -3.02938331E-05,   2.82870041E-15,  -3.65087003E-05, ]
- [ -1.35940720E-05,   2.33323834E-15,  -4.15075724E-05, ]
- [  3.65087003E-05,  -2.82870386E-15,   3.02938331E-05, ]
- [ -1.00188933E-05,   4.82341375E-06,   1.00188933E-05, ]
- [ -1.00188933E-05,  -4.82341375E-06,   1.00188933E-05, ]
- [  4.15075724E-05,  -2.33323868E-15,   1.35940720E-05, ]
- [ -3.47797321E-06,   6.94910123E-22,   3.47797321E-06, ]
force_length_stats: {min:   4.91859688E-06, max:   4.74405051E-05, mean:   2.61627901E-05, }
...

 Integrated electronic density in atomic spheres:
 ------------------------------------------------
 Atom  Sphere_radius  Integrated_density
    1        2.20660          5.35546161
    2        2.20660          5.35546161
    3        1.80316          4.36581355
    4        2.30022          4.01205931
    5        1.80316          4.36581355
    6        2.30022          4.00897687
    7        2.30022          4.00897687
    8        2.30022          4.01205931
    9        2.21000          8.81360912

 PAW TEST:
 ==== Compensation charge inside spheres ============
 The following values must be close to each other ...
 Compensation charge over spherical meshes =     -5.488355438807004
 Compensation charge over fine fft grid    =     -5.488354372284752

 ==== Results concerning PAW augmentation regions ====

 Total pseudopotential strength Dij (hartree):
 Atom #  1
   0.43954  -0.14556  -0.00001   0.00000  -0.00000   0.00002  -0.00001   0.00001   0.00000  -0.00000  -0.00000   0.00000 ...
  -0.14556   0.04386   0.00000  -0.00000   0.00000  -0.00001   0.00000  -0.00000  -0.00000   0.00000   0.00000  -0.00000 ...
  -0.00001   0.00000  -0.09351  -0.00000   0.00000  -0.16659   0.00000  -0.00000  -0.00000   0.00000   0.00000  -0.00000 ...
   0.00000  -0.00000  -0.00000  -0.09351   0.00000   0.00000  -0.16658  -0.00000  -0.00000  -0.00000   0.00000  -0.00000 ...
  -0.00000   0.00000   0.00000   0.00000  -0.09351  -0.00000  -0.00000  -0.16658  -0.00000  -0.00000   0.00000   0.00000 ...
   0.00002  -0.00001  -0.16659   0.00000  -0.00000   0.40376  -0.00001   0.00001   0.00000  -0.00000  -0.00000   0.00000 ...
  -0.00001   0.00000   0.00000  -0.16658  -0.00000  -0.00001   0.40375   0.00000   0.00000   0.00000  -0.00000   0.00000 ...
   0.00001  -0.00000  -0.00000  -0.00000  -0.16658   0.00001   0.00000   0.40375   0.00000   0.00000  -0.00000  -0.00000 ...
   0.00000  -0.00000  -0.00000  -0.00000  -0.00000   0.00000   0.00000   0.00000   0.00524   0.00000  -0.00000  -0.00000 ...
  -0.00000   0.00000   0.00000  -0.00000  -0.00000  -0.00000   0.00000   0.00000   0.00000   0.00524  -0.00000   0.00000 ...
  -0.00000   0.00000   0.00000   0.00000   0.00000  -0.00000  -0.00000  -0.00000  -0.00000  -0.00000   0.00524   0.00000 ...
   0.00000  -0.00000  -0.00000  -0.00000   0.00000   0.00000   0.00000  -0.00000  -0.00000   0.00000   0.00000   0.00524 ...
   ...  only 12  components have been written...
 Atom #  9
   3.08312  -0.89804   0.00000   0.00001  -0.00001   0.00000  -0.00001   0.00001   0.00000   0.00000   0.00004  -0.00001 ...
  -0.89804   0.26838   0.00000   0.00001  -0.00001   0.00000  -0.00000   0.00000   0.00000   0.00000  -0.00000   0.00000 ...
   0.00000   0.00000   0.26705   0.00000   0.00000  -0.05423   0.00000   0.00000  -0.00012   0.00012   0.00000   0.00000 ...
   0.00001   0.00001   0.00000   0.26716   0.00000   0.00000  -0.05425   0.00000   0.00000   0.00000   0.00013  -0.00012 ...
  -0.00001  -0.00001   0.00000   0.00000   0.26716   0.00000   0.00000  -0.05425   0.00000   0.00000   0.00007   0.00012 ...
   0.00000   0.00000  -0.05423   0.00000   0.00000   0.01489   0.00000   0.00000   0.00002  -0.00002   0.00000   0.00000 ...
  -0.00001  -0.00000   0.00000  -0.05425   0.00000   0.00000   0.01490  -0.00000   0.00000   0.00000  -0.00002   0.00002 ...
   0.00001   0.00000   0.00000   0.00000  -0.05425   0.00000  -0.00000   0.01490   0.00000   0.00000  -0.00001  -0.00002 ...
   0.00000   0.00000  -0.00012   0.00000   0.00000   0.00002   0.00000   0.00000  -0.01649  -0.00001   0.00000   0.00000 ...
   0.00000   0.00000   0.00012   0.00000   0.00000  -0.00002   0.00000   0.00000  -0.00001  -0.01649   0.00000   0.00000 ...
   0.00004  -0.00000   0.00000   0.00013   0.00007   0.00000  -0.00002  -0.00001   0.00000   0.00000  -0.01635  -0.00000 ...
  -0.00001   0.00000   0.00000  -0.00012   0.00012   0.00000   0.00002  -0.00002   0.00000   0.00000  -0.00000  -0.01642 ...
   ...  only 12  components have been written...


 Augmentation waves occupancies Rhoij:
 Atom #  1
   1.99683  -0.01669  -0.00002  -0.00001   0.00001  -0.00005   0.00002  -0.00002   0.00324  -0.00324  -0.00076   0.00071 ...
  -0.01669   0.11611  -0.00388   0.00212  -0.00212   0.00011  -0.00006   0.00006  -0.01487   0.01487   0.00551  -0.00474 ...
  -0.00002  -0.00388   2.00758   0.00200  -0.00200  -0.00480  -0.00031   0.00031  -0.00164   0.00164   0.00113   0.00043 ...
  -0.00001   0.00212   0.00200   2.00927  -0.00049  -0.00031  -0.00507   0.00007   0.00061  -0.00242   0.00039  -0.00157 ...
   0.00001  -0.00212  -0.00200  -0.00049   2.00927   0.00031   0.00007  -0.00507  -0.00242   0.00061   0.00022   0.00157 ...
  -0.00005   0.00011  -0.00480  -0.00031   0.00031   0.00007   0.00001  -0.00001   0.00003  -0.00003  -0.00002  -0.00002 ...
   0.00002  -0.00006  -0.00031  -0.00507   0.00007   0.00001   0.00009  -0.00000  -0.00003   0.00006   0.00001   0.00005 ...
  -0.00002   0.00006   0.00031   0.00007  -0.00507  -0.00001  -0.00000   0.00009   0.00006  -0.00003   0.00002  -0.00005 ...
   0.00324  -0.01487  -0.00164   0.00061  -0.00242   0.00003  -0.00003   0.00006   0.02803   0.00094   0.01035  -0.00020 ...
  -0.00324   0.01487   0.00164  -0.00242   0.00061  -0.00003   0.00006  -0.00003   0.00094   0.02803   0.00464   0.00020 ...
  -0.00076   0.00551   0.00113   0.00039   0.00022  -0.00002   0.00001   0.00002   0.01035   0.00464   0.02007  -0.00151 ...
   0.00071  -0.00474   0.00043  -0.00157   0.00157  -0.00002   0.00005  -0.00005  -0.00020   0.00020  -0.00151   0.04533 ...
   ...  only 12  components have been written...
 Atom #  9
   1.99251  -0.06784   0.00000  -0.00084   0.00084   0.00000  -0.00421   0.00421   0.00000   0.00000  -0.00160  -0.00043 ...
  -0.06784   1.04918   0.00000  -0.00697   0.00697   0.00000   0.07360  -0.07360   0.00000   0.00000   0.02713   0.00255 ...
   0.00000   0.00000   1.96743   0.00000   0.00000  -0.19749   0.00000   0.00000  -0.00064   0.00064   0.00000   0.00000 ...
  -0.00084  -0.00697   0.00000   1.96529  -0.00001   0.00000  -0.20880  -0.00013   0.00000   0.00000  -0.00262  -0.00054 ...
   0.00084   0.00697   0.00000  -0.00001   1.96529   0.00000  -0.00013  -0.20880   0.00000   0.00000  -0.00122   0.00054 ...
   0.00000   0.00000  -0.19749   0.00000   0.00000   1.41651   0.00000   0.00000   0.02449  -0.02449   0.00000   0.00000 ...
  -0.00421   0.07360   0.00000  -0.20880  -0.00013   0.00000   1.66616   0.00831   0.00000   0.00000   0.20854   0.01570 ...
   0.00421  -0.07360   0.00000  -0.00013  -0.20880   0.00000   0.00831   1.66616   0.00000   0.00000   0.10398  -0.01570 ...
   0.00000   0.00000  -0.00064   0.00000   0.00000   0.02449   0.00000   0.00000   0.44953  -0.00181   0.00000   0.00000 ...
   0.00000   0.00000   0.00064   0.00000   0.00000  -0.02449   0.00000   0.00000  -0.00181   0.44953   0.00000   0.00000 ...
  -0.00160   0.02713   0.00000  -0.00262  -0.00122   0.00000   0.20854   0.10398   0.00000   0.00000   1.42059   0.00230 ...
  -0.00043   0.00255   0.00000  -0.00054   0.00054   0.00000   0.01570  -0.01570   0.00000   0.00000   0.00230   0.48844 ...
   ...  only 12  components have been written...


================================================================================

 ----iterations are completed or convergence reached----

 Mean square residual over all n,k,spin=   64.294E-09; max=  75.095E-06
 reduced coordinates (array xred) for    9 atoms
       0.255171583670      0.247245576825      0.250337262680
       0.749662737320      0.752754423175      0.744828416330
       0.223744238460      0.210256072610      0.776255761540
       0.761576549990      0.757393834610      0.238423450010
       0.223744238460      0.789743927390      0.776255761540
       0.759501963320      0.244566496710      0.751365043260
       0.248634956740      0.755433503290      0.240498036680
       0.761576549990      0.242606165390      0.238423450010
       0.016387182025      0.000000000000     -0.016387182025
 rms dE/dt=  3.3332E-04; max dE/dt=  7.4613E-04; dE/dt below (all hartree)
    1      -0.000015038540      0.000000000000      0.000133817424
    2      -0.000133817424      0.000000000000      0.000015038540
    3       0.000390823482      0.000746127100      0.000355303618
    4       0.000444353172      0.000615438189      0.000171085016
    5      -0.000355303618     -0.000746127100     -0.000390823482
    6      -0.000180089459      0.000000000000      0.000072036611
    7      -0.000072036611      0.000000000000      0.000180089459
    8      -0.000171085016     -0.000615438189     -0.000444353172
    9      -0.000054395268      0.000000000000      0.000054395268

 cartesian coordinates (angstrom) at end:
    1      2.94121320883013     2.99627448813420     2.96924311488867
    2      8.85166953254340     8.85821434927642     8.87969943860194
    3      5.79969771415124     5.92724441870531     2.59617727762519
    4      5.91512274898838     5.92724441870531     8.94841993322687
    5      9.22473536980689     5.92724441870531     6.02121493328084
    6      5.88686696089552     8.95527803215730     5.93404568679300
    7      5.88686696063908     2.89921080525332     5.93404568653656
    8      2.87249271420520     5.92724441870531     5.90578989844369
    9     -0.09501462018659    -0.00000000000000     0.09501462018659

 cartesian forces (hartree/bohr) at end:
    1     -0.00000530630394    -0.00000530221749     0.00000530630394
    2     -0.00000530630394     0.00000530221749     0.00000530630394
    3     -0.00003029383307     0.00000000000000    -0.00003650870032
    4     -0.00001359407202     0.00000000000000    -0.00004150757243
    5      0.00003650870032    -0.00000000000000     0.00003029383307
    6     -0.00001001889328     0.00000482341375     0.00001001889328
    7     -0.00001001889328    -0.00000482341375     0.00001001889328
    8      0.00004150757243    -0.00000000000000     0.00001359407202
    9     -0.00000347797321     0.00000000000000     0.00000347797321
 frms,max,avg= 1.8214411E-05 4.1507572E-05  -1.487E-06  0.000E+00  1.487E-06 h/b

 cartesian forces (eV/Angstrom) at end:
    1     -0.00027286109639    -0.00027265096281     0.00027286109639
    2     -0.00027286109639     0.00027265096281     0.00027286109639
    3     -0.00155777139831     0.00000000000015    -0.00187735269468
    4     -0.00069903523061     0.00000000000012    -0.00213440501226
    5      0.00187735269468    -0.00000000000015     0.00155777139831
    6     -0.00051519216351     0.00024802988663     0.00051519216351
    7     -0.00051519216351    -0.00024802988663     0.00051519216351
    8      0.00213440501226    -0.00000000000012     0.00069903523061
    9     -0.00017884455821     0.00000000000000     0.00017884455821
 frms,max,avg= 9.3662257E-04 2.1344050E-03  -7.644E-05  0.000E+00  7.644E-05 e/A
 length scales= 15.743583964000 15.795554602000 15.743583964000 bohr
              =  8.331145815272  8.358647492417  8.331145815272 angstroms
 prteigrs : about to open file Cs2TiI6o_DS1_EIG
 Fermi (or HOMO) energy (hartree) =  -0.07871   Average Vxc (hartree)=  -0.27443
 Eigenvalues (hartree) for nkpt= 280  k points:
 kpt#   1, nband= 42, wtk=  0.00058, kpt=  0.0000  0.0000  0.0000 (reduced coord)
  -1.89837   -1.08945   -1.08918   -1.08816   -0.83660   -0.83649   -0.60417   -0.59960
  -0.49871   -0.48883   -0.48395   -0.48291   -0.35328   -0.35306   -0.35275   -0.35157
  -0.35144   -0.35136   -0.21575   -0.19862   -0.19064   -0.18349   -0.17894   -0.17167
  -0.16380   -0.15861   -0.15038   -0.13353   -0.13101   -0.11602   -0.10895   -0.09928
  -0.09891   -0.08454   -0.08301   -0.07871   -0.00636   -0.00616   -0.00029    0.06667
   0.07671    0.09066
 prteigrs : prtvol=0 or 1, do not print more k-points.


--- !EnergyTerms
iteration_state     : {dtset: 1, }
comment             : Components of total free energy in Hartree
kinetic             :  4.93136556280485E+01
hartree             :  4.35692340162008E+01
xc                  : -5.58033493793494E+01
Ewald energy        : -1.11979468187760E+02
psp_core            :  1.21094418482775E+01
local_psp           : -1.31155821231202E+02
spherical_terms     :  2.81235592028331E+01
total_energy        : -1.65822748102952E+02
total_energy_eV     : -4.51226645134951E+03
...


--- !EnergyTermsDC
iteration_state     : {dtset: 1, }
comment             : '"Double-counting" decomposition of free energy'
band_energy         : -2.94183455513020E+01
Ewald energy        : -1.11979468187760E+02
psp_core            :  1.21094418482775E+01
xc_dc               : -5.69995391951489E+01
spherical_terms     :  2.04652264183818E+01
total_energy_dc     : -1.65822684667552E+02
total_energy_dc_eV  : -4.51226472518449E+03
...


 Cartesian components of stress tensor (hartree/bohr^3)
  sigma(1 1)=  3.21350859E-06  sigma(3 2)= -1.87174947E-13
  sigma(2 2)=  3.08286361E-06  sigma(3 1)= -6.91385750E-09
  sigma(3 3)=  3.21350859E-06  sigma(2 1)= -1.87174679E-13

-Cartesian components of stress tensor (GPa)         [Pressure= -9.3263E-02 GPa]
- sigma(1 1)=  9.45446709E-02  sigma(3 2)= -5.50687613E-09
- sigma(2 2)=  9.07009634E-02  sigma(3 1)= -2.03412676E-04
- sigma(3 3)=  9.45446709E-02  sigma(2 1)= -5.50686827E-09

================================================================================
== DATASET  2 ==================================================================
-   mpi_nproc: 6, omp_nthreads: -1 (-1 if OMP is not activated)


--- !DatasetInfo
iteration_state: {dtset: 2, }
dimensions: {natom: 9, nkpt: 280, mband: 42, nsppol: 1, nspinor: 1, nspden: 1, mpw: 8408, }
cutoff_energies: {ecut:  16.0, pawecutdg:  40.0, }
electrons: {nelect:   7.20000000E+01, charge:   0.00000000E+00, occopt:   1.00000000E+00, tsmear:   1.00000000E-02, }
meta: {optdriver: 0, ionmov: 0, optcell: 0, iscf: 17, paral_kgb: 0, }
...

 Real(R)+Recip(G) space primitive vectors, cartesian coordinates (Bohr,Bohr^-1):
 R(1)=  0.0000000 11.1691435 11.1691435  G(1)= -0.0446394  0.0447662  0.0447662
 R(2)= 11.2008690  0.1061556 11.0629880  G(2)=  0.0446394 -0.0456336  0.0456336
 R(3)= 11.2008690 11.0629880  0.1061556  G(3)=  0.0446394  0.0456336 -0.0456336
 Unit cell volume ucvol=  2.7414896E+03 bohr^3
 Angles (23,13,12)=  5.89593507E+01  5.98907422E+01  5.98907422E+01 degrees

 Coarse grid specifications (used for wave-functions):

 getcut: wavevector=  0.0000  0.0000  0.0000  ngfft=  60  60  60
         ecut(hartree)=     16.000   => boxcut(ratio)=   2.10956

 Fine grid specifications (used for densities):

 getcut: wavevector=  0.0000  0.0000  0.0000  ngfft=  90  90  90
         ecut(hartree)=     40.000   => boxcut(ratio)=   2.00155
--------------------------------------------------------------------------------

_setup2: Arith. and geom. avg. npw (full set) are    8380.134    8380.128

================================================================================

--- !BeginCycle
iteration_state: {dtset: 2, }
solver: {iscf: 17, nstep: 2500, nline: 4, wfoptalg: 10, }
tolerances: {toldfe: 1.00E-08, }
...

     iter   Etot(hartree)      deltaE(h)  residm     nres2
 ETOT  1  -165.65000146150    -1.657E+02 2.168E-01 1.570E+01
 ETOT  2  -165.82575778684    -1.758E-01 2.109E-02 3.610E+00
 ETOT  3  -165.82236779561     3.390E-03 5.646E-03 7.521E-01
 ETOT  4  -165.82294196039    -5.742E-04 9.156E-03 6.288E-02
 ETOT  5  -165.82262368520     3.183E-04 1.385E-03 8.106E-03
 ETOT  6  -165.82268226931    -5.858E-05 1.940E-03 1.417E-03
 ETOT  7  -165.82268300456    -7.353E-07 9.637E-04 4.542E-04
 ETOT  8  -165.82268468609    -1.682E-06 7.602E-04 7.796E-05
 ETOT  9  -165.82268465199     3.410E-08 3.794E-04 2.272E-05
 ETOT 10  -165.82268465054     1.452E-09 3.347E-04 1.999E-06
 ETOT 11  -165.82268466693    -1.639E-08 2.338E-04 7.471E-07
 ETOT 12  -165.82268466685     7.685E-11 2.080E-04 1.651E-07
 ETOT 13  -165.82268466768    -8.341E-10 8.994E-05 5.386E-08

 At SCF step   13, etot is converged : 
  for the second time, diff in etot=  8.341E-10 < toldfe=  1.000E-08

 Cartesian components of stress tensor (hartree/bohr^3)
  sigma(1 1)=  3.08409522E-06  sigma(3 2)= -6.93944070E-09
  sigma(2 2)=  3.21479236E-06  sigma(3 1)=  7.60522037E-14
  sigma(3 3)=  3.21479236E-06  sigma(2 1)=  7.60518181E-14


--- !ResultsGS
iteration_state: {dtset: 2, }
comment   : Summary of ground state results
lattice_vectors:
- [  0.0000000,  11.1691435,  11.1691435, ]
- [ 11.2008690,   0.1061556,  11.0629880, ]
- [ 11.2008690,  11.0629880,   0.1061556, ]
lattice_lengths: [  15.79555,   15.74358,   15.74358, ]
lattice_angles: [ 58.959,  59.891,  59.891, ] # degrees, (23, 13, 12)
lattice_volume:   2.7414896E+03
convergence: {deltae: -8.341E-10, res2:  5.386E-08, residm:  8.994E-05, diffor: null, }
etotal    :  -1.65822685E+02
entropy   :   0.00000000E+00
fermie    :  -7.87100095E-02
cartesian_stress_tensor: # hartree/bohr^3
- [  3.08409522E-06,   7.60518181E-14,   7.60522037E-14, ]
- [  7.60518181E-14,   3.21479236E-06,  -6.93944070E-09, ]
- [  7.60522037E-14,  -6.93944070E-09,   3.21479236E-06, ]
pressure_GPa:  -9.3301E-02
xred      :
- [  2.4725E-01,   2.5517E-01,   2.5034E-01, Cs]
- [  7.5275E-01,   7.4966E-01,   7.4483E-01, Cs]
- [  2.1026E-01,   2.2374E-01,   7.7626E-01, Cl]
- [  7.5739E-01,   7.6158E-01,   2.3842E-01,  I]
- [  2.4457E-01,   7.5950E-01,   7.5137E-01,  I]
- [  7.8974E-01,   2.2374E-01,   7.7626E-01, Cl]
- [  2.4261E-01,   7.6158E-01,   2.3842E-01,  I]
- [  7.5543E-01,   2.4863E-01,   2.4050E-01,  I]
- [  1.8446E-18,   1.6387E-02,  -1.6387E-02, Zr]
cartesian_forces: # hartree/bohr
- [ -5.33079744E-06,  -5.34876835E-06,   5.34876835E-06, ]
- [  5.33079744E-06,  -5.34876835E-06,   5.34876835E-06, ]
- [ -1.15123870E-15,  -3.03778841E-05,  -3.65345759E-05, ]
- [ -9.46846592E-16,  -1.35542649E-05,  -4.14786255E-05, ]
- [  4.85617328E-06,  -1.00326030E-05,   1.00326030E-05, ]
- [  1.15123793E-15,   3.65345759E-05,   3.03778841E-05, ]
- [  9.46849198E-16,   4.14786255E-05,   1.35542649E-05, ]
- [ -4.85617328E-06,  -1.00326030E-05,   1.00326030E-05, ]
- [ -4.37053677E-22,  -3.31830960E-06,   3.31830960E-06, ]
force_length_stats: {min:   4.69279843E-06, max:   4.75141145E-05, mean:   2.61661897E-05, }
...

 Integrated electronic density in atomic spheres:
 ------------------------------------------------
 Atom  Sphere_radius  Integrated_density
    1        2.20660          5.35546158
    2        2.20660          5.35546158
    3        1.80316          4.36581422
    4        2.30022          4.01205883
    5        2.30022          4.00897658
    6        1.80316          4.36581422
    7        2.30022          4.01205883
    8        2.30022          4.00897658
    9        2.21000          8.81360933

 PAW TEST:
 ==== Compensation charge inside spheres ============
 The following values must be close to each other ...
 Compensation charge over spherical meshes =     -5.488355635193225
 Compensation charge over fine fft grid    =     -5.488354205005128

 ==== Results concerning PAW augmentation regions ====

 Total pseudopotential strength Dij (hartree):
 Atom #  1
   0.43954  -0.14556  -0.00000   0.00000  -0.00001   0.00001  -0.00001   0.00002   0.00000   0.00000  -0.00000  -0.00000 ...
  -0.14556   0.04386   0.00000  -0.00000   0.00000  -0.00000   0.00000  -0.00001  -0.00000  -0.00000   0.00000   0.00000 ...
  -0.00000   0.00000  -0.09351   0.00000   0.00000  -0.16658  -0.00000  -0.00000  -0.00000   0.00000   0.00000  -0.00000 ...
   0.00000  -0.00000   0.00000  -0.09351  -0.00000  -0.00000  -0.16658   0.00000  -0.00000  -0.00000   0.00000  -0.00000 ...
  -0.00001   0.00000   0.00000  -0.00000  -0.09351  -0.00000   0.00000  -0.16659  -0.00000  -0.00000   0.00000   0.00000 ...
   0.00001  -0.00000  -0.16658  -0.00000  -0.00000   0.40375   0.00000   0.00001   0.00000  -0.00000  -0.00000   0.00000 ...
  -0.00001   0.00000  -0.00000  -0.16658   0.00000   0.00000   0.40375  -0.00001   0.00000   0.00000  -0.00000   0.00000 ...
   0.00002  -0.00001  -0.00000   0.00000  -0.16659   0.00001  -0.00001   0.40376   0.00000   0.00000  -0.00000  -0.00000 ...
   0.00000  -0.00000  -0.00000  -0.00000  -0.00000   0.00000   0.00000   0.00000   0.00524  -0.00000  -0.00000   0.00000 ...
   0.00000  -0.00000   0.00000  -0.00000  -0.00000  -0.00000   0.00000   0.00000  -0.00000   0.00524   0.00000   0.00000 ...
  -0.00000   0.00000   0.00000   0.00000   0.00000  -0.00000  -0.00000  -0.00000  -0.00000   0.00000   0.00524  -0.00000 ...
  -0.00000   0.00000  -0.00000  -0.00000   0.00000   0.00000   0.00000  -0.00000   0.00000   0.00000  -0.00000   0.00524 ...
   ...  only 12  components have been written...
 Atom #  9
   3.08312  -0.89804  -0.00001   0.00001   0.00000   0.00001  -0.00001   0.00000   0.00000  -0.00001   0.00004   0.00000 ...
  -0.89804   0.26838  -0.00001   0.00001   0.00000   0.00000  -0.00000   0.00000   0.00000   0.00000  -0.00000   0.00000 ...
  -0.00001  -0.00001   0.26716   0.00000   0.00000  -0.05425   0.00000   0.00000   0.00000   0.00012   0.00007   0.00000 ...
   0.00001   0.00001   0.00000   0.26716   0.00000   0.00000  -0.05425   0.00000   0.00000  -0.00012   0.00013   0.00000 ...
   0.00000   0.00000   0.00000   0.00000   0.26705   0.00000   0.00000  -0.05423  -0.00012   0.00000   0.00000   0.00012 ...
   0.00001   0.00000  -0.05425   0.00000   0.00000   0.01490  -0.00000   0.00000   0.00000  -0.00002  -0.00001   0.00000 ...
  -0.00001  -0.00000   0.00000  -0.05425   0.00000  -0.00000   0.01490   0.00000   0.00000   0.00002  -0.00002   0.00000 ...
   0.00000   0.00000   0.00000   0.00000  -0.05423   0.00000   0.00000   0.01489   0.00002   0.00000   0.00000  -0.00002 ...
   0.00000   0.00000   0.00000   0.00000  -0.00012   0.00000   0.00000   0.00002  -0.01649   0.00000   0.00000  -0.00001 ...
  -0.00001   0.00000   0.00012  -0.00012   0.00000  -0.00002   0.00002   0.00000   0.00000  -0.01642  -0.00000   0.00000 ...
   0.00004  -0.00000   0.00007   0.00013   0.00000  -0.00001  -0.00002   0.00000   0.00000  -0.00000  -0.01635   0.00000 ...
   0.00000   0.00000   0.00000   0.00000   0.00012   0.00000   0.00000  -0.00002  -0.00001   0.00000   0.00000  -0.01649 ...
   ...  only 12  components have been written...


 Augmentation waves occupancies Rhoij:
 Atom #  1
   1.99683  -0.01669   0.00001  -0.00001  -0.00002  -0.00002   0.00002  -0.00005   0.00324   0.00071  -0.00076  -0.00324 ...
  -0.01669   0.11611  -0.00212   0.00212  -0.00388   0.00006  -0.00006   0.00011  -0.01487  -0.00474   0.00551   0.01487 ...
   0.00001  -0.00212   2.00927  -0.00049  -0.00200  -0.00507   0.00007   0.00031  -0.00242   0.00157   0.00022   0.00061 ...
  -0.00001   0.00212  -0.00049   2.00927   0.00200   0.00007  -0.00507  -0.00031   0.00061  -0.00157   0.00039  -0.00242 ...
  -0.00002  -0.00388  -0.00200   0.00200   2.00758   0.00031  -0.00031  -0.00480  -0.00164   0.00043   0.00113   0.00164 ...
  -0.00002   0.00006  -0.00507   0.00007   0.00031   0.00009  -0.00000  -0.00001   0.00006  -0.00005   0.00002  -0.00003 ...
   0.00002  -0.00006   0.00007  -0.00507  -0.00031  -0.00000   0.00009   0.00001  -0.00003   0.00005   0.00001   0.00006 ...
  -0.00005   0.00011   0.00031  -0.00031  -0.00480  -0.00001   0.00001   0.00007   0.00003  -0.00002  -0.00002  -0.00003 ...
   0.00324  -0.01487  -0.00242   0.00061  -0.00164   0.00006  -0.00003   0.00003   0.02803  -0.00020   0.01035   0.00094 ...
   0.00071  -0.00474   0.00157  -0.00157   0.00043  -0.00005   0.00005  -0.00002  -0.00020   0.04533  -0.00151   0.00020 ...
  -0.00076   0.00551   0.00022   0.00039   0.00113   0.00002   0.00001  -0.00002   0.01035  -0.00151   0.02007   0.00464 ...
  -0.00324   0.01487   0.00061  -0.00242   0.00164  -0.00003   0.00006  -0.00003   0.00094   0.00020   0.00464   0.02803 ...
   ...  only 12  components have been written...
 Atom #  9
   1.99251  -0.06784   0.00084  -0.00084   0.00000   0.00421  -0.00421   0.00000   0.00000  -0.00043  -0.00160   0.00000 ...
  -0.06784   1.04918   0.00697  -0.00697   0.00000  -0.07360   0.07360   0.00000   0.00000   0.00255   0.02713   0.00000 ...
   0.00084   0.00697   1.96529  -0.00001   0.00000  -0.20880  -0.00013   0.00000   0.00000   0.00054  -0.00122   0.00000 ...
  -0.00084  -0.00697  -0.00001   1.96529   0.00000  -0.00013  -0.20880   0.00000   0.00000  -0.00054  -0.00262   0.00000 ...
   0.00000   0.00000   0.00000   0.00000   1.96743   0.00000   0.00000  -0.19749  -0.00064   0.00000   0.00000   0.00064 ...
   0.00421  -0.07360  -0.20880  -0.00013   0.00000   1.66616   0.00831   0.00000   0.00000  -0.01570   0.10398   0.00000 ...
  -0.00421   0.07360  -0.00013  -0.20880   0.00000   0.00831   1.66616   0.00000   0.00000   0.01570   0.20854   0.00000 ...
   0.00000   0.00000   0.00000   0.00000  -0.19749   0.00000   0.00000   1.41651   0.02449   0.00000   0.00000  -0.02449 ...
   0.00000   0.00000   0.00000   0.00000  -0.00064   0.00000   0.00000   0.02449   0.44953   0.00000   0.00000  -0.00181 ...
  -0.00043   0.00255   0.00054  -0.00054   0.00000  -0.01570   0.01570   0.00000   0.00000   0.48844   0.00230   0.00000 ...
  -0.00160   0.02713  -0.00122  -0.00262   0.00000   0.10398   0.20854   0.00000   0.00000   0.00230   1.42059   0.00000 ...
   0.00000   0.00000   0.00000   0.00000   0.00064   0.00000   0.00000  -0.02449  -0.00181   0.00000   0.00000   0.44953 ...
   ...  only 12  components have been written...


================================================================================

 ----iterations are completed or convergence reached----

 Mean square residual over all n,k,spin=   81.793E-09; max=  89.945E-06
 reduced coordinates (array xred) for    9 atoms
       0.247245610750      0.255171610330      0.250337168170
       0.752754389250      0.749662831830      0.744828389670
       0.210256081120      0.223744218190      0.776255781810
       0.757393832420      0.761576521080      0.238423478920
       0.244566490020      0.759501968640      0.751365051320
       0.789743918880      0.223744218190      0.776255781810
       0.242606167580      0.761576521080      0.238423478920
       0.755433509980      0.248634948680      0.240498031360
       0.000000000000      0.016387162005     -0.016387162005
 rms dE/dt=  3.3350E-04; max dE/dt=  7.4735E-04; dE/dt below (all hartree)
    1       0.000000000000     -0.000015333301      0.000134752429
    2      -0.000000000000     -0.000134752429      0.000015333301
    3       0.000747354870      0.000390969049      0.000356385822
    4       0.000614670252      0.000443879089      0.000170791164
    5       0.000000000000     -0.000180756217      0.000071969496
    6      -0.000747354870     -0.000356385822     -0.000390969049
    7      -0.000614670252     -0.000170791164     -0.000443879089
    8       0.000000000000     -0.000071969496      0.000180756217
    9       0.000000000000     -0.000052795469      0.000052795469

 cartesian coordinates (angstrom) at end:
    1      2.99627417672790     2.94121279535979     2.96924340339862
    2      8.85821501975556     8.85166899412045     8.87969960215929
    3      5.92724459824173     5.79969776019607     2.59617715446956
    4      5.92724459824173     5.91512277781679     8.94841956445331
    5      8.95527838271949     5.88686684418703     5.93404555322785
    6      5.92724459824173     9.22473524304952     6.02121463732301
    7      5.92724459824173     2.87249283306577     5.90578961970229
    8      2.89921081376397     5.88686684429123     5.93404555333204
    9      0.00000000000000    -0.09501450215529     0.09501450215529

 cartesian forces (hartree/bohr) at end:
    1     -0.00000533079744    -0.00000534876835     0.00000534876835
    2      0.00000533079744    -0.00000534876835     0.00000534876835
    3     -0.00000000000000    -0.00003037788410    -0.00003653457592
    4     -0.00000000000000    -0.00001355426494    -0.00004147862548
    5      0.00000485617328    -0.00001003260303     0.00001003260303
    6      0.00000000000000     0.00003653457592     0.00003037788410
[...]
           strten3     3.0858514044E-06  3.2178976255E-06  3.2178976255E-06
                       2.6063510215E-08  7.2635106489E-14  7.2634964639E-14
           strten4     3.1365985073E-06  3.1365985073E-06  3.2094112425E-06
                      -1.2622151168E-14 -1.2620344909E-14  2.3871646413E-14
           symafm1       1    1    1    1
           symafm2       1    1    1    1
           symafm3       1    1    1    1
           symafm4       1    1    1    1    1    1    1    1    1    1
                         1    1    1    1    1    1
           symrel1     1  0  0   0  1  0   0  0  1       0  1 -1   0  1  0  -1  1  0
                       0  0 -1   0 -1  0  -1  0  0       1 -1  0   0 -1  0   0 -1  1
           symrel2     1  0  0   0  1  0   0  0  1       1  0  0   1  0 -1   1 -1  0
                      -1  0  0   0  0 -1   0 -1  0      -1  0  0  -1  1  0  -1  0  1
           symrel3     1  0  0   0  1  0   0  0  1       1  0  0   1  0 -1   1 -1  0
                       1  0  0   0  0  1   0  1  0       1  0  0   1 -1  0   1  0 -1
           symrel4     1  0  0   0  1  0   0  0  1      -1  0  0   0 -1  0   0  0 -1
                      -1  0  1   0 -1  1   0  0  1       1  0 -1   0  1 -1   0  0 -1
                       0  1 -1   1  0 -1   0  0 -1       0 -1  1  -1  0  1   0  0  1
                       0 -1  0  -1  0  0   0  0 -1       0  1  0   1  0  0   0  0  1
                       1  0  0   1  0 -1   1 -1  0      -1  0  0  -1  0  1  -1  1  0
                       0 -1  0   0 -1  1   1 -1  0       0  1  0   0  1 -1  -1  1  0
                       0  1 -1   0  1  0  -1  1  0       0 -1  1   0 -1  0   1 -1  0
                      -1  0  1  -1  0  0  -1  1  0       1  0 -1   1  0  0   1 -1  0
            tnons1     0.0000000  0.0000000  0.0000000     0.0000000  0.0000000  0.0000000
                       0.0000000  0.0000000  0.0000000     0.0000000  0.0000000  0.0000000
            tnons2     0.0000000  0.0000000  0.0000000    -0.0000000  0.0000000  0.0000000
                       0.0000000  0.0000000  0.0000000     0.0000000  0.0000000  0.0000000
            tnons3     0.0000000  0.0000000  0.0000000     0.0000000  0.0000000  0.0000000
                       0.0000000 -0.0000000  0.0000000     0.0000000 -0.0000000  0.0000000
            tnons4     0.0000000  0.0000000  0.0000000    -0.0000000  0.0000000  0.0000000
                      -0.0000000  0.0000000  0.0000000     0.0000000  0.0000000  0.0000000
                      -0.0000000  0.0000000  0.0000000    -0.0000000 -0.0000000  0.0000000
                      -0.0000000 -0.0000000  0.0000000    -0.0000000  0.0000000  0.0000000
                      -0.0000000  0.0000000  0.0000000    -0.0000000 -0.0000000  0.0000000
                      -0.0000000  0.0000000  0.0000000    -0.0000000  0.0000000  0.0000000
                      -0.0000000  0.0000000 -0.0000000    -0.0000000  0.0000000  0.0000000
                      -0.0000000 -0.0000000  0.0000000    -0.0000000  0.0000000 -0.0000000
           toldfe      1.00000000E-08 Hartree
            typat1     1  1  4  2  4  2  2  2  3
            typat2     1  1  4  2  2  4  2  2  3
            typat3     1  1  2  4  2  4  2  2  3
            typat4     1  1  4  4  2  2  2  2  3
           useylm           1
              wtk1       0.00058    0.00231    0.00231    0.00231    0.00231    0.00231
                         0.00116    0.00231    0.00231    0.00463    0.00463    0.00463
                         0.00463    0.00463    0.00463    0.00463    0.00463    0.00463
                         0.00463    0.00231    0.00463    0.00231    0.00463    0.00463
                         0.00463    0.00463    0.00463    0.00463    0.00463    0.00463
                         0.00463    0.00231    0.00463    0.00463    0.00231    0.00463
                         0.00463    0.00463    0.00463    0.00463    0.00463    0.00463
                         0.00463    0.00231    0.00463    0.00463    0.00463    0.00231
                         0.00463    0.00463
              wtk2       0.00058    0.00231    0.00231    0.00231    0.00231    0.00231
                         0.00116    0.00231    0.00231    0.00463    0.00463    0.00463
                         0.00463    0.00463    0.00463    0.00463    0.00463    0.00463
                         0.00463    0.00231    0.00463    0.00231    0.00463    0.00463
                         0.00463    0.00463    0.00463    0.00463    0.00463    0.00463
                         0.00463    0.00231    0.00463    0.00463    0.00231    0.00463
                         0.00463    0.00463    0.00463    0.00463    0.00463    0.00463
                         0.00463    0.00231    0.00463    0.00463    0.00463    0.00231
                         0.00463    0.00463
              wtk3       0.00058    0.00231    0.00231    0.00231    0.00231    0.00231
                         0.00116    0.00231    0.00231    0.00463    0.00463    0.00463
                         0.00463    0.00463    0.00463    0.00463    0.00463    0.00463
                         0.00463    0.00231    0.00463    0.00231    0.00463    0.00463
                         0.00463    0.00463    0.00463    0.00463    0.00463    0.00463
                         0.00463    0.00231    0.00463    0.00463    0.00231    0.00463
                         0.00463    0.00463    0.00463    0.00463    0.00463    0.00463
                         0.00463    0.00231    0.00463    0.00463    0.00463    0.00231
                         0.00463    0.00463
              wtk4       0.00058    0.00463    0.00463    0.00463    0.00463    0.00463
                         0.00231    0.00116    0.00463    0.00463    0.00463    0.00463
                         0.00463    0.00463    0.00463    0.00463    0.00463    0.00231
                         0.00116    0.00463    0.00463    0.00463    0.00463    0.00463
                         0.00463    0.00463    0.00231    0.00116    0.00463    0.00463
                         0.00463    0.00463    0.00463    0.00231    0.00116    0.00463
                         0.00463    0.00463    0.00231    0.00116    0.00463    0.00231
                         0.00058    0.00231    0.00926    0.00926    0.00926    0.00926
                         0.00926    0.00926
                       outvars : Printing only first  50 k-points.
           xangst1     2.9412132088E+00  2.9962744881E+00  2.9692431149E+00
                       8.8516695325E+00  8.8582143493E+00  8.8796994386E+00
                       5.7996977142E+00  5.9272444187E+00  2.5961772776E+00
                       5.9151227490E+00  5.9272444187E+00  8.9484199332E+00
                       9.2247353698E+00  5.9272444187E+00  6.0212149333E+00
                       5.8868669609E+00  8.9552780322E+00  5.9340456868E+00
                       5.8868669606E+00  2.8992108053E+00  5.9340456865E+00
                       2.8724927142E+00  5.9272444187E+00  5.9057898984E+00
                      -9.5014620187E-02 -1.1989186555E-18  9.5014620187E-02
           xangst2     2.9962741767E+00  2.9412127954E+00  2.9692434034E+00
                       8.8582150198E+00  8.8516689941E+00  8.8796996022E+00
                       5.9272445982E+00  5.7996977602E+00  2.5961771545E+00
                       5.9272445982E+00  5.9151227778E+00  8.9484195645E+00
                       8.9552783827E+00  5.8868668442E+00  5.9340455532E+00
                       5.9272445982E+00  9.2247352430E+00  6.0212146373E+00
                       5.9272445982E+00  2.8724928331E+00  5.9057896197E+00
                       2.8992108138E+00  5.8868668443E+00  5.9340455533E+00
                       2.8755325744E-18 -9.5014502155E-02  9.5014502155E-02
           xangst3     2.9301318090E+00  2.8855394416E+00  2.8855394416E+00
                       8.9239526959E+00  8.6839675629E+00  8.6839675629E+00
                       5.9270422525E+00  5.8027069879E+00  2.7602068983E+00
                       5.9270422525E+00  5.6874757071E+00  9.1127578310E+00
                       8.9548940797E+00  5.7749461688E+00  5.7749461688E+00
                       5.9270422525E+00  9.1127578310E+00  5.6874757071E+00
                       5.9270422525E+00  2.7602068983E+00  5.8027069879E+00
                       2.8991904252E+00  5.7749461689E+00  5.7749461689E+00
                      -2.3074152259E-34 -9.5121796276E-02 -9.5121796276E-02
           xangst4     2.9886439253E+00  2.9886439253E+00  2.8264426789E+00
                       8.9659317759E+00  8.9659317759E+00  8.4793280368E+00
                       5.9772878506E+00  5.9772878506E+00  2.4472216108E+00
                       5.9772878506E+00  5.9772878506E+00  8.8585491049E+00
                       9.0474230671E+00  5.9772878506E+00  5.6528853578E+00
                       5.9772878506E+00  9.0474230671E+00  5.6528853578E+00
                       5.9772878506E+00  2.9071526340E+00  5.6528853578E+00
                       2.9071526340E+00  5.9772878506E+00  5.6528853578E+00
                       3.7686820147E-20 -1.2069046187E-20 -1.4646878323E-20
            xcart1     5.5580874631E+00  5.6621382015E+00  5.6110563091E+00
                       1.6727231235E+01  1.6739599147E+01  1.6780200081E+01
                       1.0959840333E+01  1.1200868674E+01  4.9060640471E+00
                       1.1177962038E+01  1.1200868674E+01  1.6910062996E+01
                       1.7432223497E+01  1.1200868674E+01  1.1378447211E+01
                       1.1124566337E+01  1.6923022925E+01  1.1213721208E+01
                       1.1124566336E+01  5.4787144234E+00  1.1213721208E+01
                       5.4282245486E+00  1.1200868674E+01  1.1160325506E+01
                      -1.7955161077E-01 -2.2656279146E-18  1.7955161077E-01
            xcart2     5.6621376131E+00  5.5580866818E+00  5.6110568543E+00
                       1.6739600414E+01  1.6727230218E+01  1.6780200390E+01
                       1.1200869013E+01  1.0959840420E+01  4.9060638144E+00
                       1.1200869013E+01  1.1177962092E+01  1.6910062299E+01
                       1.6923023587E+01  1.1124566116E+01  1.1213720956E+01
                       1.1200869013E+01  1.7432223258E+01  1.1378446652E+01
                       1.1200869013E+01  5.4282247732E+00  1.1160324980E+01
                       5.4787144395E+00  1.1124566116E+01  1.1213720956E+01
                       5.4339690518E-18 -1.7955138773E-01  1.7955138773E-01
            xcart3     5.5371466523E+00  5.4528792903E+00  5.4528792903E+00
                       1.6863826618E+01  1.6410320441E+01  1.6410320441E+01
                       1.1200486635E+01  1.0965527037E+01  5.2160351078E+00
                       1.1200486635E+01  1.0747771474E+01  1.7220616616E+01
                       1.6922297360E+01  1.0913066691E+01  1.0913066691E+01
                       1.1200486635E+01  1.7220616616E+01  1.0747771474E+01
                       1.1200486635E+01  5.2160351078E+00  1.0965527037E+01
                       5.4786759108E+00  1.0913066691E+01  1.0913066691E+01
                      -4.3603828518E-34 -1.7975414423E-01 -1.7975414423E-01
            xcart4     5.6477185275E+00  5.6477185275E+00  5.3412025935E+00
                       1.6943155583E+01  1.6943155583E+01  1.6023607780E+01
                       1.1295437055E+01  1.1295437055E+01  4.6245786308E+00
                       1.1295437055E+01  1.1295437055E+01  1.6740231743E+01
                       1.7097151805E+01  1.1295437055E+01  1.0682405187E+01
                       1.1295437055E+01  1.7097151805E+01  1.0682405187E+01
                       1.1295437055E+01  5.4937223048E+00  1.0682405187E+01
                       5.4937223048E+00  1.1295437055E+01  1.0682405187E+01
                       7.1217768897E-20 -2.2807191978E-20 -2.7678588732E-20
             xred1     2.5517158367E-01  2.4724557683E-01  2.5033726268E-01
                       7.4966273732E-01  7.5275442317E-01  7.4482841633E-01
                       2.2374423846E-01  2.1025607261E-01  7.7625576154E-01
                       7.6157654999E-01  7.5739383461E-01  2.3842345001E-01
                       2.2374423846E-01  7.8974392739E-01  7.7625576154E-01
                       7.5950196332E-01  2.4456649671E-01  7.5136504326E-01
                       2.4863495674E-01  7.5543350329E-01  2.4049803668E-01
                       7.6157654999E-01  2.4260616539E-01  2.3842345001E-01
                       1.6387182025E-02  7.3416509469E-19 -1.6387182025E-02
             xred2     2.4724561075E-01  2.5517161033E-01  2.5033716817E-01
                       7.5275438925E-01  7.4966283183E-01  7.4482838967E-01
                       2.1025608112E-01  2.2374421819E-01  7.7625578181E-01
                       7.5739383242E-01  7.6157652108E-01  2.3842347892E-01
                       2.4456649002E-01  7.5950196864E-01  7.5136505132E-01
                       7.8974391888E-01  2.2374421819E-01  7.7625578181E-01
                       2.4260616758E-01  7.6157652108E-01  2.3842347892E-01
                       7.5543350998E-01  2.4863494868E-01  2.4049803136E-01
                       1.8446034080E-18  1.6387162005E-02 -1.6387162005E-02
             xred3     2.5045836096E-01  2.4718330697E-01  2.4718330697E-01
                       7.4482497490E-01  7.5281669303E-01  7.5281669303E-01
                       2.3838234321E-01  2.4261757029E-01  7.5738242971E-01
                       7.7622807669E-01  7.8976414446E-01  2.1023585554E-01
                       2.4052340941E-01  7.5542688058E-01  7.5542688058E-01
                       7.7622807669E-01  2.1023585554E-01  7.8976414446E-01
                       2.3838234321E-01  7.5738242971E-01  2.4261757029E-01
                       7.5137717057E-01  2.4457311942E-01  2.4457311942E-01
                      -1.6404755614E-02 -7.3202751594E-19  7.3202751594E-19
             xred4     2.5000000000E-01  2.5000000000E-01  2.5000000000E-01
                       7.5000000000E-01  7.5000000000E-01  7.5000000000E-01
                       2.1645774289E-01  2.1645774289E-01  7.8354225711E-01
                       7.8354225711E-01  7.8354225711E-01  2.1645774289E-01
                       2.4318325524E-01  7.5681674476E-01  7.5681674476E-01
                       7.5681674476E-01  2.4318325524E-01  7.5681674476E-01
                       2.4318325524E-01  7.5681674476E-01  2.4318325524E-01
                       7.5681674476E-01  2.4318325524E-01  2.4318325524E-01
                      -5.4575994689E-21  2.8665548261E-21  3.4384485616E-21
            znucl       55.00000   53.00000   40.00000   17.00000

================================================================================


- Timing analysis has been suppressed with timopt=0



================================================================================

 Suggested references for the acknowledgment of ABINIT usage.

 The users of ABINIT have little formal obligations with respect to the ABINIT group
 (those specified in the GNU General Public License, http://www.gnu.org/copyleft/gpl.txt).
 However, it is common practice in the scientific literature,
 to acknowledge the efforts of people that have made the research possible.
 In this spirit, please find below suggested citations of work written by ABINIT developers,
 corresponding to implementations inside of ABINIT that you have used in the present run.
 Note also that it will be of great value to readers of publications presenting these results,
 to read papers enabling them to understand the theoretical formalism and details
 of the ABINIT implementation.
 For information on why they are suggested, see also https://docs.abinit.org/theory/acknowledgments.
-
- [1] Implementation of the Projector Augmented-Wave Method in the ABINIT code.
- M. Torrent, F. Jollet, F. Bottin, G. Zerah, and X. Gonze Comput. Mat. Science 42, 337, (2008).
- Comment: PAW calculations. Strong suggestion to cite this paper.
- DOI and bibtex: see https://docs.abinit.org/theory/bibliography/#torrent2008
-
- [2] Libxc: A library of exchange and correlation functionals for density functional theory.
- M.A.L. Marques, M.J.T. Oliveira, T. Burnus, Computer Physics Communications 183, 2227 (2012).
- Comment: to be cited when LibXC is used (negative value of ixc)
- Strong suggestion to cite this paper.
- DOI and bibtex: see https://docs.abinit.org/theory/bibliography/#marques2012
-
- [3] The Abinit project: Impact, environment and recent developments.
- Computer Phys. Comm. 248, 107042 (2020).
- X.Gonze, B. Amadon, G. Antonius, F.Arnardi, L.Baguet, J.-M.Beuken,
- J.Bieder, F.Bottin, J.Bouchet, E.Bousquet, N.Brouwer, F.Bruneval,
- G.Brunin, T.Cavignac, J.-B. Charraud, Wei Chen, M.Cote, S.Cottenier,
- J.Denier, G.Geneste, Ph.Ghosez, M.Giantomassi, Y.Gillet, O.Gingras,
- D.R.Hamann, G.Hautier, Xu He, N.Helbig, N.Holzwarth, Y.Jia, F.Jollet,
- W.Lafargue-Dit-Hauret, K.Lejaeghere, M.A.L.Marques, A.Martin, C.Martins,
- H.P.C. Miranda, F.Naccarato, K. Persson, G.Petretto, V.Planes, Y.Pouillon,
- S.Prokhorenko, F.Ricci, G.-M.Rignanese, A.H.Romero, M.M.Schmitt, M.Torrent,
- M.J.van Setten, B.Van Troeye, M.J.Verstraete, G.Zerah and J.W.Zwanzig
- Comment: the fifth generic paper describing the ABINIT project.
- Note that a version of this paper, that is not formatted for Computer Phys. Comm. 
- is available at https://www.abinit.org/sites/default/files/ABINIT20.pdf .
- The licence allows the authors to put it on the Web.
- DOI and bibtex: see https://docs.abinit.org/theory/bibliography/#gonze2020
-
- [4] ABINIT: Overview, and focus on selected capabilities
- J. Chem. Phys. 152, 124102 (2020).
- A. Romero, D.C. Allan, B. Amadon, G. Antonius, T. Applencourt, L.Baguet,
- J.Bieder, F.Bottin, J.Bouchet, E.Bousquet, F.Bruneval,
- G.Brunin, D.Caliste, M.Cote,
- J.Denier, C. Dreyer, Ph.Ghosez, M.Giantomassi, Y.Gillet, O.Gingras,
- D.R.Hamann, G.Hautier, F.Jollet, G. Jomard,
- A.Martin, 
- H.P.C. Miranda, F.Naccarato, G.Petretto, N.A. Pike, V.Planes,
- S.Prokhorenko, T. Rangel, F.Ricci, G.-M.Rignanese, M.Royo, M.Stengel, M.Torrent,
- M.J.van Setten, B.Van Troeye, M.J.Verstraete, J.Wiktor, J.W.Zwanziger, and X.Gonze.
- Comment: a global overview of ABINIT, with focus on selected capabilities .
- Note that a version of this paper, that is not formatted for J. Chem. Phys 
- is available at https://www.abinit.org/sites/default/files/ABINIT20_JPC.pdf .
- The licence allows the authors to put it on the Web.
- DOI and bibtex: see https://docs.abinit.org/theory/bibliography/#romero2020
-
- [5] Recent developments in the ABINIT software package.
- Computer Phys. Comm. 205, 106 (2016).
- X.Gonze, F.Jollet, F.Abreu Araujo, D.Adams, B.Amadon, T.Applencourt,
- C.Audouze, J.-M.Beuken, J.Bieder, A.Bokhanchuk, E.Bousquet, F.Bruneval
- D.Caliste, M.Cote, F.Dahm, F.Da Pieve, M.Delaveau, M.Di Gennaro,
- B.Dorado, C.Espejo, G.Geneste, L.Genovese, A.Gerossier, M.Giantomassi,
- Y.Gillet, D.R.Hamann, L.He, G.Jomard, J.Laflamme Janssen, S.Le Roux,
- A.Levitt, A.Lherbier, F.Liu, I.Lukacevic, A.Martin, C.Martins,
- M.J.T.Oliveira, S.Ponce, Y.Pouillon, T.Rangel, G.-M.Rignanese,
- A.H.Romero, B.Rousseau, O.Rubel, A.A.Shukri, M.Stankovski, M.Torrent,
- M.J.Van Setten, B.Van Troeye, M.J.Verstraete, D.Waroquier, J.Wiktor,
- B.Xu, A.Zhou, J.W.Zwanziger.
- Comment: the fourth generic paper describing the ABINIT project.
- Note that a version of this paper, that is not formatted for Computer Phys. Comm. 
- is available at https://www.abinit.org/sites/default/files/ABINIT16.pdf .
- The licence allows the authors to put it on the Web.
- DOI and bibtex: see https://docs.abinit.org/theory/bibliography/#gonze2016
-
- Proc.   0 individual time (sec): cpu=       5377.8  wall=       5378.0

================================================================================

 Calculation completed.
.Delivered   0 WARNINGs and   0 COMMENTs to log file.
+Overall time at end (sec) : cpu=      32266.6  wall=      32267.4
