
.Version 9.2.2 of ABINIT 
.(MPI version, prepared for a x86_64_linux_gnu9.3 computer) 

.Copyright (C) 1998-2020 ABINIT group . 
 ABINIT comes with ABSOLUTELY NO WARRANTY.
 It is free software, and you are welcome to redistribute it
 under certain conditions (GNU General Public License,
 see ~abinit/COPYING or http://www.gnu.org/copyleft/gpl.txt).

 ABINIT is a project of the Universite Catholique de Louvain,
 Corning Inc. and other collaborators, see ~abinit/doc/developers/contributors.txt .
 Please read https://docs.abinit.org/theory/acknowledgments for suggested
 acknowledgments of the ABINIT effort.
 For more information, see https://www.abinit.org .

.Starting date : Sat 12 Nov 2022.
- ( at 23h48 )
  
- input  file    -> Cs2TiI6.in
- output file    -> Cs2TiI6.out
- root for input  files -> Cs2TiI6i
- root for output files -> Cs2TiI6o

- inpspheads : Reading pseudopotential header in XML form from 
-   ../../../Psps_for_tests/ATOMICDATA/Cs.GGA_PBE-JTH.xml
- inpspheads : Reading pseudopotential header in XML form from 
-   ../../../Psps_for_tests/ATOMICDATA/I.GGA_PBE-JTH.xml
- inpspheads : Reading pseudopotential header in XML form from 
-   ../../../Psps_for_tests/ATOMICDATA/Hf.GGA_PBE-JTH.xml
- inpspheads : Reading pseudopotential header in XML form from 
-   ../../../Psps_for_tests/ATOMICDATA/Br.GGA_PBE-JTH.xml

 DATASET    1 : space group I4 m m (#107); Bravais tI (body-center tetrag.)
================================================================================
 Values of the parameters that define the memory need for DATASET  1.
     intxc =       0    ionmov =       2      iscf =      17    lmnmax =      18
     lnmax =       6     mgfft =      64  mpssoang =       3    mqgrid =    3950
     natom =       9  nloc_mem =       2    nspden =       1   nspinor =       1
    nsppol =       1      nsym =       8    n1xccc =       1    ntypat =       4
    occopt =       1   xclevel =       2
-    mband =          42        mffmem =           1         mkmem =           4
       mpw =       10638          nfft =      262144          nkpt =          20
Pmy_natom=         2
 PAW method is used; the additional fine FFT grid is defined by:
   mgfftf=       100    nfftf =   1000000
================================================================================
P This job should need less than                     330.966 Mbytes of memory.
  Rough estimation (10% accuracy) of disk space for files :
_ WF disk file :    136.353 Mbytes ; DEN or POT disk file :      7.631 Mbytes.
================================================================================


 DATASET    2 : space group I4 m m (#107); Bravais tI (body-center tetrag.)
================================================================================
 Values of the parameters that define the memory need for DATASET  2.
     intxc =       0    ionmov =       2      iscf =      17    lmnmax =      18
     lnmax =       6     mgfft =      64  mpssoang =       3    mqgrid =    3946
     natom =       9  nloc_mem =       2    nspden =       1   nspinor =       1
    nsppol =       1      nsym =       8    n1xccc =       1    ntypat =       4
    occopt =       1   xclevel =       2
-    mband =          42        mffmem =           1         mkmem =           4
       mpw =       10601          nfft =      262144          nkpt =          20
Pmy_natom=         2
 PAW method is used; the additional fine FFT grid is defined by:
   mgfftf=       100    nfftf =   1000000
================================================================================
P This job should need less than                     330.928 Mbytes of memory.
  Rough estimation (10% accuracy) of disk space for files :
_ WF disk file :    135.879 Mbytes ; DEN or POT disk file :      7.631 Mbytes.
================================================================================


 DATASET    3 : space group I4 m m (#107); Bravais tI (body-center tetrag.)
================================================================================
 Values of the parameters that define the memory need for DATASET  3.
     intxc =       0    ionmov =       2      iscf =      17    lmnmax =      18
     lnmax =       6     mgfft =      64  mpssoang =       3    mqgrid =    3942
     natom =       9  nloc_mem =       2    nspden =       1   nspinor =       1
    nsppol =       1      nsym =       8    n1xccc =       1    ntypat =       4
    occopt =       1   xclevel =       2
-    mband =          42        mffmem =           1         mkmem =           4
       mpw =       10560          nfft =      262144          nkpt =          20
Pmy_natom=         2
 PAW method is used; the additional fine FFT grid is defined by:
   mgfftf=       100    nfftf =   1000000
================================================================================
P This job should need less than                     330.880 Mbytes of memory.
  Rough estimation (10% accuracy) of disk space for files :
_ WF disk file :    135.354 Mbytes ; DEN or POT disk file :      7.631 Mbytes.
================================================================================


 DATASET    4 : space group I4 m m (#107); Bravais tI (body-center tetrag.)
================================================================================
 Values of the parameters that define the memory need for DATASET  4.
     intxc =       0    ionmov =       2      iscf =      17    lmnmax =      18
     lnmax =       6     mgfft =      64  mpssoang =       3    mqgrid =    3938
     natom =       9  nloc_mem =       2    nspden =       1   nspinor =       1
    nsppol =       1      nsym =       8    n1xccc =       1    ntypat =       4
    occopt =       1   xclevel =       2
-    mband =          42        mffmem =           1         mkmem =           4
       mpw =       10536          nfft =      262144          nkpt =          20
Pmy_natom=         2
 PAW method is used; the additional fine FFT grid is defined by:
   mgfftf=       100    nfftf =   1000000
================================================================================
P This job should need less than                     330.881 Mbytes of memory.
  Rough estimation (10% accuracy) of disk space for files :
_ WF disk file :    135.046 Mbytes ; DEN or POT disk file :      7.631 Mbytes.
================================================================================


 DATASET    5 : space group I4 m m (#107); Bravais tI (body-center tetrag.)
================================================================================
 Values of the parameters that define the memory need for DATASET  5.
     intxc =       0    ionmov =       2      iscf =      17    lmnmax =      18
     lnmax =       6     mgfft =      64  mpssoang =       3    mqgrid =    3934
     natom =       9  nloc_mem =       2    nspden =       1   nspinor =       1
    nsppol =       1      nsym =       8    n1xccc =       1    ntypat =       4
    occopt =       1   xclevel =       2
-    mband =          42        mffmem =           1         mkmem =           4
       mpw =       10496          nfft =      262144          nkpt =          20
Pmy_natom=         2
 PAW method is used; the additional fine FFT grid is defined by:
   mgfftf=       100    nfftf =   1000000
================================================================================
P This job should need less than                     330.836 Mbytes of memory.
  Rough estimation (10% accuracy) of disk space for files :
_ WF disk file :    134.533 Mbytes ; DEN or POT disk file :      7.631 Mbytes.
================================================================================


 DATASET    6 : space group I4 m m (#107); Bravais tI (body-center tetrag.)
================================================================================
 Values of the parameters that define the memory need for DATASET  6.
     intxc =       0    ionmov =       2      iscf =      17    lmnmax =      18
     lnmax =       6     mgfft =      64  mpssoang =       3    mqgrid =    3931
     natom =       9  nloc_mem =       2    nspden =       1   nspinor =       1
    nsppol =       1      nsym =       8    n1xccc =       1    ntypat =       4
    occopt =       1   xclevel =       2
-    mband =          42        mffmem =           1         mkmem =           4
       mpw =       10463          nfft =      262144          nkpt =          20
Pmy_natom=         2
 PAW method is used; the additional fine FFT grid is defined by:
   mgfftf=       100    nfftf =   1000000
================================================================================
P This job should need less than                     330.811 Mbytes of memory.
  Rough estimation (10% accuracy) of disk space for files :
_ WF disk file :    134.110 Mbytes ; DEN or POT disk file :      7.631 Mbytes.
================================================================================


 DATASET    7 : space group I4 m m (#107); Bravais tI (body-center tetrag.)
================================================================================
 Values of the parameters that define the memory need for DATASET  7.
     intxc =       0    ionmov =       2      iscf =      17    lmnmax =      18
     lnmax =       6     mgfft =      64  mpssoang =       3    mqgrid =    3927
     natom =       9  nloc_mem =       2    nspden =       1   nspinor =       1
    nsppol =       1      nsym =       8    n1xccc =       1    ntypat =       4
    occopt =       1   xclevel =       2
-    mband =          42        mffmem =           1         mkmem =           4
       mpw =       10432          nfft =      262144          nkpt =          20
Pmy_natom=         2
 PAW method is used; the additional fine FFT grid is defined by:
   mgfftf=       100    nfftf =   1000000
================================================================================
P This job should need less than                     330.792 Mbytes of memory.
  Rough estimation (10% accuracy) of disk space for files :
_ WF disk file :    133.713 Mbytes ; DEN or POT disk file :      7.631 Mbytes.
================================================================================


 DATASET    8 : space group I4 m m (#107); Bravais tI (body-center tetrag.)
================================================================================
 Values of the parameters that define the memory need for DATASET  8.
     intxc =       0    ionmov =       2      iscf =      17    lmnmax =      18
     lnmax =       6     mgfft =      64  mpssoang =       3    mqgrid =    3923
     natom =       9  nloc_mem =       2    nspden =       1   nspinor =       1
    nsppol =       1      nsym =       8    n1xccc =       1    ntypat =       4
    occopt =       1   xclevel =       2
-    mband =          42        mffmem =           1         mkmem =           4
       mpw =       10409          nfft =      262144          nkpt =          20
Pmy_natom=         2
 PAW method is used; the additional fine FFT grid is defined by:
   mgfftf=       100    nfftf =   1000000
================================================================================
P This job should need less than                     330.797 Mbytes of memory.
  Rough estimation (10% accuracy) of disk space for files :
_ WF disk file :    133.418 Mbytes ; DEN or POT disk file :      7.631 Mbytes.
================================================================================


 DATASET    9 : space group I4 m m (#107); Bravais tI (body-center tetrag.)
================================================================================
 Values of the parameters that define the memory need for DATASET  9.
     intxc =       0    ionmov =       2      iscf =      17    lmnmax =      18
     lnmax =       6     mgfft =      64  mpssoang =       3    mqgrid =    3919
     natom =       9  nloc_mem =       2    nspden =       1   nspinor =       1
    nsppol =       1      nsym =       8    n1xccc =       1    ntypat =       4
    occopt =       1   xclevel =       2
-    mband =          42        mffmem =           1         mkmem =           4
       mpw =       10382          nfft =      262144          nkpt =          20
Pmy_natom=         2
 PAW method is used; the additional fine FFT grid is defined by:
   mgfftf=       100    nfftf =   1000000
================================================================================
P This job should need less than                     330.791 Mbytes of memory.
  Rough estimation (10% accuracy) of disk space for files :
_ WF disk file :    133.072 Mbytes ; DEN or POT disk file :      7.631 Mbytes.
================================================================================


 DATASET   10 : space group I4 m m (#107); Bravais tI (body-center tetrag.)
================================================================================
 Values of the parameters that define the memory need for DATASET 10.
     intxc =       0    ionmov =       2      iscf =      17    lmnmax =      18
     lnmax =       6     mgfft =      64  mpssoang =       3    mqgrid =    3915
     natom =       9  nloc_mem =       2    nspden =       1   nspinor =       1
    nsppol =       1      nsym =       8    n1xccc =       1    ntypat =       4
    occopt =       1   xclevel =       2
-    mband =          42        mffmem =           1         mkmem =           4
       mpw =       10341          nfft =      262144          nkpt =          20
Pmy_natom=         2
 PAW method is used; the additional fine FFT grid is defined by:
   mgfftf=       100    nfftf =   1000000
================================================================================
P This job should need less than                     330.745 Mbytes of memory.
  Rough estimation (10% accuracy) of disk space for files :
_ WF disk file :    132.547 Mbytes ; DEN or POT disk file :      7.631 Mbytes.
================================================================================

--------------------------------------------------------------------------------
------------- Echo of variables that govern the present computation ------------
--------------------------------------------------------------------------------
-
- outvars: echo of selected default values                                      
-   iomode0 =  0 , fftalg0 =112 , wfoptalg0 = 10
-
- outvars: echo of global parameters not present in the input file              
-  max_nthreads =    0
-
 -outvars: echo values of preprocessed input variables --------
            acell1     1.4756645788E+01  1.4812882053E+01  1.4756645788E+01 Bohr
            acell2     1.4741874371E+01  1.4798054343E+01  1.4741874371E+01 Bohr
            acell3     1.4727102953E+01  1.4783226634E+01  1.4727102953E+01 Bohr
            acell4     1.4712331536E+01  1.4768398924E+01  1.4712331536E+01 Bohr
            acell5     1.4697560119E+01  1.4753571214E+01  1.4697560119E+01 Bohr
            acell6     1.4682788702E+01  1.4738743504E+01  1.4682788702E+01 Bohr
            acell7     1.4668017285E+01  1.4723915795E+01  1.4668017285E+01 Bohr
            acell8     1.4653245867E+01  1.4709088085E+01  1.4653245867E+01 Bohr
            acell9     1.4638474450E+01  1.4694260375E+01  1.4638474450E+01 Bohr
            acell10    1.4623703033E+01  1.4679432665E+01  1.4623703033E+01 Bohr
              amu      1.32905430E+02  1.26904470E+02  1.78490000E+02
                       7.99040000E+01
           diemac      1.20000000E+01
          dilatmx      1.15000000E+00
             ecut      1.60000000E+01 Hartree
           ecutsm      5.00000000E-01 Hartree
-          fftalg         112
          getxred1          0
          getxred2         -1
          getxred3         -1
          getxred4         -1
          getxred5         -1
          getxred6         -1
          getxred7         -1
          getxred8         -1
          getxred9         -1
          getxred10        -1
           ionmov           2
              ixc     -101130
           jdtset        1    2    3    4    5    6    7    8    9   10
              kpt      0.00000000E+00 -1.25000000E-01  0.00000000E+00
                       0.00000000E+00 -3.75000000E-01  0.00000000E+00
                       1.25000000E-01 -2.50000000E-01  0.00000000E+00
                       1.25000000E-01 -1.25000000E-01  1.25000000E-01
                       1.25000000E-01  5.00000000E-01  0.00000000E+00
                       2.50000000E-01 -3.75000000E-01  0.00000000E+00
                       1.25000000E-01 -3.75000000E-01  1.25000000E-01
                       2.50000000E-01 -2.50000000E-01  1.25000000E-01
                       2.50000000E-01 -1.25000000E-01  2.50000000E-01
                       1.25000000E-01  2.50000000E-01  0.00000000E+00
                       2.50000000E-01  3.75000000E-01  0.00000000E+00
                       3.75000000E-01  5.00000000E-01  0.00000000E+00
                       1.25000000E-01  3.75000000E-01  1.25000000E-01
                       2.50000000E-01  5.00000000E-01  1.25000000E-01
                       3.75000000E-01 -3.75000000E-01  1.25000000E-01
                       2.50000000E-01 -3.75000000E-01  2.50000000E-01
                       3.75000000E-01 -2.50000000E-01  2.50000000E-01
                       3.75000000E-01 -1.25000000E-01  3.75000000E-01
                       5.00000000E-01  2.50000000E-01  1.25000000E-01
                      -3.75000000E-01  3.75000000E-01  1.25000000E-01
         kptrlatt        4    4   -4     -4    4    4      4   -4    4
          kptrlen1     8.31568571E+01
          kptrlen2     8.30736170E+01
          kptrlen3     8.29903769E+01
          kptrlen4     8.29071368E+01
          kptrlen5     8.28238967E+01
          kptrlen6     8.27406566E+01
          kptrlen7     8.26574165E+01
          kptrlen8     8.25741764E+01
          kptrlen9     8.24909363E+01
          kptrlen10    8.24076962E+01
P           mkmem           4
            natom           9
            nband          42
           ndtset          10
            ngfft          64      64      64
          ngfftdg         100     100     100
             nkpt          20
            nstep        2500
             nsym           8
            ntime        1000
           ntypat           4
              occ      2.000000  2.000000  2.000000  2.000000  2.000000  2.000000
                       2.000000  2.000000  2.000000  2.000000  2.000000  2.000000
                       2.000000  2.000000  2.000000  2.000000  2.000000  2.000000
                       2.000000  2.000000  2.000000  2.000000  2.000000  2.000000
                       2.000000  2.000000  2.000000  2.000000  2.000000  2.000000
                       2.000000  2.000000  2.000000  2.000000  2.000000  2.000000
                       0.000000  0.000000  0.000000  0.000000  0.000000  0.000000
          optcell           3
        optforces           1
        pawecutdg      4.00000000E+01 Hartree
            prtwf           0
            rprim      0.0000000000E+00  7.0440175136E-01  7.0980150231E-01
                       7.0710678119E-01  0.0000000000E+00  7.0710678119E-01
                       7.0980150231E-01  7.0440175136E-01  0.0000000000E+00
           shiftk     -5.00000000E-01  5.00000000E-01  5.00000000E-01
          spgroup         107
           symrel      1  0  0   0  1  0   0  0  1       0  0  1   0  1  0   1  0  0
                       0 -1  1   0 -1  0   1 -1  0       1 -1  0   0 -1  0   0 -1  1
                       0 -1  1  -1  0  1   0  0  1       0  0  1  -1  0  1   0 -1  1
                       1  0  0   1  0 -1   1 -1  0       1 -1  0   1  0 -1   1  0  0
           toldff      1.00000000E-08
           tolmxf      1.00000000E-05
            typat      1  1  2  4  4  4  4  4  3
           useylm           1
              wtk        0.03125    0.03125    0.06250    0.03125    0.06250    0.06250
                         0.03125    0.06250    0.03125    0.06250    0.06250    0.06250
                         0.03125    0.06250    0.06250    0.03125    0.06250    0.03125
                         0.06250    0.06250
           xangst1     2.7713775998E+00  2.7502945946E+00  2.7713775998E+00
                       8.3141327995E+00  8.2508837838E+00  8.3141327995E+00
                       5.5427551997E+00  8.1456036252E+00  5.5427551997E+00
                       5.5427551997E+00  5.5005891892E+00  2.6070291249E+00
                       5.5427551996E+00  5.5005891892E+00  8.4784812745E+00
                       5.5427551996E+00  2.8555747532E+00  5.5427551996E+00
                       8.4784812745E+00  5.5005891892E+00  5.5427551996E+00
                       2.6070291249E+00  5.5005891892E+00  5.5427551997E+00
                       3.2269008200E-21 -3.8885797502E-23  4.6847733666E-22
           xangst2     2.7686034481E+00  2.7475415470E+00  2.7686034481E+00
                       8.3058103443E+00  8.2426246409E+00  8.3058103443E+00
                       5.5372068962E+00  8.1374498678E+00  5.5372068962E+00
                       5.5372068962E+00  5.4950830939E+00  2.6044194861E+00
                       5.5372068961E+00  5.4950830939E+00  8.4699943063E+00
                       5.5372068961E+00  2.8527163200E+00  5.5372068961E+00
                       8.4699943063E+00  5.4950830939E+00  5.5372068961E+00
                       2.6044194861E+00  5.4950830939E+00  5.5372068962E+00
                       3.2236706890E-21 -3.8846872780E-23  4.6800839038E-22
           xangst3     2.7658292963E+00  2.7447884993E+00  2.7658292963E+00
                       8.2974878890E+00  8.2343654980E+00  8.2974878890E+00
                       5.5316585927E+00  8.1292961105E+00  5.5316585927E+00
                       5.5316585927E+00  5.4895769986E+00  2.6018098473E+00
                       5.5316585926E+00  5.4895769986E+00  8.4615073380E+00
                       5.5316585926E+00  2.8498578868E+00  5.5316585926E+00
                       8.4615073380E+00  5.4895769986E+00  5.5316585926E+00
                       2.6018098473E+00  5.4895769986E+00  5.5316585927E+00
                       3.2204405581E-21 -3.8807948058E-23  4.6753944410E-22
           xangst4     2.7630551446E+00  2.7420354517E+00  2.7630551446E+00
                       8.2891654338E+00  8.2261063550E+00  8.2891654338E+00
                       5.5261102892E+00  8.1211423531E+00  5.5261102892E+00
                       5.5261102892E+00  5.4840709034E+00  2.5992002086E+00
                       5.5261102891E+00  5.4840709034E+00  8.4530203698E+00
                       5.5261102891E+00  2.8469994536E+00  5.5261102891E+00
                       8.4530203698E+00  5.4840709034E+00  5.5261102891E+00
                       2.5992002086E+00  5.4840709034E+00  5.5261102892E+00
                       3.2172104271E-21 -3.8769023335E-23  4.6707049782E-22
           xangst5     2.7602809928E+00  2.7392824040E+00  2.7602809928E+00
                       8.2808429785E+00  8.2178472121E+00  8.2808429785E+00
                       5.5205619857E+00  8.1129885957E+00  5.5205619857E+00
                       5.5205619857E+00  5.4785648081E+00  2.5965905698E+00
                       5.5205619856E+00  5.4785648081E+00  8.4445334015E+00
                       5.5205619856E+00  2.8441410205E+00  5.5205619856E+00
                       8.4445334015E+00  5.4785648081E+00  5.5205619856E+00
                       2.5965905698E+00  5.4785648081E+00  5.5205619857E+00
                       3.2139802962E-21 -3.8730098613E-23  4.6660155153E-22
           xangst6     2.7575068411E+00  2.7365293564E+00  2.7575068411E+00
                       8.2725205232E+00  8.2095880692E+00  8.2725205232E+00
                       5.5150136822E+00  8.1048348383E+00  5.5150136822E+00
                       5.5150136822E+00  5.4730587128E+00  2.5939809310E+00
                       5.5150136821E+00  5.4730587128E+00  8.4360464333E+00
                       5.5150136821E+00  2.8412825873E+00  5.5150136821E+00
                       8.4360464333E+00  5.4730587128E+00  5.5150136821E+00
                       2.5939809310E+00  5.4730587128E+00  5.5150136822E+00
                       3.2107501652E-21 -3.8691173891E-23  4.6613260525E-22
           xangst7     2.7547326893E+00  2.7337763088E+00  2.7547326893E+00
                       8.2641980680E+00  8.2013289263E+00  8.2641980680E+00
                       5.5094653787E+00  8.0966810809E+00  5.5094653787E+00
                       5.5094653787E+00  5.4675526175E+00  2.5913712923E+00
                       5.5094653786E+00  5.4675526175E+00  8.4275594650E+00
                       5.5094653786E+00  2.8384241541E+00  5.5094653786E+00
                       8.4275594650E+00  5.4675526175E+00  5.5094653786E+00
                       2.5913712923E+00  5.4675526175E+00  5.5094653787E+00
                       3.2075200343E-21 -3.8652249169E-23  4.6566365897E-22
           xangst8     2.7519585376E+00  2.7310232611E+00  2.7519585376E+00
                       8.2558756127E+00  8.1930697833E+00  8.2558756127E+00
                       5.5039170752E+00  8.0885273235E+00  5.5039170752E+00
                       5.5039170752E+00  5.4620465222E+00  2.5887616535E+00
                       5.5039170751E+00  5.4620465222E+00  8.4190724968E+00
                       5.5039170751E+00  2.8355657209E+00  5.5039170751E+00
                       8.4190724968E+00  5.4620465222E+00  5.5039170751E+00
                       2.5887616535E+00  5.4620465222E+00  5.5039170752E+00
                       3.2042899033E-21 -3.8613324446E-23  4.6519471268E-22
           xangst9     2.7491843858E+00  2.7282702135E+00  2.7491843858E+00
                       8.2475531575E+00  8.1848106404E+00  8.2475531575E+00
                       5.4983687717E+00  8.0803735662E+00  5.4983687717E+00
                       5.4983687717E+00  5.4565404269E+00  2.5861520147E+00
                       5.4983687716E+00  5.4565404269E+00  8.4105855286E+00
                       5.4983687716E+00  2.8327072877E+00  5.4983687716E+00
                       8.4105855286E+00  5.4565404269E+00  5.4983687716E+00
                       2.5861520147E+00  5.4565404269E+00  5.4983687717E+00
                       3.2010597724E-21 -3.8574399724E-23  4.6472576640E-22
           xangst10    2.7464102341E+00  2.7255171658E+00  2.7464102341E+00
                       8.2392307022E+00  8.1765514975E+00  8.2392307022E+00
                       5.4928204682E+00  8.0722198088E+00  5.4928204682E+00
                       5.4928204682E+00  5.4510343317E+00  2.5835423760E+00
                       5.4928204681E+00  5.4510343317E+00  8.4020985603E+00
                       5.4928204681E+00  2.8298488545E+00  5.4928204681E+00
                       8.4020985603E+00  5.4510343317E+00  5.4928204681E+00
                       2.5835423760E+00  5.4510343317E+00  5.4928204682E+00
                       3.1978296414E-21 -3.8535475002E-23  4.6425682012E-22
            xcart1     5.2371446745E+00  5.1973035686E+00  5.2371446745E+00
                       1.5711434024E+01  1.5591910706E+01  1.5711434024E+01
                       1.0474289349E+01  1.5392960039E+01  1.0474289349E+01
                       1.0474289349E+01  1.0394607137E+01  4.9265710664E+00
                       1.0474289349E+01  1.0394607137E+01  1.6022007632E+01
                       1.0474289349E+01  5.3962542355E+00  1.0474289349E+01
                       1.6022007632E+01  1.0394607137E+01  1.0474289349E+01
                       4.9265710664E+00  1.0394607137E+01  1.0474289349E+01
                       6.0979588078E-21 -7.3483507738E-23  8.8529386576E-22
            xcart2     5.2319022874E+00  5.1921010625E+00  5.2319022874E+00
                       1.5695706862E+01  1.5576303187E+01  1.5695706862E+01
                       1.0463804575E+01  1.5377551670E+01  1.0463804575E+01
                       1.0463804575E+01  1.0384202125E+01  4.9216395639E+00
                       1.0463804575E+01  1.0384202125E+01  1.6005969586E+01
                       1.0463804575E+01  5.3908525796E+00  1.0463804575E+01
                       1.6005969586E+01  1.0384202125E+01  1.0463804575E+01
                       4.9216395639E+00  1.0384202125E+01  1.0463804575E+01
                       6.0918547449E-21 -7.3409950673E-23  8.8440768571E-22
            xcart3     5.2266599004E+00  5.1868985564E+00  5.2266599004E+00
                       1.5679979701E+01  1.5560695669E+01  1.5679979701E+01
                       1.0453319801E+01  1.5362143302E+01  1.0453319801E+01
                       1.0453319801E+01  1.0373797113E+01  4.9167080613E+00
                       1.0453319801E+01  1.0373797113E+01  1.5989931540E+01
                       1.0453319801E+01  5.3854509237E+00  1.0453319801E+01
                       1.5989931540E+01  1.0373797113E+01  1.0453319801E+01
                       4.9167080613E+00  1.0373797113E+01  1.0453319801E+01
                       6.0857506820E-21 -7.3336393608E-23  8.8352150567E-22
            xcart4     5.2214175133E+00  5.1816960503E+00  5.2214175133E+00
                       1.5664252540E+01  1.5545088151E+01  1.5664252540E+01
                       1.0442835027E+01  1.5346734933E+01  1.0442835027E+01
                       1.0442835027E+01  1.0363392101E+01  4.9117765587E+00
                       1.0442835027E+01  1.0363392101E+01  1.5973893495E+01
                       1.0442835027E+01  5.3800492679E+00  1.0442835027E+01
                       1.5973893495E+01  1.0363392101E+01  1.0442835027E+01
                       4.9117765587E+00  1.0363392101E+01  1.0442835027E+01
                       6.0796466192E-21 -7.3262836543E-23  8.8263532562E-22
            xcart5     5.2161751263E+00  5.1764935443E+00  5.2161751263E+00
                       1.5648525379E+01  1.5529480633E+01  1.5648525379E+01
                       1.0432350253E+01  1.5331326565E+01  1.0432350253E+01
                       1.0432350253E+01  1.0352987089E+01  4.9068450562E+00
                       1.0432350252E+01  1.0352987089E+01  1.5957855449E+01
                       1.0432350252E+01  5.3746476120E+00  1.0432350252E+01
                       1.5957855449E+01  1.0352987089E+01  1.0432350252E+01
                       4.9068450562E+00  1.0352987089E+01  1.0432350253E+01
                       6.0735425563E-21 -7.3189279478E-23  8.8174914558E-22
            xcart6     5.2109327392E+00  5.1712910382E+00  5.2109327392E+00
                       1.5632798218E+01  1.5513873115E+01  1.5632798218E+01
                       1.0421865479E+01  1.5315918197E+01  1.0421865479E+01
                       1.0421865479E+01  1.0342582076E+01  4.9019135536E+00
                       1.0421865478E+01  1.0342582076E+01  1.5941817403E+01
                       1.0421865478E+01  5.3692459561E+00  1.0421865478E+01
                       1.5941817403E+01  1.0342582076E+01  1.0421865478E+01
                       4.9019135536E+00  1.0342582076E+01  1.0421865479E+01
                       6.0674384934E-21 -7.3115722414E-23  8.8086296553E-22
            xcart7     5.2056903521E+00  5.1660885321E+00  5.2056903521E+00
                       1.5617071056E+01  1.5498265596E+01  1.5617071056E+01
                       1.0411380704E+01  1.5300509828E+01  1.0411380704E+01
                       1.0411380704E+01  1.0332177064E+01  4.8969820510E+00
                       1.0411380704E+01  1.0332177064E+01  1.5925779358E+01
                       1.0411380704E+01  5.3638443002E+00  1.0411380704E+01
                       1.5925779358E+01  1.0332177064E+01  1.0411380704E+01
                       4.8969820510E+00  1.0332177064E+01  1.0411380704E+01
                       6.0613344305E-21 -7.3042165349E-23  8.7997678548E-22
            xcart8     5.2004479651E+00  5.1608860260E+00  5.2004479651E+00
                       1.5601343895E+01  1.5482658078E+01  1.5601343895E+01
                       1.0400895930E+01  1.5285101460E+01  1.0400895930E+01
                       1.0400895930E+01  1.0321772052E+01  4.8920505485E+00
                       1.0400895930E+01  1.0321772052E+01  1.5909741312E+01
                       1.0400895930E+01  5.3584426443E+00  1.0400895930E+01
                       1.5909741312E+01  1.0321772052E+01  1.0400895930E+01
                       4.8920505485E+00  1.0321772052E+01  1.0400895930E+01
                       6.0552303677E-21 -7.2968608284E-23  8.7909060544E-22
            xcart9     5.1952055780E+00  5.1556835200E+00  5.1952055780E+00
                       1.5585616734E+01  1.5467050560E+01  1.5585616734E+01
                       1.0390411156E+01  1.5269693091E+01  1.0390411156E+01
                       1.0390411156E+01  1.0311367040E+01  4.8871190459E+00
                       1.0390411156E+01  1.0311367040E+01  1.5893703266E+01
                       1.0390411156E+01  5.3530409884E+00  1.0390411156E+01
                       1.5893703266E+01  1.0311367040E+01  1.0390411156E+01
                       4.8871190459E+00  1.0311367040E+01  1.0390411156E+01
                       6.0491263048E-21 -7.2895051219E-23  8.7820442539E-22
            xcart10    5.1899631910E+00  5.1504810139E+00  5.1899631910E+00
                       1.5569889573E+01  1.5451443042E+01  1.5569889573E+01
                       1.0379926382E+01  1.5254284723E+01  1.0379926382E+01
                       1.0379926382E+01  1.0300962028E+01  4.8821875433E+00
                       1.0379926382E+01  1.0300962028E+01  1.5877665221E+01
                       1.0379926382E+01  5.3476393325E+00  1.0379926382E+01
                       1.5877665221E+01  1.0300962028E+01  1.0379926382E+01
                       4.8821875433E+00  1.0300962028E+01  1.0379926382E+01
                       6.0430222419E-21 -7.2821494154E-23  8.7731824535E-22
             xred      2.5000000000E-01  2.5000000000E-01  2.5000000000E-01
                       7.5000000000E-01  7.5000000000E-01  7.5000000000E-01
                       7.4043010167E-01  2.5956989833E-01  7.4043010167E-01
                       2.3517447830E-01  2.3517447830E-01  7.6482552170E-01
                       7.6482552170E-01  7.6482552170E-01  2.3517447830E-01
                       2.5956989833E-01  7.4043010167E-01  2.5956989833E-01
                       2.3517447830E-01  7.6482552170E-01  7.6482552170E-01
                       7.6482552170E-01  2.3517447830E-01  2.3517447830E-01
                      -2.5236613091E-22  3.3688679254E-22  2.4529674322E-22
            znucl       55.00000   53.00000   72.00000   35.00000

================================================================================

 chkinp: Checking input parameters for consistency, jdtset=   1.

 chkinp: Checking input parameters for consistency, jdtset=   2.

 chkinp: Checking input parameters for consistency, jdtset=   3.

 chkinp: Checking input parameters for consistency, jdtset=   4.

 chkinp: Checking input parameters for consistency, jdtset=   5.

 chkinp: Checking input parameters for consistency, jdtset=   6.

 chkinp: Checking input parameters for consistency, jdtset=   7.

 chkinp: Checking input parameters for consistency, jdtset=   8.

 chkinp: Checking input parameters for consistency, jdtset=   9.

 chkinp: Checking input parameters for consistency, jdtset=  10.

================================================================================
== DATASET  1 ==================================================================
-   mpi_nproc: 6, omp_nthreads: -1 (-1 if OMP is not activated)


--- !DatasetInfo
iteration_state: {dtset: 1, }
dimensions: {natom: 9, nkpt: 20, mband: 42, nsppol: 1, nspinor: 1, nspden: 1, mpw: 10638, }
cutoff_energies: {ecut:  16.0, pawecutdg:  40.0, }
electrons: {nelect:   7.20000000E+01, charge:   0.00000000E+00, occopt:   1.00000000E+00, tsmear:   1.00000000E-02, }
meta: {optdriver: 0, ionmov: 2, optcell: 3, iscf: 17, paral_kgb: 0, }
...

 Real(R)+Recip(G) space primitive vectors, cartesian coordinates (Bohr,Bohr^-1):
 R(1)=  0.0000000 10.3946071 10.4742893  G(1)= -0.0477359  0.0481019  0.0477359
 R(2)= 10.4742893  0.0000000 10.4742893  G(2)=  0.0477359 -0.0481019  0.0477359
 R(3)= 10.4742893 10.3946071  0.0000000  G(3)=  0.0477359  0.0481019 -0.0477359
 Unit cell volume ucvol=  2.2808000E+03 bohr^3
 Angles (23,13,12)=  5.98738558E+01  6.02522884E+01  5.98738558E+01 degrees

 Coarse grid specifications (used for wave-functions):

 getcut: wavevector=  0.0000  0.0000  0.0000  ngfft=  64  64  64
         ecut(hartree)=     21.160   => boxcut(ratio)=   2.08650

 Fine grid specifications (used for densities):

 getcut: wavevector=  0.0000  0.0000  0.0000  ngfft= 100 100 100
         ecut(hartree)=     52.900   => boxcut(ratio)=   2.06190

--- Pseudopotential description ------------------------------------------------
- pspini: atom type   1  psp file is ../../../Psps_for_tests/ATOMICDATA/Cs.GGA_PBE-JTH.xml
- pspatm: opening atomic psp file    ../../../Psps_for_tests/ATOMICDATA/Cs.GGA_PBE-JTH.xml
- pspatm : Reading pseudopotential header in XML form from ../../../Psps_for_tests/ATOMICDATA/Cs.GGA_PBE-JTH.xml
 Pseudopotential format is: paw10
 basis_size (lnmax)=  6 (lmn_size= 18), orbitals=   0   0   1   1   2   2
 Spheres core radius: rc_sph= 2.20660278
 1 radial meshes are used:
  - mesh 1: r(i)=AA*[exp(BB*(i-1))-1], size=1500 , AA= 0.15922E-03 BB= 0.87573E-02
 Shapefunction is SIN type: shapef(r)=[sin(pi*r/rshp)/(pi*r/rshp)]**2
 Radius for shape functions =  2.00394208
 mmax= 1500
 Radial grid used for partial waves is grid 1
 Radial grid used for projectors is grid 1
 Radial grid used for (t)core density is grid 1
 Radial grid used for Vloc is grid 1
 Radial grid used for pseudo valence density is grid 1
 Mesh size for Vloc has been set to 1341 to avoid numerical noise.
 Compensation charge density is not taken into account in XC energy/potential
 pspatm: atomic psp has been read  and splines computed

- pspini: atom type   2  psp file is ../../../Psps_for_tests/ATOMICDATA/I.GGA_PBE-JTH.xml
- pspatm: opening atomic psp file    ../../../Psps_for_tests/ATOMICDATA/I.GGA_PBE-JTH.xml
- pspatm : Reading pseudopotential header in XML form from ../../../Psps_for_tests/ATOMICDATA/I.GGA_PBE-JTH.xml
 Pseudopotential format is: paw10
 basis_size (lnmax)=  4 (lmn_size=  8), orbitals=   0   0   1   1
 Spheres core radius: rc_sph= 2.30022271
 1 radial meshes are used:
  - mesh 1: r(i)=AA*[exp(BB*(i-1))-1], size=2000 , AA= 0.12610E-03 BB= 0.66836E-02
 Shapefunction is SIN type: shapef(r)=[sin(pi*r/rshp)/(pi*r/rshp)]**2
 Radius for shape functions =  2.10879093
 mmax= 2000
 Radial grid used for partial waves is grid 1
 Radial grid used for projectors is grid 1
 Radial grid used for (t)core density is grid 1
 Radial grid used for Vloc is grid 1
 Radial grid used for pseudo valence density is grid 1
 Mesh size for Vloc has been set to 1792 to avoid numerical noise.
 Compensation charge density is not taken into account in XC energy/potential
 pspatm: atomic psp has been read  and splines computed

- pspini: atom type   3  psp file is ../../../Psps_for_tests/ATOMICDATA/Hf.GGA_PBE-JTH.xml
- pspatm: opening atomic psp file    ../../../Psps_for_tests/ATOMICDATA/Hf.GGA_PBE-JTH.xml
- pspatm : Reading pseudopotential header in XML form from ../../../Psps_for_tests/ATOMICDATA/Hf.GGA_PBE-JTH.xml
 Pseudopotential format is: paw10
 basis_size (lnmax)=  6 (lmn_size= 18), orbitals=   0   0   1   1   2   2
 Spheres core radius: rc_sph= 2.41000000
 1 radial meshes are used:
  - mesh 1: r(i)=AA*[exp(BB*(i-1))-1], size= 972 , AA= 0.19796E-03 BB= 0.14253E-01
 Shapefunction is SIN type: shapef(r)=[sin(pi*r/rshp)/(pi*r/rshp)]**2
 Radius for shape functions =  2.41000000
 mmax=  972
 Radial grid used for partial waves is grid 1
 Radial grid used for projectors is grid 1
 Radial grid used for (t)core density is grid 1
 Radial grid used for Vloc is grid 1
 Radial grid used for pseudo valence density is grid 1
 Mesh size for Vloc has been set to  809 to avoid numerical noise.
 Compensation charge density is not taken into account in XC energy/potential
 pspatm: atomic psp has been read  and splines computed

- pspini: atom type   4  psp file is ../../../Psps_for_tests/ATOMICDATA/Br.GGA_PBE-JTH.xml
- pspatm: opening atomic psp file    ../../../Psps_for_tests/ATOMICDATA/Br.GGA_PBE-JTH.xml
- pspatm : Reading pseudopotential header in XML form from ../../../Psps_for_tests/ATOMICDATA/Br.GGA_PBE-JTH.xml
 Pseudopotential format is: paw10
 basis_size (lnmax)=  4 (lmn_size=  8), orbitals=   0   0   1   1
 Spheres core radius: rc_sph= 2.20000000
 1 radial meshes are used:
  - mesh 1: r(i)=AA*[exp(BB*(i-1))-1], size= 927 , AA= 0.40483E-03 BB= 0.14169E-01
 Shapefunction is BESSEL type: shapef(r,l)=aa(1,l)*jl(q(1,l)*r)+aa(2,l)*jl(q(2,l)*r)
 Radius for shape functions =  2.02066386
 mmax=  927
 Radial grid used for partial waves is grid 1
 Radial grid used for projectors is grid 1
 Radial grid used for (t)core density is grid 1
 Radial grid used for Vloc is grid 1
 Radial grid used for pseudo valence density is grid 1
 Mesh size for Vloc has been set to  763 to avoid numerical noise.
 Compensation charge density is not taken into account in XC energy/potential
 pspatm: atomic psp has been read  and splines computed

   3.08921017E+04                                ecore*ucvol(ha*bohr**3)
--------------------------------------------------------------------------------

_setup2: Arith. and geom. avg. npw (full set) are   10603.969   10603.966

================================================================================

=== [ionmov= 2] Broyden-Fletcher-Goldfard-Shanno method (forces)            
================================================================================

--- Iteration: (   1/1000) Internal Cycle: (1/1)
--------------------------------------------------------------------------------

---SELF-CONSISTENT-FIELD CONVERGENCE--------------------------------------------

--- !BeginCycle
iteration_state: {dtset: 1, itime: 1, icycle: 1, }
solver: {iscf: 17, nstep: 2500, nline: 4, wfoptalg: 10, }
tolerances: {toldff: 1.00E-08, }
...

     iter   Etot(hartree)      deltaE(h)  residm     nres2    diffor    maxfor
 ETOT  1  -169.65310376810    -1.697E+02 3.689E+00 9.380E+00 1.248E-02 1.248E-02
 ETOT  2  -171.14735395543    -1.494E+00 1.848E-02 3.166E+00 1.385E-02 1.318E-02
 ETOT  3  -171.13840419080     8.950E-03 1.337E-02 5.770E-01 3.355E-02 4.673E-02
 ETOT  4  -171.13936435026    -9.602E-04 4.074E-03 1.398E-01 3.905E-02 1.479E-02
 ETOT  5  -171.13931277045     5.158E-05 5.043E-03 9.997E-03 1.106E-02 2.392E-02
 ETOT  6  -171.13938119459    -6.842E-05 3.063E-03 1.340E-03 3.528E-03 2.065E-02
 ETOT  7  -171.13939124840    -1.005E-05 1.152E-03 2.523E-04 5.401E-04 2.034E-02
 ETOT  8  -171.13939293771    -1.689E-06 9.456E-04 1.712E-05 3.062E-04 2.065E-02
 ETOT  9  -171.13939312346    -1.857E-07 5.493E-04 3.986E-06 9.720E-05 2.055E-02
 ETOT 10  -171.13939313361    -1.015E-08 4.273E-04 6.241E-07 4.141E-05 2.058E-02
 ETOT 11  -171.13939313761    -4.003E-09 2.751E-04 1.587E-07 1.193E-05 2.057E-02
 ETOT 12  -171.13939313745     1.579E-10 2.513E-04 3.561E-08 7.326E-06 2.058E-02
 ETOT 13  -171.13939313758    -1.277E-10 1.603E-04 1.294E-08 2.837E-06 2.057E-02
 ETOT 14  -171.13939313764    -5.966E-11 1.397E-04 1.263E-09 1.222E-06 2.057E-02
 ETOT 15  -171.13939313767    -2.728E-11 8.735E-05 8.878E-10 4.749E-07 2.057E-02
 ETOT 16  -171.13939313768    -6.906E-12 7.522E-05 6.656E-11 2.937E-07 2.057E-02
 ETOT 17  -171.13939313769    -1.472E-11 5.917E-05 5.674E-11 5.416E-08 2.057E-02
 ETOT 18  -171.13939313769    -5.969E-13 6.139E-05 1.652E-12 5.560E-08 2.057E-02
 ETOT 19  -171.13939313769     1.933E-12 6.541E-05 6.038E-13 1.602E-08 2.057E-02
 ETOT 20  -171.13939313769    -2.615E-12 7.040E-05 5.290E-14 8.625E-09 2.057E-02
 ETOT 21  -171.13939313768     8.214E-12 6.825E-05 7.883E-14 5.624E-09 2.057E-02

 At SCF step   21, forces are converged : 
  for the second time, max diff in force=  5.624E-09 < toldff=  1.000E-08

 Cartesian components of stress tensor (hartree/bohr^3)
  sigma(1 1)= -2.67553299E-05  sigma(3 2)= -1.19970637E-13
  sigma(2 2)=  1.34309610E-05  sigma(3 1)=  2.38114710E-13
  sigma(3 3)= -2.67553299E-05  sigma(2 1)= -1.19969870E-13


--- !ResultsGS
iteration_state: {dtset: 1, itime: 1, icycle: 1, }
comment   : Summary of ground state results
lattice_vectors:
- [  0.0000000,  10.3946071,  10.4742893, ]
- [ 10.4742893,   0.0000000,  10.4742893, ]
- [ 10.4742893,  10.3946071,   0.0000000, ]
lattice_lengths: [  14.75665,   14.81288,   14.75665, ]
lattice_angles: [ 59.874,  60.252,  59.874, ] # degrees, (23, 13, 12)
lattice_volume:   2.2808000E+03
convergence: {deltae:  8.214E-12, res2:  7.883E-14, residm:  6.825E-05, diffor:  5.624E-09, }
etotal    :  -1.71139393E+02
entropy   :   0.00000000E+00
fermie    :  -7.55650307E-02
cartesian_stress_tensor: # hartree/bohr^3
- [ -2.67553299E-05,  -1.19969870E-13,   2.38114710E-13, ]
- [ -1.19969870E-13,   1.34309610E-05,  -1.19970637E-13, ]
- [  2.38114710E-13,  -1.19970637E-13,  -2.67553299E-05, ]
pressure_GPa:   3.9306E-01
xred      :
- [  2.5000E-01,   2.5000E-01,   2.5000E-01, Cs]
- [  7.5000E-01,   7.5000E-01,   7.5000E-01, Cs]
- [  7.4043E-01,   2.5957E-01,   7.4043E-01,  I]
- [  2.3517E-01,   2.3517E-01,   7.6483E-01, Br]
- [  7.6483E-01,   7.6483E-01,   2.3517E-01, Br]
- [  2.5957E-01,   7.4043E-01,   2.5957E-01, Br]
- [  2.3517E-01,   7.6483E-01,   7.6483E-01, Br]
- [  7.6483E-01,   2.3517E-01,   2.3517E-01, Br]
- [ -2.5237E-22,   3.3689E-22,   2.4530E-22, Hf]
cartesian_forces: # hartree/bohr
- [  8.38795422E-20,   2.62824158E-04,  -4.11223357E-20, ]
- [  8.38795422E-20,   2.62824158E-04,  -4.11223357E-20, ]
- [  1.63977519E-19,   2.01319481E-03,  -1.21220312E-19, ]
- [ -1.95062803E-14,   9.35385773E-04,  -9.68567493E-04, ]
- [  1.95063240E-14,   9.35385773E-04,   9.68567493E-04, ]
- [ -6.41592265E-19,  -2.05730910E-02,   6.84349471E-19, ]
- [  9.68567493E-04,   9.35385773E-04,   1.95059863E-14, ]
- [ -9.68567493E-04,   9.35385773E-04,  -1.95063480E-14, ]
- [  9.90537179E-20,   1.42927048E-02,  -5.62965114E-20, ]
force_length_stats: {min:   2.62824158E-04, max:   2.05730910E-02, mean:   4.75451663E-03, }
...

 Integrated electronic density in atomic spheres:
 ------------------------------------------------
 Atom  Sphere_radius  Integrated_density
    1        2.20660          5.35267888
    2        2.20660          5.35267888
    3        2.30022          4.01499505
    4        2.20000          4.94027577
    5        2.20000          4.94027577
    6        2.20000          4.89681411
    7        2.20000          4.94027577
    8        2.20000          4.94027577
    9        2.41000          9.25868118

 PAW TEST:
 ==== Compensation charge inside spheres ============
 The following values must be close to each other ...
 Compensation charge over spherical meshes =     -0.326769835884104
 Compensation charge over fine fft grid    =     -0.326761285411090

 ==== Results concerning PAW augmentation regions ====

 Total pseudopotential strength Dij (hartree):
 Atom #  1
   0.43204  -0.14311  -0.00000   0.00000   0.00000   0.00000   0.00000   0.00000   0.00000   0.00000  -0.00000  -0.00000 ...
  -0.14311   0.04307   0.00000   0.00000   0.00000  -0.00000   0.00000   0.00000   0.00000   0.00000   0.00000   0.00000 ...
  -0.00000   0.00000  -0.09257   0.00000   0.00000  -0.16716   0.00000   0.00000   0.00000   0.00000   0.00000  -0.00000 ...
   0.00000   0.00000   0.00000  -0.09257  -0.00000   0.00000  -0.16716   0.00000  -0.00000  -0.00000   0.00000   0.00000 ...
   0.00000   0.00000   0.00000  -0.00000  -0.09257   0.00000   0.00000  -0.16716  -0.00000  -0.00000   0.00000   0.00000 ...
   0.00000  -0.00000  -0.16716   0.00000   0.00000   0.40153   0.00000   0.00000   0.00000   0.00000  -0.00000   0.00000 ...
   0.00000   0.00000   0.00000  -0.16716   0.00000   0.00000   0.40151  -0.00001   0.00000   0.00000   0.00000   0.00000 ...
   0.00000   0.00000   0.00000   0.00000  -0.16716   0.00000  -0.00001   0.40151   0.00000   0.00000   0.00000   0.00000 ...
   0.00000   0.00000   0.00000  -0.00000  -0.00000   0.00000   0.00000   0.00000   0.00537  -0.00000   0.00000   0.00000 ...
   0.00000   0.00000   0.00000  -0.00000  -0.00000   0.00000   0.00000   0.00000  -0.00000   0.00537   0.00000   0.00000 ...
  -0.00000   0.00000   0.00000   0.00000   0.00000  -0.00000   0.00000   0.00000   0.00000   0.00000   0.00537  -0.00000 ...
  -0.00000   0.00000  -0.00000   0.00000   0.00000   0.00000   0.00000   0.00000   0.00000   0.00000  -0.00000   0.00537 ...
   ...  only 12  components have been written...
 Atom #  9
  -3.51009   0.42525   0.00020   0.00000   0.00000  -0.00007   0.00000   0.00000   0.00000   0.00000   0.00017   0.00000 ...
   0.42525   0.00339  -0.00009   0.00000   0.00000   0.00001   0.00000   0.00000   0.00000   0.00000  -0.00002   0.00000 ...
   0.00020  -0.00009  -1.44278   0.00000   0.00000   0.12072   0.00000   0.00000   0.00000   0.00000  -0.00006   0.00000 ...
   0.00000   0.00000   0.00000  -1.44165   0.00000   0.00000   0.12052   0.00000   0.00000  -0.00000   0.00000   0.00000 ...
   0.00000   0.00000   0.00000   0.00000  -1.44165   0.00000   0.00000   0.12052  -0.00000   0.00000   0.00000   0.00000 ...
  -0.00007   0.00001   0.12072   0.00000   0.00000   0.01381   0.00000   0.00000   0.00000   0.00000   0.00003   0.00000 ...
   0.00000   0.00000   0.00000   0.12052   0.00000   0.00000   0.01385   0.00000   0.00000  -0.00001   0.00000   0.00000 ...
   0.00000   0.00000   0.00000   0.00000   0.12052   0.00000   0.00000   0.01385  -0.00001   0.00000   0.00000   0.00000 ...
   0.00000   0.00000   0.00000   0.00000  -0.00000   0.00000   0.00000  -0.00001  -0.39144   0.00000   0.00000   0.00000 ...
   0.00000   0.00000   0.00000  -0.00000   0.00000   0.00000  -0.00001   0.00000   0.00000  -0.39144   0.00000   0.00000 ...
   0.00017  -0.00002  -0.00006   0.00000   0.00000   0.00003   0.00000   0.00000   0.00000   0.00000  -0.39063   0.00000 ...
   0.00000   0.00000   0.00000   0.00000   0.00000   0.00000   0.00000   0.00000   0.00000   0.00000   0.00000  -0.39123 ...
   ...  only 12  components have been written...


 Augmentation waves occupancies Rhoij:
 Atom #  1
   1.99760  -0.01517  -0.00001   0.00000   0.00000  -0.00001   0.00000   0.00000   0.00000   0.00000  -0.00131  -0.00063 ...
  -0.01517   0.14393   0.00013   0.00000   0.00000  -0.00005   0.00000   0.00000   0.00000   0.00000   0.00637  -0.01344 ...
  -0.00001   0.00013   2.00693   0.00000   0.00000  -0.00474   0.00000   0.00000   0.00000   0.00000   0.00028  -0.00035 ...
   0.00000   0.00000   0.00000   2.00997   0.00034   0.00000  -0.00517   0.00001  -0.00052   0.00006   0.00000   0.00000 ...
   0.00000   0.00000   0.00000   0.00034   2.00997   0.00000   0.00001  -0.00517   0.00006  -0.00052   0.00000   0.00000 ...
  -0.00001  -0.00005  -0.00474   0.00000   0.00000   0.00009   0.00000   0.00000   0.00000   0.00000  -0.00001  -0.00003 ...
   0.00000   0.00000   0.00000  -0.00517   0.00001   0.00000   0.00011  -0.00001  -0.00002  -0.00004   0.00000   0.00000 ...
   0.00000   0.00000   0.00000   0.00001  -0.00517   0.00000  -0.00001   0.00011  -0.00004  -0.00002   0.00000   0.00000 ...
   0.00000   0.00000   0.00000  -0.00052   0.00006   0.00000  -0.00002  -0.00004   0.04070  -0.00069   0.00000   0.00000 ...
   0.00000   0.00000   0.00000   0.00006  -0.00052   0.00000  -0.00004  -0.00002  -0.00069   0.04070   0.00000   0.00000 ...
  -0.00131   0.00637   0.00028   0.00000   0.00000  -0.00001   0.00000   0.00000   0.00000   0.00000   0.02845  -0.00444 ...
  -0.00063  -0.01344  -0.00035   0.00000   0.00000  -0.00003   0.00000   0.00000   0.00000   0.00000  -0.00444   0.06009 ...
   ...  only 12  components have been written...
 Atom #  9
   1.99777  -0.02270   0.00016   0.00000   0.00000   0.00045   0.00000   0.00000   0.00000   0.00000   0.00197   0.00000 ...
  -0.02270   0.99273   0.00031   0.00000   0.00000  -0.07125   0.00000   0.00000   0.00000   0.00000   0.04866   0.00000 ...
   0.00016   0.00031   1.99167   0.00000   0.00000  -0.07126   0.00000   0.00000   0.00000   0.00000   0.00205   0.00000 ...
   0.00000   0.00000   0.00000   1.99159   0.00000   0.00000  -0.07237   0.00000   0.00000  -0.00041   0.00000   0.00000 ...
   0.00000   0.00000   0.00000   0.00000   1.99159   0.00000   0.00000  -0.07237  -0.00041   0.00000   0.00000   0.00000 ...
   0.00045  -0.07125  -0.07126   0.00000   0.00000   1.02293   0.00000   0.00000   0.00000   0.00000   0.06857   0.00000 ...
   0.00000   0.00000   0.00000  -0.07237   0.00000   0.00000   1.35209   0.00000   0.00000  -0.01530   0.00000   0.00000 ...
   0.00000   0.00000   0.00000   0.00000  -0.07237   0.00000   0.00000   1.35209  -0.01530   0.00000   0.00000   0.00000 ...
   0.00000   0.00000   0.00000   0.00000  -0.00041   0.00000   0.00000  -0.01530   0.44576   0.00000   0.00000   0.00000 ...
   0.00000   0.00000   0.00000  -0.00041   0.00000   0.00000  -0.01530   0.00000   0.00000   0.44576   0.00000   0.00000 ...
   0.00197   0.04866   0.00205   0.00000   0.00000   0.06857   0.00000   0.00000   0.00000   0.00000   1.47443   0.00000 ...
   0.00000   0.00000   0.00000   0.00000   0.00000   0.00000   0.00000   0.00000   0.00000   0.00000   0.00000   0.50404 ...
   ...  only 12  components have been written...



---OUTPUT-----------------------------------------------------------------------

 Cartesian coordinates (xcart) [bohr]
  5.23714467451124E+00  5.19730356856098E+00  5.23714467451124E+00
  1.57114340235337E+01  1.55919107056829E+01  1.57114340235337E+01
  1.04742893491239E+01  1.53929600387178E+01  1.04742893491239E+01
  1.04742893491342E+01  1.03946071371220E+01  4.92657106643922E+00
  1.04742893489107E+01  1.03946071371220E+01  1.60220076316057E+01
  1.04742893489210E+01  5.39625423552608E+00  1.04742893489210E+01
  1.60220076316057E+01  1.03946071371220E+01  1.04742893489107E+01
  4.92657106643922E+00  1.03946071371220E+01  1.04742893491342E+01
  6.09795880776789E-21 -7.34835077375555E-23  8.85293865759141E-22
 Reduced coordinates (xred)
  2.50000000000000E-01  2.50000000000000E-01  2.50000000000000E-01
  7.50000000000000E-01  7.50000000000000E-01  7.50000000000000E-01
  7.40430101670000E-01  2.59569898330000E-01  7.40430101670000E-01
  2.35174478300000E-01  2.35174478300000E-01  7.64825521700000E-01
  7.64825521700000E-01  7.64825521700000E-01  2.35174478300000E-01
  2.59569898330000E-01  7.40430101670000E-01  2.59569898330000E-01
  2.35174478300000E-01  7.64825521700000E-01  7.64825521700000E-01
  7.64825521700000E-01  2.35174478300000E-01  2.35174478300000E-01
 -2.52366130910000E-22  3.36886792540000E-22  2.45296743220000E-22
 Cartesian forces (fcart) [Ha/bohr]; max,rms= 2.05731E-02 4.86475E-03 (free atoms)
  8.38795422211444E-20  2.62824157870354E-04 -4.11223356964501E-20
  8.38795422211444E-20  2.62824157870354E-04 -4.11223356964501E-20
  1.63977518592951E-19  2.01319480620217E-03 -1.21220312068257E-19
 -1.95062803464563E-14  9.35385773306738E-04 -9.68567493365600E-04
  1.95063239740857E-14  9.35385773267426E-04  9.68567493365600E-04
 -6.41592264550952E-19 -2.05730909940574E-02  6.84349471075647E-19
  9.68567493365601E-04  9.35385773267426E-04  1.95059863174849E-14
 -9.68567493365600E-04  9.35385773306738E-04 -1.95063479639647E-14
  9.90537179408495E-20  1.42927047789662E-02 -5.62965114161551E-20
 Reduced forces (fred)
 -2.73195386720726E-03 -4.47851352886541E-19 -2.73195386720726E-03
 -2.73195386720726E-03 -4.47851352886541E-19 -2.73195386720726E-03
 -2.09263691009660E-02 -4.47851352886541E-19 -2.09263691009660E-02
  4.22088544596456E-04  1.01450561795687E-02 -9.72296763497225E-03
 -1.98680238145410E-02 -1.01450561795687E-02 -9.72296763497225E-03
  2.13849198479489E-01 -4.47851352886540E-19  2.13849198479489E-01
 -9.72296763497225E-03 -1.01450561795687E-02 -1.98680238145410E-02
 -9.72296763497225E-03  1.01450561795687E-02  4.22088544596456E-04
 -1.48567051104220E-01 -4.47851352886541E-19 -1.48567051104220E-01
 Scale of Primitive Cell (acell) [bohr]
  1.47566457877950E+01  1.48128820532370E+01  1.47566457877950E+01
 Real space primitive translations (rprimd) [bohr]
  0.00000000000000E+00  1.03946071371220E+01  1.04742893492334E+01
  1.04742893488115E+01  0.00000000000000E+00  1.04742893488115E+01
  1.04742893492334E+01  1.03946071371220E+01  0.00000000000000E+00
 Unitary Cell Volume (ucvol) [Bohr^3]=  2.28080002730882E+03
 Angles (23,13,12)= [degrees]
  5.98738557999825E+01  6.02522884000350E+01  5.98738557999825E+01
 Lengths [Bohr]
  1.47566457877992E+01  1.48128820533093E+01  1.47566457877992E+01
 Stress tensor in cartesian coordinates (strten) [Ha/bohr^3]
 -2.67553298717652E-05 -1.19969869528515E-13  2.38114710373369E-13
 -1.19969869528515E-13  1.34309610043213E-05 -1.19970637057140E-13
  2.38114710373369E-13 -1.19970637057140E-13 -2.67553298717643E-05
 Total energy (etotal) [Ha]= -1.71139393137683E+02

--- Iteration: (   2/1000) Internal Cycle: (1/1)
--------------------------------------------------------------------------------

---SELF-CONSISTENT-FIELD CONVERGENCE--------------------------------------------

--- !BeginCycle
iteration_state: {dtset: 1, itime: 2, icycle: 1, }
solver: {iscf: 17, nstep: 2500, nline: 4, wfoptalg: 10, }
tolerances: {toldff: 1.00E-08, }
...

     iter   Etot(hartree)      deltaE(h)  residm     nres2    diffor    maxfor
 ETOT  1  -171.14030361118    -1.711E+02 3.901E+04 9.754E-02 2.454E-02 4.511E-02
 ETOT  2  -171.14017078151     1.328E-04 1.717E+01 1.677E-02 1.516E-02 2.996E-02
 ETOT  3  -171.14009395265     7.683E-05 3.361E+00 1.427E-03 6.895E-03 2.306E-02
 ETOT  4  -171.14009188794     2.065E-06 2.917E-01 3.804E-04 2.569E-03 2.049E-02
 ETOT  5  -171.14009252285    -6.349E-07 4.664E-01 1.207E-04 5.388E-04 2.083E-02
 ETOT  6  -171.14009278747    -2.646E-07 5.961E-02 1.249E-05 1.111E-03 1.972E-02
 ETOT  7  -171.14009287422    -8.675E-08 2.170E-01 4.259E-06 1.187E-04 1.984E-02
 ETOT  8  -171.14009295065    -7.643E-08 3.262E-02 4.681E-07 5.374E-05 1.979E-02
 ETOT  9  -171.14009296329    -1.264E-08 8.729E-02 2.841E-07 6.749E-06 1.978E-02
 ETOT 10  -171.14009296841    -5.117E-09 1.387E-02 3.758E-08 9.666E-06 1.977E-02
 ETOT 11  -171.14009297092    -2.514E-09 3.354E-02 2.684E-08 2.443E-06 1.977E-02
 ETOT 12  -171.14009297324    -2.313E-09 5.646E-03 7.966E-09 1.962E-06 1.977E-02
 ETOT 13  -171.14009297430    -1.062E-09 1.226E-02 3.101E-09 1.100E-06 1.977E-02
 ETOT 14  -171.14009297525    -9.511E-10 2.087E-03 8.652E-10 9.460E-07 1.977E-02
 ETOT 15  -171.14009297570    -4.507E-10 4.314E-03 2.200E-10 5.331E-07 1.977E-02
 ETOT 16  -171.14009297604    -3.359E-10 7.560E-04 5.905E-11 1.404E-07 1.977E-02
 ETOT 17  -171.14009297646    -4.214E-10 1.472E-03 2.931E-11 1.649E-07 1.977E-02
 ETOT 18  -171.14009297672    -2.625E-10 2.633E-04 7.398E-12 3.658E-08 1.977E-02
 ETOT 19  -171.14009297682    -1.056E-10 4.909E-04 1.426E-12 1.559E-08 1.977E-02
 ETOT 20  -171.14009297688    -5.156E-11 8.906E-05 5.530E-13 1.048E-08 1.977E-02
 ETOT 21  -171.14009297689    -1.569E-11 1.605E-04 1.365E-14 5.742E-09 1.977E-02
 ETOT 22  -171.14009297688     8.242E-12 2.962E-05 4.304E-15 3.272E-09 1.977E-02

 At SCF step   22, forces are converged : 
  for the second time, max diff in force=  3.272E-09 < toldff=  1.000E-08

 Cartesian components of stress tensor (hartree/bohr^3)
  sigma(1 1)= -2.69850034E-05  sigma(3 2)= -1.20038536E-13
  sigma(2 2)=  1.17778977E-05  sigma(3 1)=  2.37961638E-13
  sigma(3 3)= -2.69850034E-05  sigma(2 1)= -1.20038215E-13


--- !ResultsGS
iteration_state: {dtset: 1, itime: 2, icycle: 1, }
comment   : Summary of ground state results
lattice_vectors:
- [  0.0000000,  10.3862544,  10.4785003, ]
- [ 10.4785003,   0.0000000,  10.4785003, ]
- [ 10.4785003,  10.3862544,   0.0000000, ]
lattice_lengths: [  14.75375,   14.81884,   14.75375, ]
lattice_angles: [ 59.854,  60.292,  59.854, ] # degrees, (23, 13, 12)
lattice_volume:   2.2808000E+03
convergence: {deltae:  8.242E-12, res2:  4.304E-15, residm:  2.962E-05, diffor:  3.272E-09, }
etotal    :  -1.71140093E+02
entropy   :   0.00000000E+00
fermie    :  -7.51055198E-02
cartesian_stress_tensor: # hartree/bohr^3
- [ -2.69850034E-05,  -1.20038215E-13,   2.37961638E-13, ]
- [ -1.20038215E-13,   1.17778977E-05,  -1.20038536E-13, ]
- [  2.37961638E-13,  -1.20038536E-13,  -2.69850034E-05, ]
pressure_GPa:   4.1378E-01
xred      :
- [  2.5001E-01,   2.4999E-01,   2.5001E-01, Cs]
- [  7.5001E-01,   7.4999E-01,   7.5001E-01, Cs]
- [  7.4053E-01,   2.5947E-01,   7.4053E-01,  I]
- [  2.3517E-01,   2.3508E-01,   7.6492E-01, Br]
- [  7.6492E-01,   7.6483E-01,   2.3517E-01, Br]
- [  2.5858E-01,   7.4142E-01,   2.5858E-01, Br]
- [  2.3517E-01,   7.6483E-01,   7.6492E-01, Br]
- [  7.6492E-01,   2.3508E-01,   2.3517E-01, Br]
- [  6.8751E-04,  -6.8751E-04,   6.8751E-04, Hf]
cartesian_forces: # hartree/bohr
- [  1.10207633E-19,   2.69248610E-04,  -9.44437731E-20, ]
- [  1.10207633E-19,   2.69248610E-04,  -9.44437731E-20, ]
- [  1.08146887E-19,   2.08887805E-03,  -9.23830279E-20, ]
- [ -1.75602685E-14,   9.02495099E-04,  -8.72463191E-04, ]
- [  1.75602924E-14,   9.02495099E-04,   8.72463191E-04, ]
- [ -4.42047273E-19,  -1.97672235E-02,   4.57811132E-19, ]
- [  8.72463191E-04,   9.02495099E-04,   1.75601345E-14, ]
- [ -8.72463191E-04,   9.02495099E-04,  -1.75603296E-14, ]
- [ -1.31361197E-19,   1.35298678E-02,   1.47125056E-19, ]
force_length_stats: {min:   2.69248610E-04, max:   1.97672235E-02, mean:   4.54950281E-03, }
...

 Integrated electronic density in atomic spheres:
 ------------------------------------------------
 Atom  Sphere_radius  Integrated_density
    1        2.20660          5.35615436
    2        2.20660          5.35615436
    3        2.30022          4.01307906
    4        2.20000          4.93991192
    5        2.20000          4.93991192
    6        2.20000          4.90115369
    7        2.20000          4.93991192
    8        2.20000          4.93991192
    9        2.41000          9.25944806

 PAW TEST:
 ==== Compensation charge inside spheres ============
 The following values must be close to each other ...
 Compensation charge over spherical meshes =     -0.326597304561645
 Compensation charge over fine fft grid    =     -0.326588787847676

 ==== Results concerning PAW augmentation regions ====

 Total pseudopotential strength Dij (hartree):
 Atom #  1
   0.43204  -0.14312  -0.00000   0.00000   0.00000   0.00000   0.00000   0.00000   0.00000   0.00000  -0.00000  -0.00000 ...
  -0.14312   0.04307   0.00000   0.00000   0.00000  -0.00000   0.00000   0.00000   0.00000   0.00000   0.00000   0.00000 ...
  -0.00000   0.00000  -0.09257   0.00000   0.00000  -0.16716   0.00000   0.00000   0.00000   0.00000   0.00000  -0.00000 ...
   0.00000   0.00000   0.00000  -0.09257  -0.00000   0.00000  -0.16716   0.00000  -0.00000  -0.00000   0.00000   0.00000 ...
   0.00000   0.00000   0.00000  -0.00000  -0.09257   0.00000   0.00000  -0.16716  -0.00000  -0.00000   0.00000   0.00000 ...
   0.00000  -0.00000  -0.16716   0.00000   0.00000   0.40153   0.00000   0.00000   0.00000   0.00000  -0.00000   0.00000 ...
   0.00000   0.00000   0.00000  -0.16716   0.00000   0.00000   0.40151  -0.00000   0.00000   0.00000   0.00000   0.00000 ...
   0.00000   0.00000   0.00000   0.00000  -0.16716   0.00000  -0.00000   0.40151   0.00000   0.00000   0.00000   0.00000 ...
   0.00000   0.00000   0.00000  -0.00000  -0.00000   0.00000   0.00000   0.00000   0.00537  -0.00000   0.00000   0.00000 ...
   0.00000   0.00000   0.00000  -0.00000  -0.00000   0.00000   0.00000   0.00000  -0.00000   0.00537   0.00000   0.00000 ...
  -0.00000   0.00000   0.00000   0.00000   0.00000  -0.00000   0.00000   0.00000   0.00000   0.00000   0.00537  -0.00000 ...
  -0.00000   0.00000  -0.00000   0.00000   0.00000   0.00000   0.00000   0.00000   0.00000   0.00000  -0.00000   0.00537 ...
   ...  only 12  components have been written...
 Atom #  9
  -3.50997   0.42521   0.00020   0.00000   0.00000  -0.00007   0.00000   0.00000   0.00000   0.00000   0.00016   0.00000 ...
   0.42521   0.00340  -0.00009   0.00000   0.00000   0.00001   0.00000   0.00000   0.00000   0.00000  -0.00002   0.00000 ...
   0.00020  -0.00009  -1.44254   0.00000   0.00000   0.12067   0.00000   0.00000   0.00000   0.00000  -0.00006   0.00000 ...
   0.00000   0.00000   0.00000  -1.44149   0.00000   0.00000   0.12049   0.00000   0.00000   0.00000   0.00000   0.00000 ...
   0.00000   0.00000   0.00000   0.00000  -1.44149   0.00000   0.00000   0.12049   0.00000   0.00000   0.00000   0.00000 ...
  -0.00007   0.00001   0.12067   0.00000   0.00000   0.01382   0.00000   0.00000   0.00000   0.00000   0.00003   0.00000 ...
   0.00000   0.00000   0.00000   0.12049   0.00000   0.00000   0.01385   0.00000   0.00000  -0.00002   0.00000   0.00000 ...
   0.00000   0.00000   0.00000   0.00000   0.12049   0.00000   0.00000   0.01385  -0.00002   0.00000   0.00000   0.00000 ...
   0.00000   0.00000   0.00000   0.00000   0.00000   0.00000   0.00000  -0.00002  -0.39140   0.00000   0.00000   0.00000 ...
   0.00000   0.00000   0.00000   0.00000   0.00000   0.00000  -0.00002   0.00000   0.00000  -0.39140   0.00000   0.00000 ...
   0.00016  -0.00002  -0.00006   0.00000   0.00000   0.00003   0.00000   0.00000   0.00000   0.00000  -0.39059   0.00000 ...
   0.00000   0.00000   0.00000   0.00000   0.00000   0.00000   0.00000   0.00000   0.00000   0.00000   0.00000  -0.39120 ...
   ...  only 12  components have been written...


 Augmentation waves occupancies Rhoij:
 Atom #  1
   1.99760  -0.01517  -0.00001   0.00000   0.00000  -0.00001   0.00000   0.00000   0.00000   0.00000  -0.00128  -0.00033 ...
  -0.01517   0.14385   0.00030   0.00000   0.00000  -0.00005   0.00000   0.00000   0.00000   0.00000   0.00627  -0.01385 ...
  -0.00001   0.00030   2.00698   0.00000   0.00000  -0.00475   0.00000   0.00000   0.00000   0.00000   0.00026  -0.00028 ...
   0.00000   0.00000   0.00000   2.00994   0.00014   0.00000  -0.00517   0.00003  -0.00045   0.00020   0.00000   0.00000 ...
   0.00000   0.00000   0.00000   0.00014   2.00994   0.00000   0.00003  -0.00517   0.00020  -0.00045   0.00000   0.00000 ...
  -0.00001  -0.00005  -0.00475   0.00000   0.00000   0.00009   0.00000   0.00000   0.00000   0.00000  -0.00001  -0.00003 ...
   0.00000   0.00000   0.00000  -0.00517   0.00003   0.00000   0.00011  -0.00001  -0.00002  -0.00004   0.00000   0.00000 ...
   0.00000   0.00000   0.00000   0.00003  -0.00517   0.00000  -0.00001   0.00011  -0.00004  -0.00002   0.00000   0.00000 ...
   0.00000   0.00000   0.00000  -0.00045   0.00020   0.00000  -0.00002  -0.00004   0.04081  -0.00065   0.00000   0.00000 ...
   0.00000   0.00000   0.00000   0.00020  -0.00045   0.00000  -0.00004  -0.00002  -0.00065   0.04081   0.00000   0.00000 ...
  -0.00128   0.00627   0.00026   0.00000   0.00000  -0.00001   0.00000   0.00000   0.00000   0.00000   0.02850  -0.00457 ...
  -0.00033  -0.01385  -0.00028   0.00000   0.00000  -0.00003   0.00000   0.00000   0.00000   0.00000  -0.00457   0.05979 ...
   ...  only 12  components have been written...
 Atom #  9
   1.99777  -0.02271   0.00015   0.00000   0.00000   0.00044   0.00000   0.00000   0.00000   0.00000   0.00188   0.00000 ...
  -0.02271   0.99293   0.00022   0.00000   0.00000  -0.06486   0.00000   0.00000   0.00000   0.00000   0.04682   0.00000 ...
   0.00015   0.00022   1.99166   0.00000   0.00000  -0.07131   0.00000   0.00000   0.00000   0.00000   0.00190   0.00000 ...
   0.00000   0.00000   0.00000   1.99160   0.00000   0.00000  -0.07227   0.00000   0.00000  -0.00025   0.00000   0.00000 ...
   0.00000   0.00000   0.00000   0.00000   1.99160   0.00000   0.00000  -0.07227  -0.00025   0.00000   0.00000   0.00000 ...
   0.00044  -0.06486  -0.07131   0.00000   0.00000   1.03482   0.00000   0.00000   0.00000   0.00000   0.05951   0.00000 ...
   0.00000   0.00000   0.00000  -0.07227   0.00000   0.00000   1.35022   0.00000   0.00000  -0.01879   0.00000   0.00000 ...
   0.00000   0.00000   0.00000   0.00000  -0.07227   0.00000   0.00000   1.35022  -0.01879   0.00000   0.00000   0.00000 ...
   0.00000   0.00000   0.00000   0.00000  -0.00025   0.00000   0.00000  -0.01879   0.44673   0.00000   0.00000   0.00000 ...
   0.00000   0.00000   0.00000  -0.00025   0.00000   0.00000  -0.01879   0.00000   0.00000   0.44673   0.00000   0.00000 ...
   0.00188   0.04682   0.00190   0.00000   0.00000   0.05951   0.00000   0.00000   0.00000   0.00000   1.47490   0.00000 ...
   0.00000   0.00000   0.00000   0.00000   0.00000   0.00000   0.00000   0.00000   0.00000   0.00000   0.00000   0.50313 ...
   ...  only 12  components have been written...



---OUTPUT-----------------------------------------------------------------------

 Cartesian coordinates (xcart) [bohr]
  5.23925013503689E+00  5.19338981334581E+00  5.23925013503689E+00
  1.57177504051107E+01  1.55796442141140E+01  1.57177504051107E+01
  1.04785002701752E+01  1.53826023809370E+01  1.04785002701752E+01
  1.04785002701855E+01  1.03871890348987E+01  4.92758271188080E+00
  1.04785002699621E+01  1.03871890348987E+01  1.60294178282668E+01
  1.04785002699719E+01  5.37136143848349E+00  1.04785002699719E+01
  1.60294178282668E+01  1.03871890348987E+01  1.04785002699621E+01
  4.92758271188080E+00  1.03871890348987E+01  1.04785002701855E+01
  2.87376096731316E-13  1.42812196700801E-02  2.88250879313639E-13
 Reduced coordinates (xred)
  2.50012642332433E-01  2.49987357667567E-01  2.50012642332433E-01
  7.50012642332433E-01  7.49987357667567E-01  7.50012642332433E-01
  7.40526940096871E-01  2.59473059903129E-01  7.40526940096871E-01
  2.35173236625839E-01  2.35083249023523E-01  7.64916750976477E-01
  7.64916750976477E-01  7.64826763374161E-01  2.35173236625839E-01
  2.58580294263071E-01  7.41419705736929E-01  2.58580294263071E-01
  2.35173236625839E-01  7.64826763374161E-01  7.64916750976477E-01
  7.64916750976477E-01  2.35083249023523E-01  2.35173236625839E-01
  6.87505770560787E-04 -6.87505770560953E-04  6.87505770560703E-04
 Cartesian forces (fcart) [Ha/bohr]; max,rms= 1.97672E-02 4.65320E-03 (free atoms)
  1.10207632567654E-19  2.69248610108241E-04 -9.44437731340761E-20
  1.10207632567654E-19  2.69248610108241E-04 -9.44437731340761E-20
  1.08146887333929E-19  2.08887804690077E-03 -9.23830279003506E-20
 -1.75602685278389E-14  9.02495098852985E-04 -8.72463190815564E-04
  1.75602924454840E-14  9.02495098817552E-04  8.72463190815564E-04
 -4.42047272901795E-19 -1.97672234946670E-02  4.57811132335373E-19
  8.72463190815564E-04  9.02495098817552E-04  1.75601345473361E-14
 -8.72463190815564E-04  9.02495098852985E-04 -1.75603296262592E-14
 -1.31361196773954E-19  1.35298678322086E-02  1.47125056207533E-19
 Reduced forces (fred)
 -2.79648456163743E-03 -1.65181605328830E-19 -2.79648456163743E-03
 -2.79648456163743E-03 -1.65181605328830E-19 -2.79648456163743E-03
 -2.16956188072911E-02 -1.65181605328830E-19 -2.16956188072911E-02
 -2.31437911359191E-04  9.14210578059032E-03 -9.37354369194951E-03
 -1.85156494725398E-02 -9.14210578059032E-03 -9.37354369194951E-03
  2.05307412012453E-01 -1.65181605328830E-19  2.05307412012453E-01
 -9.37354369194951E-03 -9.14210578059032E-03 -1.85156494725398E-02
 -9.37354369194951E-03  9.14210578059032E-03 -2.31437911359192E-04
 -1.40524649314089E-01 -1.65181605328830E-19 -1.40524649314089E-01
 Scale of Primitive Cell (acell) [bohr]
  1.47537537051366E+01  1.48188371949702E+01  1.47537537051366E+01
 Real space primitive translations (rprimd) [bohr]
  0.00000000000000E+00  1.03862544007682E+01  1.04785002702847E+01
  1.04785002698629E+01  0.00000000000000E+00  1.04785002698629E+01
  1.04785002702847E+01  1.03862544007682E+01  0.00000000000000E+00
 Unitary Cell Volume (ucvol) [Bohr^3]=  2.28080002730876E+03
 Angles (23,13,12)= [degrees]
  5.98539671916419E+01  6.02920656167161E+01  5.98539671916419E+01
 Lengths [Bohr]
  1.47537537051366E+01  1.48188371949702E+01  1.47537537051366E+01
 Stress tensor in cartesian coordinates (strten) [Ha/bohr^3]
 -2.69850033951351E-05 -1.20038214703487E-13  2.37961638214585E-13
 -1.20038214703487E-13  1.17778976815143E-05 -1.20038536220704E-13
  2.37961638214585E-13 -1.20038536220704E-13 -2.69850033951342E-05
 Total energy (etotal) [Ha]= -1.71140092976884E+02

 Difference of energy with previous step (new-old):
           Absolute (Ha)=-6.99839E-04
           Relative     =-4.08929E-06

--- Iteration: (   3/1000) Internal Cycle: (1/1)
--------------------------------------------------------------------------------

---SELF-CONSISTENT-FIELD CONVERGENCE--------------------------------------------

--- !BeginCycle
iteration_state: {dtset: 1, itime: 3, icycle: 1, }
solver: {iscf: 17, nstep: 2500, nline: 4, wfoptalg: 10, }
tolerances: {toldff: 1.00E-08, }
...

     iter   Etot(hartree)      deltaE(h)  residm     nres2    diffor    maxfor
 ETOT  1  -169.82921137124    -1.698E+02 8.026E+05 1.307E+02 8.138E-01 8.336E-01
 ETOT  2  -171.52873536045    -1.700E+00 1.038E+05 5.963E+01 9.861E-01 2.900E-01
 ETOT  3  -171.21185537265     3.169E-01 2.786E+03 1.518E+01 1.778E-01 1.122E-01
 ETOT  4  -171.13812418948     7.373E-02 2.176E+02 1.263E+00 1.080E-01 1.138E-02
 ETOT  5  -171.13650640212     1.618E-03 4.940E+01 1.669E-01 2.937E-02 4.076E-02
 ETOT  6  -171.13595763007     5.488E-04 3.846E+00 2.655E-02 1.118E-02 4.960E-02
 ETOT  7  -171.13593257326     2.506E-05 5.591E+00 6.086E-03 1.090E-02 4.982E-02
 ETOT  8  -171.13593261254    -3.928E-08 6.978E-01 1.887E-03 1.763E-03 5.015E-02
 ETOT  9  -171.13593728690    -4.674E-06 1.109E+00 3.032E-04 1.770E-03 5.054E-02
 ETOT 10  -171.13593931861    -2.032E-06 1.897E-01 5.217E-05 3.395E-04 5.033E-02
 ETOT 11  -171.13593951113    -1.925E-07 6.341E-01 4.812E-06 6.619E-05 5.026E-02
 ETOT 12  -171.13593954944    -3.830E-08 1.840E-01 1.143E-06 5.707E-05 5.023E-02
 ETOT 13  -171.13593955751    -8.077E-09 6.637E-01 2.612E-07 1.590E-05 5.024E-02
 ETOT 14  -171.13593956271    -5.193E-09 1.995E-01 6.617E-08 1.599E-05 5.024E-02
 ETOT 15  -171.13593956434    -1.634E-09 6.957E-01 1.048E-08 2.203E-06 5.024E-02
 ETOT 16  -171.13593956601    -1.668E-09 2.070E-01 4.122E-09 2.436E-06 5.024E-02
 ETOT 17  -171.13593956696    -9.564E-10 6.601E-01 1.097E-09 1.175E-06 5.024E-02
 ETOT 18  -171.13593956844    -1.475E-09 1.888E-01 5.407E-10 3.360E-07 5.024E-02
 ETOT 19  -171.13593956886    -4.169E-10 4.993E-01 1.682E-10 1.996E-07 5.024E-02
 ETOT 20  -171.13593956949    -6.293E-10 1.296E-01 5.624E-11 3.713E-08 5.024E-02
 ETOT 21  -171.13593956980    -3.139E-10 2.504E-01 4.147E-11 5.539E-08 5.024E-02
 ETOT 22  -171.13593957001    -2.106E-10 5.496E-02 4.142E-12 5.121E-08 5.024E-02
 ETOT 23  -171.13593957016    -1.460E-10 6.992E-02 3.381E-12 4.604E-08 5.024E-02
 ETOT 24  -171.13593957023    -7.546E-11 1.253E-02 1.933E-13 1.357E-08 5.024E-02
 ETOT 25  -171.13593957026    -2.609E-11 1.014E-02 2.412E-13 6.232E-09 5.024E-02
 ETOT 26  -171.13593957027    -1.339E-11 1.582E-03 1.035E-14 3.202E-09 5.024E-02

 At SCF step   26, forces are converged : 
  for the second time, max diff in force=  3.202E-09 < toldff=  1.000E-08

 Cartesian components of stress tensor (hartree/bohr^3)
  sigma(1 1)= -3.17280887E-05  sigma(3 2)= -1.21583062E-13
  sigma(2 2)= -1.21205168E-04  sigma(3 1)=  2.34604925E-13
  sigma(3 3)= -3.17280887E-05  sigma(2 1)= -1.21583551E-13


--- !ResultsGS
iteration_state: {dtset: 1, itime: 3, icycle: 1, }
comment   : Summary of ground state results
lattice_vectors:
- [  0.0000000,  10.2009624,  10.5732386, ]
- [ 10.5732386,   0.0000000,  10.5732386, ]
- [ 10.5732386,  10.2009624,   0.0000000, ]
lattice_lengths: [  14.69194,   14.95282,   14.69194, ]
lattice_angles: [ 59.411,  61.178,  59.411, ] # degrees, (23, 13, 12)
lattice_volume:   2.2808000E+03
convergence: {deltae: -1.339E-11, res2:  1.035E-14, residm:  1.582E-03, diffor:  3.202E-09, }
etotal    :  -1.71135940E+02
entropy   :   0.00000000E+00
fermie    :  -6.17790603E-02
cartesian_stress_tensor: # hartree/bohr^3
- [ -3.17280887E-05,  -1.21583551E-13,   2.34604925E-13, ]
- [ -1.21583551E-13,  -1.21205168E-04,  -1.21583062E-13, ]
- [  2.34604925E-13,  -1.21583062E-13,  -3.17280887E-05, ]
pressure_GPa:   1.8110E+00
xred      :
- [  2.5031E-01,   2.4969E-01,   2.5031E-01, Cs]
- [  7.5031E-01,   7.4969E-01,   7.5031E-01, Cs]
- [  7.4285E-01,   2.5715E-01,   7.4285E-01,  I]
- [  2.3521E-01,   2.3312E-01,   7.6688E-01, Br]
- [  7.6688E-01,   7.6479E-01,   2.3521E-01, Br]
- [  2.3663E-01,   7.6337E-01,   2.3663E-01, Br]
- [  2.3521E-01,   7.6479E-01,   7.6688E-01, Br]
- [  7.6688E-01,   2.3312E-01,   2.3521E-01, Br]
- [  1.5713E-02,  -1.5713E-02,   1.5713E-02, Hf]
cartesian_forces: # hartree/bohr
- [  7.17781517E-20,   3.49908445E-04,  -7.76500052E-20, ]
- [  6.51815189E-20,   3.49908445E-04,  -7.10533725E-20, ]
- [  6.43276980E-20,   7.40374514E-04,  -7.01995516E-20, ]
- [  1.80135102E-14,   4.40621765E-04,   9.07052982E-04, ]
- [ -1.80132130E-14,   4.40621765E-04,  -9.07052982E-04, ]
- [ -9.04634332E-19,   4.70385486E-02,   8.98762478E-19, ]
- [ -9.07052982E-04,   4.40621765E-04,  -1.80134873E-14, ]
- [  9.07052982E-04,   4.40621765E-04,   1.80133688E-14, ]
- [  3.60366868E-19,  -5.02412270E-02,  -3.66238722E-19, ]
force_length_stats: {min:   3.49908445E-04, max:   5.02412270E-02, mean:   1.14170679E-02, }
...

 Integrated electronic density in atomic spheres:
 ------------------------------------------------
 Atom  Sphere_radius  Integrated_density
    1        2.20660          5.36937590
    2        2.20660          5.36937590
    3        2.30022          4.02020764
    4        2.20000          4.93953795
    5        2.20000          4.93953795
    6        2.20000          4.99070018
    7        2.20000          4.93953795
    8        2.20000          4.93953795
    9        2.41000          9.36173690

 PAW TEST:
 ==== Compensation charge inside spheres ============
 The following values must be close to each other ...
 Compensation charge over spherical meshes =     -0.321278748020619
 Compensation charge over fine fft grid    =     -0.321284625443512

 ==== Results concerning PAW augmentation regions ====

 Total pseudopotential strength Dij (hartree):
 Atom #  1
   0.43232  -0.14320   0.00000   0.00000   0.00000  -0.00001   0.00000   0.00000   0.00000   0.00000  -0.00000   0.00001 ...
  -0.14320   0.04310  -0.00000   0.00000   0.00000   0.00000   0.00000   0.00000   0.00000   0.00000   0.00000  -0.00000 ...
   0.00000  -0.00000  -0.09261   0.00000   0.00000  -0.16714   0.00000   0.00000   0.00000   0.00000  -0.00000  -0.00000 ...
   0.00000   0.00000   0.00000  -0.09261   0.00000   0.00000  -0.16714  -0.00001  -0.00000   0.00000   0.00000   0.00000 ...
   0.00000   0.00000   0.00000   0.00000  -0.09261   0.00000  -0.00001  -0.16714   0.00000  -0.00000   0.00000   0.00000 ...
  -0.00001   0.00000  -0.16714   0.00000   0.00000   0.40160   0.00000   0.00000   0.00000   0.00000   0.00000   0.00000 ...
   0.00000   0.00000   0.00000  -0.16714  -0.00001   0.00000   0.40160   0.00003   0.00000  -0.00000   0.00000   0.00000 ...
   0.00000   0.00000   0.00000  -0.00001  -0.16714   0.00000   0.00003   0.40160  -0.00000   0.00000   0.00000   0.00000 ...
   0.00000   0.00000   0.00000  -0.00000   0.00000   0.00000   0.00000  -0.00000   0.00536   0.00000   0.00000   0.00000 ...
   0.00000   0.00000   0.00000   0.00000  -0.00000   0.00000  -0.00000   0.00000   0.00000   0.00536   0.00000   0.00000 ...
  -0.00000   0.00000  -0.00000   0.00000   0.00000   0.00000   0.00000   0.00000   0.00000   0.00000   0.00536   0.00000 ...
   0.00001  -0.00000  -0.00000   0.00000   0.00000   0.00000   0.00000   0.00000   0.00000   0.00000   0.00000   0.00536 ...
   ...  only 12  components have been written...
 Atom #  9
  -3.50521   0.42351  -0.00094   0.00000   0.00000   0.00029   0.00000   0.00000   0.00000   0.00000  -0.00008   0.00000 ...
   0.42351   0.00382   0.00022   0.00000   0.00000  -0.00001   0.00000   0.00000   0.00000   0.00000  -0.00000   0.00000 ...
[...]
                       8.3669867218E+00  5.4817016402E+00  5.4903560565E+00
                       2.6137253914E+00  5.4817016402E+00  5.4903560566E+00
                       1.1364777183E-12  5.6184341390E-02  1.1364873058E-12
           xangst10    2.7423197356E+00  2.7600901124E+00  2.7423197356E+00
                       8.2269592069E+00  8.2273983138E+00  8.2269592069E+00
                       5.4846394713E+00  8.1238146485E+00  5.4846394713E+00
                       5.4846394713E+00  5.4763772489E+00  2.6134059664E+00
                       5.4846394712E+00  5.4763772489E+00  8.3558729762E+00
                       5.4846394712E+00  2.6655120369E+00  5.4846394712E+00
                       8.3558729762E+00  5.4763772489E+00  5.4846394712E+00
                       2.6134059664E+00  5.4763772489E+00  5.4846394713E+00
                       1.1360113517E-12  5.6141503731E-02  1.1354119488E-12
            xcart1     5.2294233681E+00  5.2644225406E+00  5.2294233681E+00
                       1.5688270104E+01  1.5689747863E+01  1.5688270104E+01
                       1.0458846736E+01  1.5522615326E+01  1.0458846736E+01
                       1.0458846736E+01  1.0445002687E+01  4.9444060235E+00
                       1.0458846736E+01  1.0445002687E+01  1.5973287449E+01
                       1.0458846736E+01  5.0406485750E+00  1.0458846736E+01
                       1.5973287449E+01  1.0445002687E+01  1.0458846736E+01
                       4.9444060235E+00  1.0445002687E+01  1.0458846736E+01
                       2.1264315579E-12  1.0515752900E-01  2.1272933603E-12
            xcart2     5.2244103132E+00  5.2583419222E+00  5.2244103132E+00
                       1.5673230940E+01  1.5672347969E+01  1.5673230940E+01
                       1.0448820626E+01  1.5501738382E+01  1.0448820626E+01
                       1.0448820626E+01  1.0433493764E+01  4.9436592160E+00
                       1.0448820626E+01  1.0433493764E+01  1.5953982037E+01
                       1.0448820626E+01  5.0403444442E+00  1.0448820626E+01
                       1.5953982037E+01  1.0433493764E+01  1.0448820626E+01
                       4.9436592160E+00  1.0433493764E+01  1.0448820626E+01
                       2.1338321382E-12  1.0530059806E-01  2.1326720861E-12
            xcart3     5.2190546195E+00  5.2532480933E+00  5.2190546195E+00
                       1.5657163858E+01  1.5657300925E+01  1.5657163858E+01
                       1.0438109239E+01  1.5483579633E+01  1.0438109239E+01
                       1.0438109239E+01  1.0423203198E+01  4.9430795254E+00
                       1.0438109239E+01  1.0423203198E+01  1.5933138953E+01
                       1.0438109239E+01  5.0400351938E+00  1.0438109239E+01
                       1.5933138953E+01  1.0423203198E+01  1.0438109239E+01
                       4.9430795254E+00  1.0423203198E+01  1.0438109239E+01
                       2.1345861803E-12  1.0544601723E-01  2.1360257572E-12
            xcart4     5.2138835527E+00  5.2473117289E+00  5.2138835527E+00
                       1.5641650658E+01  1.5640675269E+01  1.5641650658E+01
                       1.0427767105E+01  1.5464120097E+01  1.0427767105E+01
                       1.0427767106E+01  1.0412314869E+01  4.9424389916E+00
                       1.0427767105E+01  1.0412314869E+01  1.5913095219E+01
                       1.0427767105E+01  5.0398656503E+00  1.0427767105E+01
                       1.5913095219E+01  1.0412314869E+01  1.0427767105E+01
                       4.9424389916E+00  1.0412314869E+01  1.0427767106E+01
                       2.1399193779E-12  1.0567610284E-01  2.1399193779E-12
            xcart5     5.2085232534E+00  5.2429744228E+00  5.2085232534E+00
                       1.5625569760E+01  1.5626403127E+01  1.5625569760E+01
                       1.0417046507E+01  1.5445707994E+01  1.0417046507E+01
                       1.0417046507E+01  1.0401974649E+01  4.9418801193E+00
                       1.0417046507E+01  1.0401974649E+01  1.5892212894E+01
                       1.0417046507E+01  5.0390167395E+00  1.0417046507E+01
                       1.5892212894E+01  1.0401974649E+01  1.0417046507E+01
                       4.9418801193E+00  1.0401974649E+01  1.0417046507E+01
                       2.1344934060E-12  1.0542875496E-01  2.1344663172E-12
            xcart6     5.2036528160E+00  5.2353976375E+00  5.2036528160E+00
                       1.5610958448E+01  1.5606938552E+01  1.5610958448E+01
                       1.0407305632E+01  1.5424298970E+01  1.0407305632E+01
                       1.0407305632E+01  1.0390147917E+01  4.9412451439E+00
                       1.0407305632E+01  1.0390147917E+01  1.5873366120E+01
                       1.0407305632E+01  5.0390726136E+00  1.0407305632E+01
                       1.5873366120E+01  1.0390147917E+01  1.0407305632E+01
                       4.9412451439E+00  1.0390147917E+01  1.0407305632E+01
                       2.1498193710E-12  1.0602787815E-01  2.1480771795E-12
            xcart7     5.1984796527E+00  5.2301085054E+00  5.1984796527E+00
                       1.5595438958E+01  1.5590968530E+01  1.5595438958E+01
                       1.0396959305E+01  1.5404765362E+01  1.0396959305E+01
                       1.0396959305E+01  1.0379032902E+01  4.9405969713E+00
                       1.0396959305E+01  1.0379032902E+01  1.5853321639E+01
                       1.0396959305E+01  5.0387410278E+00  1.0396959305E+01
                       1.5853321639E+01  1.0379032902E+01  1.0396959305E+01
                       4.9405969713E+00  1.0379032902E+01  1.0396959305E+01
                       2.1517356892E-12  1.0616516558E-01  2.1517538911E-12
            xcart8     5.1927408137E+00  5.2269270021E+00  5.1927408137E+00
                       1.5578222441E+01  1.5579361280E+01  1.5578222441E+01
                       1.0385481627E+01  1.5389308051E+01  1.0385481627E+01
                       1.0385481627E+01  1.0369985766E+01  4.9399273663E+00
                       1.0385481627E+01  1.0369985766E+01  1.5831035888E+01
                       1.0385481627E+01  5.0380015830E+00  1.0385481627E+01
                       1.5831035888E+01  1.0369985766E+01  1.0385481627E+01
                       4.9399273663E+00  1.0369985766E+01  1.0385481627E+01
                       2.1452845690E-12  1.0593324236E-01  2.1452936575E-12
            xcart9     5.1876346595E+00  5.2206219994E+00  5.1876346595E+00
                       1.5562903978E+01  1.5562108156E+01  1.5562903978E+01
                       1.0375269319E+01  1.5369496716E+01  1.0375269319E+01
                       1.0375269319E+01  1.0358914842E+01  4.9392251763E+00
                       1.0375269319E+01  1.0358914842E+01  1.5811313462E+01
                       1.0375269319E+01  5.0378299912E+00  1.0375269319E+01
                       1.5811313462E+01  1.0358914842E+01  1.0375269319E+01
                       4.9392251763E+00  1.0358914842E+01  1.0375269319E+01
                       2.1476316437E-12  1.0617301818E-01  2.1476497615E-12
            xcart10    5.1822332692E+00  5.2158144146E+00  5.1822332692E+00
                       1.5546699808E+01  1.5547529599E+01  1.5546699808E+01
                       1.0364466538E+01  1.5351784840E+01  1.0364466538E+01
                       1.0364466538E+01  1.0348853201E+01  4.9386215505E+00
                       1.0364466538E+01  1.0348853201E+01  1.5790311526E+01
                       1.0364466538E+01  5.0370877537E+00  1.0364466538E+01
                       1.5790311526E+01  1.0348853201E+01  1.0364466538E+01
                       4.9386215505E+00  1.0348853201E+01  1.0364466538E+01
                       2.1467503386E-12  1.0609206674E-01  2.1456176312E-12
             xred1     2.5248241074E-01  2.4751758926E-01  2.5248241074E-01
                       7.5248241074E-01  7.4751758926E-01  7.5248241074E-01
                       7.4446671184E-01  2.5553328816E-01  7.4446671184E-01
                       2.3731807068E-01  2.3543061262E-01  7.6456938738E-01
                       7.6456938738E-01  7.6268192932E-01  2.3731807068E-01
                       2.4175018136E-01  7.5824981864E-01  2.4175018136E-01
                       2.3731807068E-01  7.6268192932E-01  7.6456938738E-01
                       7.6456938738E-01  2.3543061262E-01  2.3731807068E-01
                       5.0433691873E-03 -5.0433691873E-03  5.0433691873E-03
             xred2     2.5246489673E-01  2.4753510327E-01  2.5246489673E-01
                       7.5246489673E-01  7.4753510327E-01  7.5246489673E-01
                       7.4427354433E-01  2.5572645567E-01  7.4427354433E-01
                       2.3750106638E-01  2.3562976750E-01  7.6437023250E-01
                       7.6437023250E-01  7.6249893362E-01  2.3750106638E-01
                       2.4199834442E-01  7.5800165558E-01  2.4199834442E-01
                       2.3750106638E-01  7.6249893362E-01  7.6437023250E-01
                       7.6437023250E-01  2.3562976750E-01  2.3750106638E-01
                       5.0557200365E-03 -5.0557200365E-03  5.0557200365E-03
             xred3     2.5246162136E-01  2.4753837864E-01  2.5246162136E-01
                       7.5246162136E-01  7.4753837864E-01  7.5246162136E-01
                       7.4411288960E-01  2.5588711040E-01  7.4411288960E-01
                       2.3770073988E-01  2.3586007580E-01  7.6413992420E-01
                       7.6413992420E-01  7.6229926012E-01  2.3770073988E-01
                       2.4221499426E-01  7.5778500574E-01  2.4221499426E-01
                       2.3770073988E-01  7.6229926012E-01  7.6413992420E-01
                       7.6413992420E-01  2.3586007580E-01  2.3770073988E-01
                       5.0675452602E-03 -5.0675452602E-03  5.0675452602E-03
             xred4     2.5243568689E-01  2.4756431311E-01  2.5243568689E-01
                       7.5243568689E-01  7.4756431311E-01  7.5243568689E-01
                       7.4394203749E-01  2.5605796251E-01  7.4394203749E-01
                       2.3789623423E-01  2.3607282757E-01  7.6392717243E-01
                       7.6392717243E-01  7.6210376577E-01  2.3789623423E-01
                       2.4245594945E-01  7.5754405055E-01  2.4245594945E-01
                       2.3789623423E-01  7.6210376577E-01  7.6392717243E-01
                       7.6392717243E-01  2.3607282757E-01  2.3789623423E-01
                       5.0838259642E-03 -5.0838259642E-03  5.0838259642E-03
             xred5     2.5246835955E-01  2.4753164045E-01  2.5246835955E-01
                       7.5246835955E-01  7.4753164045E-01  7.5246835955E-01
                       7.4376722922E-01  2.5623277078E-01  7.4376722922E-01
                       2.3809465119E-01  2.3630854131E-01  7.6369145869E-01
                       7.6369145869E-01  7.6190534881E-01  2.3809465119E-01
                       2.4264705248E-01  7.5735294752E-01  2.4264705248E-01
                       2.3809465119E-01  7.6190534881E-01  7.6369145869E-01
                       7.6369145869E-01  2.3630854131E-01  2.3809465119E-01
                       5.0767794515E-03 -5.0767794515E-03  5.0767794515E-03
             xred6     2.5239246899E-01  2.4760753101E-01  2.5239246899E-01
                       7.5239246899E-01  7.4760753101E-01  7.5239246899E-01
                       7.4358762582E-01  2.5641237418E-01  7.4358762582E-01
                       2.3829012449E-01  2.3649608037E-01  7.6350391963E-01
                       7.6350391963E-01  7.6170987551E-01  2.3829012449E-01
                       2.4292786650E-01  7.5707213350E-01  2.4292786650E-01
                       2.3829012449E-01  7.6170987551E-01  7.6350391963E-01
                       7.6350391963E-01  2.3649608037E-01  2.3829012449E-01
                       5.1114814579E-03 -5.1114814579E-03  5.1114814579E-03
             xred7     2.5239741164E-01  2.4760258836E-01  2.5239741164E-01
                       7.5239741164E-01  7.4760258836E-01  7.5239741164E-01
                       7.4341151820E-01  2.5658848180E-01  7.4341151820E-01
                       2.3847516474E-01  2.3672117163E-01  7.6327882837E-01
                       7.6327882837E-01  7.6152483526E-01  2.3847516474E-01
                       2.4316229616E-01  7.5683770384E-01  2.4316229616E-01
                       2.3847516474E-01  7.6152483526E-01  7.6327882837E-01
                       7.6327882837E-01  2.3672117163E-01  2.3847516474E-01
                       5.1233761158E-03 -5.1233761158E-03  5.1233761158E-03
             xred8     2.5244917581E-01  2.4755082419E-01  2.5244917581E-01
                       7.5244917581E-01  7.4755082419E-01  7.5244917581E-01
                       7.4327001930E-01  2.5672998070E-01  7.4327001930E-01
                       2.3867621459E-01  2.3698081737E-01  7.6301918263E-01
                       7.6301918263E-01  7.6132378541E-01  2.3867621459E-01
                       2.4332449005E-01  7.5667550995E-01  2.4332449005E-01
                       2.3867621459E-01  7.6132378541E-01  7.6301918263E-01
                       7.6301918263E-01  2.3698081737E-01  2.3867621459E-01
                       5.1163445966E-03 -5.1163445966E-03  5.1163445966E-03
             xred9     2.5241159349E-01  2.4758840651E-01  2.5241159349E-01
                       7.5241159349E-01  7.4758840651E-01  7.5241159349E-01
                       7.4309903259E-01  2.5690096741E-01  7.4309903259E-01
                       2.3887142807E-01  2.3718611073E-01  7.6281388927E-01
                       7.6281388927E-01  7.6112857193E-01  2.3887142807E-01
                       2.4357379177E-01  7.5642620823E-01  2.4357379177E-01
                       2.3887142807E-01  7.6112857193E-01  7.6281388927E-01
                       7.6281388927E-01  2.3718611073E-01  2.3887142807E-01
                       5.1333539774E-03 -5.1333539774E-03  5.1333539774E-03
             xred10    2.5241764418E-01  2.4758235582E-01  2.5241764418E-01
                       7.5241764418E-01  7.4758235582E-01  7.5241764418E-01
                       7.4294464015E-01  2.5705535985E-01  7.4294464015E-01
                       2.3907713318E-01  2.3741835574E-01  7.6258164426E-01
                       7.6258164426E-01  7.6092286682E-01  2.3907713318E-01
                       2.4376822549E-01  7.5623177451E-01  2.4376822549E-01
                       2.3907713318E-01  7.6092286682E-01  7.6258164426E-01
                       7.6258164426E-01  2.3741835574E-01  2.3907713318E-01
                       5.1342911048E-03 -5.1342911048E-03  5.1342911048E-03
            znucl       55.00000   53.00000   72.00000   35.00000

================================================================================


- Timing analysis has been suppressed with timopt=0



================================================================================

 Suggested references for the acknowledgment of ABINIT usage.

 The users of ABINIT have little formal obligations with respect to the ABINIT group
 (those specified in the GNU General Public License, http://www.gnu.org/copyleft/gpl.txt).
 However, it is common practice in the scientific literature,
 to acknowledge the efforts of people that have made the research possible.
 In this spirit, please find below suggested citations of work written by ABINIT developers,
 corresponding to implementations inside of ABINIT that you have used in the present run.
 Note also that it will be of great value to readers of publications presenting these results,
 to read papers enabling them to understand the theoretical formalism and details
 of the ABINIT implementation.
 For information on why they are suggested, see also https://docs.abinit.org/theory/acknowledgments.
-
- [1] Implementation of the Projector Augmented-Wave Method in the ABINIT code.
- M. Torrent, F. Jollet, F. Bottin, G. Zerah, and X. Gonze Comput. Mat. Science 42, 337, (2008).
- Comment: PAW calculations. Strong suggestion to cite this paper.
- DOI and bibtex: see https://docs.abinit.org/theory/bibliography/#torrent2008
-
- [2] Libxc: A library of exchange and correlation functionals for density functional theory.
- M.A.L. Marques, M.J.T. Oliveira, T. Burnus, Computer Physics Communications 183, 2227 (2012).
- Comment: to be cited when LibXC is used (negative value of ixc)
- Strong suggestion to cite this paper.
- DOI and bibtex: see https://docs.abinit.org/theory/bibliography/#marques2012
-
- [3] The Abinit project: Impact, environment and recent developments.
- Computer Phys. Comm. 248, 107042 (2020).
- X.Gonze, B. Amadon, G. Antonius, F.Arnardi, L.Baguet, J.-M.Beuken,
- J.Bieder, F.Bottin, J.Bouchet, E.Bousquet, N.Brouwer, F.Bruneval,
- G.Brunin, T.Cavignac, J.-B. Charraud, Wei Chen, M.Cote, S.Cottenier,
- J.Denier, G.Geneste, Ph.Ghosez, M.Giantomassi, Y.Gillet, O.Gingras,
- D.R.Hamann, G.Hautier, Xu He, N.Helbig, N.Holzwarth, Y.Jia, F.Jollet,
- W.Lafargue-Dit-Hauret, K.Lejaeghere, M.A.L.Marques, A.Martin, C.Martins,
- H.P.C. Miranda, F.Naccarato, K. Persson, G.Petretto, V.Planes, Y.Pouillon,
- S.Prokhorenko, F.Ricci, G.-M.Rignanese, A.H.Romero, M.M.Schmitt, M.Torrent,
- M.J.van Setten, B.Van Troeye, M.J.Verstraete, G.Zerah and J.W.Zwanzig
- Comment: the fifth generic paper describing the ABINIT project.
- Note that a version of this paper, that is not formatted for Computer Phys. Comm. 
- is available at https://www.abinit.org/sites/default/files/ABINIT20.pdf .
- The licence allows the authors to put it on the Web.
- DOI and bibtex: see https://docs.abinit.org/theory/bibliography/#gonze2020
-
- [4] ABINIT: Overview, and focus on selected capabilities
- J. Chem. Phys. 152, 124102 (2020).
- A. Romero, D.C. Allan, B. Amadon, G. Antonius, T. Applencourt, L.Baguet,
- J.Bieder, F.Bottin, J.Bouchet, E.Bousquet, F.Bruneval,
- G.Brunin, D.Caliste, M.Cote,
- J.Denier, C. Dreyer, Ph.Ghosez, M.Giantomassi, Y.Gillet, O.Gingras,
- D.R.Hamann, G.Hautier, F.Jollet, G. Jomard,
- A.Martin, 
- H.P.C. Miranda, F.Naccarato, G.Petretto, N.A. Pike, V.Planes,
- S.Prokhorenko, T. Rangel, F.Ricci, G.-M.Rignanese, M.Royo, M.Stengel, M.Torrent,
- M.J.van Setten, B.Van Troeye, M.J.Verstraete, J.Wiktor, J.W.Zwanziger, and X.Gonze.
- Comment: a global overview of ABINIT, with focus on selected capabilities .
- Note that a version of this paper, that is not formatted for J. Chem. Phys 
- is available at https://www.abinit.org/sites/default/files/ABINIT20_JPC.pdf .
- The licence allows the authors to put it on the Web.
- DOI and bibtex: see https://docs.abinit.org/theory/bibliography/#romero2020
-
- [5] Recent developments in the ABINIT software package.
- Computer Phys. Comm. 205, 106 (2016).
- X.Gonze, F.Jollet, F.Abreu Araujo, D.Adams, B.Amadon, T.Applencourt,
- C.Audouze, J.-M.Beuken, J.Bieder, A.Bokhanchuk, E.Bousquet, F.Bruneval
- D.Caliste, M.Cote, F.Dahm, F.Da Pieve, M.Delaveau, M.Di Gennaro,
- B.Dorado, C.Espejo, G.Geneste, L.Genovese, A.Gerossier, M.Giantomassi,
- Y.Gillet, D.R.Hamann, L.He, G.Jomard, J.Laflamme Janssen, S.Le Roux,
- A.Levitt, A.Lherbier, F.Liu, I.Lukacevic, A.Martin, C.Martins,
- M.J.T.Oliveira, S.Ponce, Y.Pouillon, T.Rangel, G.-M.Rignanese,
- A.H.Romero, B.Rousseau, O.Rubel, A.A.Shukri, M.Stankovski, M.Torrent,
- M.J.Van Setten, B.Van Troeye, M.J.Verstraete, D.Waroquier, J.Wiktor,
- B.Xu, A.Zhou, J.W.Zwanziger.
- Comment: the fourth generic paper describing the ABINIT project.
- Note that a version of this paper, that is not formatted for Computer Phys. Comm. 
- is available at https://www.abinit.org/sites/default/files/ABINIT16.pdf .
- The licence allows the authors to put it on the Web.
- DOI and bibtex: see https://docs.abinit.org/theory/bibliography/#gonze2016
-
- Proc.   0 individual time (sec): cpu=      52558.4  wall=      52559.9

================================================================================

 Calculation completed.
.Delivered   0 WARNINGs and 248 COMMENTs to log file.
+Overall time at end (sec) : cpu=     315351.2  wall=     315359.3
