
.Version 9.2.2 of ABINIT 
.(MPI version, prepared for a x86_64_linux_gnu9.3 computer) 

.Copyright (C) 1998-2020 ABINIT group . 
 ABINIT comes with ABSOLUTELY NO WARRANTY.
 It is free software, and you are welcome to redistribute it
 under certain conditions (GNU General Public License,
 see ~abinit/COPYING or http://www.gnu.org/copyleft/gpl.txt).

 ABINIT is a project of the Universite Catholique de Louvain,
 Corning Inc. and other collaborators, see ~abinit/doc/developers/contributors.txt .
 Please read https://docs.abinit.org/theory/acknowledgments for suggested
 acknowledgments of the ABINIT effort.
 For more information, see https://www.abinit.org .

.Starting date : Wed  9 Nov 2022.
- ( at 20h26 )
  
- input  file    -> Cs2TiI6.in
- output file    -> Cs2TiI6.out
- root for input  files -> Cs2TiI6i
- root for output files -> Cs2TiI6o

- inpspheads : Reading pseudopotential header in XML form from 
-   ../../../Psps_for_tests/ATOMICDATA/Cs.GGA_PBE-JTH.xml
- inpspheads : Reading pseudopotential header in XML form from 
-   ../../../Psps_for_tests/ATOMICDATA/I.GGA_PBE-JTH.xml
- inpspheads : Reading pseudopotential header in XML form from 
-   ../../../Psps_for_tests/ATOMICDATA/Hf.GGA_PBE-JTH.xml
- inpspheads : Reading pseudopotential header in XML form from 
-   ../../../Psps_for_tests/ATOMICDATA/Br.GGA_PBE-JTH.xml

 DATASET    1 : space group I4/m m m (#139); Bravais tI (body-center tetrag.)
================================================================================
 Values of the parameters that define the memory need for DATASET  1.
     intxc =       0    ionmov =       0      iscf =      17    lmnmax =      18
     lnmax =       6     mgfft =      60  mpssoang =       3    mqgrid =    3440
     natom =       9  nloc_mem =       2    nspden =       1   nspinor =       1
    nsppol =       1      nsym =      16    n1xccc =       1    ntypat =       4
    occopt =       1   xclevel =       2
-    mband =          42        mffmem =           1         mkmem =          28
       mpw =        7051          nfft =      216000          nkpt =         163
Pmy_natom=         2
 PAW method is used; the additional fine FFT grid is defined by:
   mgfftf=        90    nfftf =    729000
================================================================================
P This job should need less than                     353.495 Mbytes of memory.
  Rough estimation (10% accuracy) of disk space for files :
_ WF disk file :    736.561 Mbytes ; DEN or POT disk file :      5.564 Mbytes.
================================================================================


 DATASET    2 : space group I4/m m m (#139); Bravais tI (body-center tetrag.)
================================================================================
 Values of the parameters that define the memory need for DATASET  2.
     intxc =       0    ionmov =       0      iscf =      17    lmnmax =      18
     lnmax =       6     mgfft =      60  mpssoang =       3    mqgrid =    3437
     natom =       9  nloc_mem =       2    nspden =       1   nspinor =       1
    nsppol =       1      nsym =      16    n1xccc =       1    ntypat =       4
    occopt =       1   xclevel =       2
-    mband =          42        mffmem =           1         mkmem =          28
       mpw =        7020          nfft =      216000          nkpt =         163
Pmy_natom=         2
 PAW method is used; the additional fine FFT grid is defined by:
   mgfftf=        90    nfftf =    729000
================================================================================
P This job should need less than                     352.881 Mbytes of memory.
  Rough estimation (10% accuracy) of disk space for files :
_ WF disk file :    733.323 Mbytes ; DEN or POT disk file :      5.564 Mbytes.
================================================================================


 DATASET    3 : space group I4/m m m (#139); Bravais tI (body-center tetrag.)
================================================================================
 Values of the parameters that define the memory need for DATASET  3.
     intxc =       0    ionmov =       0      iscf =      17    lmnmax =      18
     lnmax =       6     mgfft =      60  mpssoang =       3    mqgrid =    3433
     natom =       9  nloc_mem =       2    nspden =       1   nspinor =       1
    nsppol =       1      nsym =      16    n1xccc =       1    ntypat =       4
    occopt =       1   xclevel =       2
-    mband =          42        mffmem =           1         mkmem =          28
       mpw =        7004          nfft =      216000          nkpt =         163
Pmy_natom=         2
 PAW method is used; the additional fine FFT grid is defined by:
   mgfftf=        90    nfftf =    729000
================================================================================
P This job should need less than                     352.571 Mbytes of memory.
  Rough estimation (10% accuracy) of disk space for files :
_ WF disk file :    731.652 Mbytes ; DEN or POT disk file :      5.564 Mbytes.
================================================================================


 DATASET    4 : space group I4/m m m (#139); Bravais tI (body-center tetrag.)
================================================================================
 Values of the parameters that define the memory need for DATASET  4.
     intxc =       0    ionmov =       0      iscf =      17    lmnmax =      18
     lnmax =       6     mgfft =      54  mpssoang =       3    mqgrid =    3430
     natom =       9  nloc_mem =       2    nspden =       1   nspinor =       1
    nsppol =       1      nsym =      16    n1xccc =       1    ntypat =       4
    occopt =       1   xclevel =       2
-    mband =          42        mffmem =           1         mkmem =          28
       mpw =        6982          nfft =      157464          nkpt =         163
Pmy_natom=         2
 PAW method is used; the additional fine FFT grid is defined by:
   mgfftf=        90    nfftf =    729000
================================================================================
P This job should need less than                     343.425 Mbytes of memory.
  Rough estimation (10% accuracy) of disk space for files :
_ WF disk file :    729.353 Mbytes ; DEN or POT disk file :      5.564 Mbytes.
================================================================================


 DATASET    5 : space group I4/m m m (#139); Bravais tI (body-center tetrag.)
================================================================================
 Values of the parameters that define the memory need for DATASET  5.
     intxc =       0    ionmov =       0      iscf =      17    lmnmax =      18
     lnmax =       6     mgfft =      54  mpssoang =       3    mqgrid =    3426
     natom =       9  nloc_mem =       2    nspden =       1   nspinor =       1
    nsppol =       1      nsym =      16    n1xccc =       1    ntypat =       4
    occopt =       1   xclevel =       2
-    mband =          42        mffmem =           1         mkmem =          28
       mpw =        6960          nfft =      157464          nkpt =         163
Pmy_natom=         2
 PAW method is used; the additional fine FFT grid is defined by:
   mgfftf=        90    nfftf =    729000
================================================================================
P This job should need less than                     342.993 Mbytes of memory.
  Rough estimation (10% accuracy) of disk space for files :
_ WF disk file :    727.055 Mbytes ; DEN or POT disk file :      5.564 Mbytes.
================================================================================


 DATASET    6 : space group I4/m m m (#139); Bravais tI (body-center tetrag.)
================================================================================
 Values of the parameters that define the memory need for DATASET  6.
     intxc =       0    ionmov =       0      iscf =      17    lmnmax =      18
     lnmax =       6     mgfft =      54  mpssoang =       3    mqgrid =    3423
     natom =       9  nloc_mem =       2    nspden =       1   nspinor =       1
    nsppol =       1      nsym =      16    n1xccc =       1    ntypat =       4
    occopt =       1   xclevel =       2
-    mband =          42        mffmem =           1         mkmem =          28
       mpw =        6939          nfft =      157464          nkpt =         163
Pmy_natom=         2
 PAW method is used; the additional fine FFT grid is defined by:
   mgfftf=        90    nfftf =    729000
================================================================================
P This job should need less than                     342.581 Mbytes of memory.
  Rough estimation (10% accuracy) of disk space for files :
_ WF disk file :    724.862 Mbytes ; DEN or POT disk file :      5.564 Mbytes.
================================================================================


 DATASET    7 : space group I4/m m m (#139); Bravais tI (body-center tetrag.)
================================================================================
 Values of the parameters that define the memory need for DATASET  7.
     intxc =       0    ionmov =       0      iscf =      17    lmnmax =      18
     lnmax =       6     mgfft =      54  mpssoang =       3    mqgrid =    3419
     natom =       9  nloc_mem =       2    nspden =       1   nspinor =       1
    nsppol =       1      nsym =      16    n1xccc =       1    ntypat =       4
    occopt =       1   xclevel =       2
-    mband =          42        mffmem =           1         mkmem =          28
       mpw =        6917          nfft =      157464          nkpt =         163
Pmy_natom=         2
 PAW method is used; the additional fine FFT grid is defined by:
   mgfftf=        90    nfftf =    729000
================================================================================
P This job should need less than                     342.149 Mbytes of memory.
  Rough estimation (10% accuracy) of disk space for files :
_ WF disk file :    722.563 Mbytes ; DEN or POT disk file :      5.564 Mbytes.
================================================================================


 DATASET    8 : space group I4/m m m (#139); Bravais tI (body-center tetrag.)
================================================================================
 Values of the parameters that define the memory need for DATASET  8.
     intxc =       0    ionmov =       0      iscf =      17    lmnmax =      18
     lnmax =       6     mgfft =      54  mpssoang =       3    mqgrid =    3416
     natom =       9  nloc_mem =       2    nspden =       1   nspinor =       1
    nsppol =       1      nsym =      16    n1xccc =       1    ntypat =       4
    occopt =       1   xclevel =       2
-    mband =          42        mffmem =           1         mkmem =          28
       mpw =        6906          nfft =      157464          nkpt =         163
Pmy_natom=         2
 PAW method is used; the additional fine FFT grid is defined by:
   mgfftf=        90    nfftf =    729000
================================================================================
P This job should need less than                     341.939 Mbytes of memory.
  Rough estimation (10% accuracy) of disk space for files :
_ WF disk file :    721.414 Mbytes ; DEN or POT disk file :      5.564 Mbytes.
================================================================================


 DATASET    9 : space group I4/m m m (#139); Bravais tI (body-center tetrag.)
================================================================================
 Values of the parameters that define the memory need for DATASET  9.
     intxc =       0    ionmov =       0      iscf =      17    lmnmax =      18
     lnmax =       6     mgfft =      54  mpssoang =       3    mqgrid =    3413
     natom =       9  nloc_mem =       2    nspden =       1   nspinor =       1
    nsppol =       1      nsym =      16    n1xccc =       1    ntypat =       4
    occopt =       1   xclevel =       2
-    mband =          42        mffmem =           1         mkmem =          28
       mpw =        6882          nfft =      157464          nkpt =         163
Pmy_natom=         2
 PAW method is used; the additional fine FFT grid is defined by:
   mgfftf=        90    nfftf =    729000
================================================================================
P This job should need less than                     341.467 Mbytes of memory.
  Rough estimation (10% accuracy) of disk space for files :
_ WF disk file :    718.907 Mbytes ; DEN or POT disk file :      5.564 Mbytes.
================================================================================


 DATASET   10 : space group I4/m m m (#139); Bravais tI (body-center tetrag.)
================================================================================
 Values of the parameters that define the memory need for DATASET 10.
     intxc =       0    ionmov =       0      iscf =      17    lmnmax =      18
     lnmax =       6     mgfft =      54  mpssoang =       3    mqgrid =    3409
     natom =       9  nloc_mem =       2    nspden =       1   nspinor =       1
    nsppol =       1      nsym =      16    n1xccc =       1    ntypat =       4
    occopt =       1   xclevel =       2
-    mband =          42        mffmem =           1         mkmem =          28
       mpw =        6866          nfft =      157464          nkpt =         163
Pmy_natom=         2
 PAW method is used; the additional fine FFT grid is defined by:
   mgfftf=        90    nfftf =    729000
================================================================================
P This job should need less than                     341.156 Mbytes of memory.
  Rough estimation (10% accuracy) of disk space for files :
_ WF disk file :    717.236 Mbytes ; DEN or POT disk file :      5.564 Mbytes.
================================================================================

--------------------------------------------------------------------------------
------------- Echo of variables that govern the present computation ------------
--------------------------------------------------------------------------------
-
- outvars: echo of selected default values                                      
-   iomode0 =  0 , fftalg0 =112 , wfoptalg0 = 10
-
- outvars: echo of global parameters not present in the input file              
-  max_nthreads =    0
-
 -outvars: echo values of preprocessed input variables --------
            acell1     1.4700963320E+01  1.5027062253E+01  1.4700963320E+01 Bohr
            acell2     1.4685315777E+01  1.5014223354E+01  1.4685315777E+01 Bohr
            acell3     1.4669823934E+01  1.5001019263E+01  1.4669823934E+01 Bohr
            acell4     1.4654568614E+01  1.4987256650E+01  1.4654568614E+01 Bohr
            acell5     1.4638899916E+01  1.4974477336E+01  1.4638899916E+01 Bohr
            acell6     1.4623893151E+01  1.4960127201E+01  1.4623893151E+01 Bohr
            acell7     1.4608420214E+01  1.4946887016E+01  1.4608420214E+01 Bohr
            acell8     1.4593696681E+01  1.4931863654E+01  1.4593696681E+01 Bohr
            acell9     1.4578384713E+01  1.4918242320E+01  1.4578384713E+01 Bohr
            acell10    1.4563578593E+01  1.4903415900E+01  1.4563578593E+01 Bohr
              amu      1.32905430E+02  1.26904470E+02  1.78490000E+02
                       7.99040000E+01
           diemac      1.20000000E+01
             ecut      1.60000000E+01 Hartree
-          fftalg         112
           istwfk        2    0    0    0    0    0    3    0    0    0
                         0    0    0    0    0    0    0    0    0    0
                         0    0    0    0    0    0    0    0    0    0
                         0    0    0    0    0    0    0    0    0    0
                         0    0    7    0    0    0    0    0    0    0
                       outvar_i_n : Printing only first  50 k-points.
              ixc     -101130
           jdtset        1    2    3    4    5    6    7    8    9   10
              kpt      0.00000000E+00  0.00000000E+00  0.00000000E+00
                       8.33333333E-02  0.00000000E+00  0.00000000E+00
                       1.66666667E-01  0.00000000E+00  0.00000000E+00
                       2.50000000E-01  0.00000000E+00  0.00000000E+00
                       3.33333333E-01  0.00000000E+00  0.00000000E+00
                       4.16666667E-01  0.00000000E+00  0.00000000E+00
                       5.00000000E-01  0.00000000E+00  0.00000000E+00
                       8.33333333E-02  8.33333333E-02  0.00000000E+00
                       1.66666667E-01  8.33333333E-02  0.00000000E+00
                       2.50000000E-01  8.33333333E-02  0.00000000E+00
                       3.33333333E-01  8.33333333E-02  0.00000000E+00
                       4.16666667E-01  8.33333333E-02  0.00000000E+00
                       5.00000000E-01  8.33333333E-02  0.00000000E+00
                      -4.16666667E-01  8.33333333E-02  0.00000000E+00
                      -3.33333333E-01  8.33333333E-02  0.00000000E+00
                      -2.50000000E-01  8.33333333E-02  0.00000000E+00
                      -1.66666667E-01  8.33333333E-02  0.00000000E+00
                      -8.33333333E-02  8.33333333E-02  0.00000000E+00
                       1.66666667E-01  1.66666667E-01  0.00000000E+00
                       2.50000000E-01  1.66666667E-01  0.00000000E+00
                       3.33333333E-01  1.66666667E-01  0.00000000E+00
                       4.16666667E-01  1.66666667E-01  0.00000000E+00
                       5.00000000E-01  1.66666667E-01  0.00000000E+00
                      -4.16666667E-01  1.66666667E-01  0.00000000E+00
                      -3.33333333E-01  1.66666667E-01  0.00000000E+00
                      -2.50000000E-01  1.66666667E-01  0.00000000E+00
                      -1.66666667E-01  1.66666667E-01  0.00000000E+00
                       2.50000000E-01  2.50000000E-01  0.00000000E+00
                       3.33333333E-01  2.50000000E-01  0.00000000E+00
                       4.16666667E-01  2.50000000E-01  0.00000000E+00
                       5.00000000E-01  2.50000000E-01  0.00000000E+00
                      -4.16666667E-01  2.50000000E-01  0.00000000E+00
                      -3.33333333E-01  2.50000000E-01  0.00000000E+00
                      -2.50000000E-01  2.50000000E-01  0.00000000E+00
                       3.33333333E-01  3.33333333E-01  0.00000000E+00
                       4.16666667E-01  3.33333333E-01  0.00000000E+00
                       5.00000000E-01  3.33333333E-01  0.00000000E+00
                      -4.16666667E-01  3.33333333E-01  0.00000000E+00
                      -3.33333333E-01  3.33333333E-01  0.00000000E+00
                       4.16666667E-01  4.16666667E-01  0.00000000E+00
                       5.00000000E-01  4.16666667E-01  0.00000000E+00
                      -4.16666667E-01  4.16666667E-01  0.00000000E+00
                       5.00000000E-01  5.00000000E-01  0.00000000E+00
                       8.33333333E-02  0.00000000E+00  8.33333333E-02
                       1.66666667E-01  0.00000000E+00  8.33333333E-02
                       2.50000000E-01  0.00000000E+00  8.33333333E-02
                       3.33333333E-01  0.00000000E+00  8.33333333E-02
                       4.16666667E-01  0.00000000E+00  8.33333333E-02
                       5.00000000E-01  0.00000000E+00  8.33333333E-02
                      -4.16666667E-01  0.00000000E+00  8.33333333E-02
                       outvar_i_n : Printing only first  50 k-points.
         kptrlatt       12    0    0      0   12    0      0    0   12
          kptrlen1     1.76411560E+02
          kptrlen2     1.76223789E+02
          kptrlen3     1.76037887E+02
          kptrlen4     1.75854823E+02
          kptrlen5     1.75666799E+02
          kptrlen6     1.75486718E+02
          kptrlen7     1.75301043E+02
          kptrlen8     1.75124360E+02
          kptrlen9     1.74940617E+02
          kptrlen10    1.74762943E+02
P           mkmem          28
            natom           9
            nband          42
           ndtset          10
            ngfft1         60      60      60
            ngfft2         60      60      60
            ngfft3         60      60      60
            ngfft4         54      54      54
            ngfft5         54      54      54
            ngfft6         54      54      54
            ngfft7         54      54      54
            ngfft8         54      54      54
            ngfft9         54      54      54
            ngfft10        54      54      54
          ngfftdg          90      90      90
             nkpt         163
            nstep        2500
             nsym          16
           ntypat           4
              occ      2.000000  2.000000  2.000000  2.000000  2.000000  2.000000
                       2.000000  2.000000  2.000000  2.000000  2.000000  2.000000
                       2.000000  2.000000  2.000000  2.000000  2.000000  2.000000
                       2.000000  2.000000  2.000000  2.000000  2.000000  2.000000
                       2.000000  2.000000  2.000000  2.000000  2.000000  2.000000
                       2.000000  2.000000  2.000000  2.000000  2.000000  2.000000
                       0.000000  0.000000  0.000000  0.000000  0.000000  0.000000
        pawecutdg      4.00000000E+01 Hartree
            prtwf           0
            rprim1     0.0000000000E+00  6.9106571967E-01  7.2279192795E-01
                       7.0710678119E-01  0.0000000000E+00  7.0710678119E-01
                       7.2279192795E-01  6.9106571967E-01  0.0000000000E+00
            rprim2     0.0000000000E+00  6.9090675797E-01  7.2294387873E-01
                       7.0710678119E-01  0.0000000000E+00  7.0710678119E-01
                       7.2294387873E-01  6.9090675797E-01  0.0000000000E+00
            rprim3     0.0000000000E+00  6.9077384721E-01  7.2307087621E-01
                       7.0710678119E-01  0.0000000000E+00  7.0710678119E-01
                       7.2307087621E-01  6.9077384721E-01  0.0000000000E+00
            rprim4     0.0000000000E+00  6.9068104672E-01  7.2315952023E-01
                       7.0710678119E-01  0.0000000000E+00  7.0710678119E-01
                       7.2315952023E-01  6.9068104672E-01  0.0000000000E+00
            rprim5     0.0000000000E+00  6.9051688981E-01  7.2331626892E-01
                       7.0710678119E-01  0.0000000000E+00  7.0710678119E-01
                       7.2331626892E-01  6.9051688981E-01  0.0000000000E+00
            rprim6     0.0000000000E+00  6.9046620421E-01  7.2336465275E-01
                       7.0710678119E-01  0.0000000000E+00  7.0710678119E-01
                       7.2336465275E-01  6.9046620421E-01  0.0000000000E+00
            rprim7     0.0000000000E+00  6.9033491619E-01  7.2348994705E-01
                       7.0710678119E-01  0.0000000000E+00  7.0710678119E-01
                       7.2348994705E-01  6.9033491619E-01  0.0000000000E+00
            rprim8     0.0000000000E+00  6.9033281875E-01  7.2349194837E-01
                       7.0710678119E-01  0.0000000000E+00  7.0710678119E-01
                       7.2349194837E-01  6.9033281875E-01  0.0000000000E+00
            rprim9     0.0000000000E+00  6.9022882654E-01  7.2359116013E-01
                       7.0710678119E-01  0.0000000000E+00  7.0710678119E-01
                       7.2359116013E-01  6.9022882654E-01  0.0000000000E+00
            rprim10    0.0000000000E+00  6.9021229044E-01  7.2360693344E-01
                       7.0710678119E-01  0.0000000000E+00  7.0710678119E-01
                       7.2360693344E-01  6.9021229044E-01  0.0000000000E+00
          spgroup         139
           symrel      1  0  0   0  1  0   0  0  1      -1  0  0   0 -1  0   0  0 -1
                       0  0 -1   0 -1  0  -1  0  0       0  0  1   0  1  0   1  0  0
                       0 -1  1   0 -1  0   1 -1  0       0  1 -1   0  1  0  -1  1  0
                      -1  1  0   0  1  0   0  1 -1       1 -1  0   0 -1  0   0 -1  1
                       0 -1  1  -1  0  1   0  0  1       0  1 -1   1  0 -1   0  0 -1
                       0  0 -1   1  0 -1   0  1 -1       0  0  1  -1  0  1   0 -1  1
                       1  0  0   1  0 -1   1 -1  0      -1  0  0  -1  0  1  -1  1  0
                      -1  1  0  -1  0  1  -1  0  0       1 -1  0   1  0 -1   1  0  0
           toldfe      1.00000000E-08 Hartree
            typat      1  1  4  2  2  4  2  2  3
           useylm           1
              wtk        0.00058    0.00463    0.00463    0.00463    0.00463    0.00463
                         0.00231    0.00231    0.00926    0.00926    0.00926    0.00926
                         0.00926    0.00926    0.00926    0.00926    0.00926    0.00463
                         0.00231    0.00926    0.00926    0.00926    0.00926    0.00926
                         0.00926    0.00926    0.00463    0.00231    0.00926    0.00926
                         0.00926    0.00926    0.00926    0.00463    0.00231    0.00926
                         0.00926    0.00926    0.00463    0.00231    0.00926    0.00463
                         0.00116    0.00116    0.00463    0.00463    0.00463    0.00463
                         0.00463    0.00463
                       outvars : Printing only first  50 k-points.
           xangst1     2.8114490866E+00  2.6880434206E+00  2.8114490866E+00
                       8.4343472599E+00  8.0641302619E+00  8.4343472599E+00
                       5.6228981733E+00  8.1646909429E+00  5.6228981733E+00
                       5.6228981733E+00  5.3760868413E+00  2.8406871999E+00
                       5.6228981732E+00  5.3760868413E+00  8.4051091467E+00
                       5.6228981732E+00  2.5874827396E+00  5.6228981732E+00
                       8.4051091467E+00  5.3760868413E+00  5.6228981732E+00
                       2.8406871999E+00  5.3760868413E+00  5.6228981733E+00
                       0.0000000000E+00  0.0000000000E+00  0.0000000000E+00
           xangst2     2.8090470263E+00  2.6845646405E+00  2.8090470263E+00
                       8.4271410788E+00  8.0536939216E+00  8.4271410788E+00
                       5.6180940526E+00  8.1512842021E+00  5.6180940526E+00
                       5.6180940526E+00  5.3691292811E+00  2.8398100341E+00
                       5.6180940525E+00  5.3691292811E+00  8.3963780710E+00
                       5.6180940525E+00  2.5869743600E+00  5.6180940525E+00
                       8.3963780710E+00  5.3691292811E+00  5.6180940525E+00
                       2.8398100341E+00  5.3691292811E+00  5.6180940526E+00
                       1.4364929173E-21  6.7959929281E-22  1.8640982942E-23
           xangst3     2.8065766412E+00  2.6812167489E+00  2.8065766412E+00
                       8.4197299237E+00  8.0436502468E+00  8.4197299237E+00
                       5.6131532825E+00  8.1383577373E+00  5.6131532825E+00
                       5.6131532825E+00  5.3624334979E+00  2.8389269885E+00
                       5.6131532824E+00  5.3624334979E+00  8.3873795764E+00
                       5.6131532824E+00  2.5865092584E+00  5.6131532824E+00
                       8.3873795764E+00  5.3624334979E+00  5.6131532824E+00
                       2.8389269885E+00  5.3624334979E+00  5.6131532825E+00
                       0.0000000000E+00  0.0000000000E+00  0.0000000000E+00
           xangst4     2.8040017609E+00  2.6780686930E+00  2.8040017609E+00
                       8.4120052826E+00  8.0342060789E+00  8.4120052826E+00
                       5.6080035217E+00  8.1262126611E+00  5.6080035217E+00
                       5.6080035217E+00  5.3561373859E+00  2.8379869429E+00
                       5.6080035218E+00  5.3561373859E+00  8.3780201006E+00
                       5.6080035218E+00  2.5860621107E+00  5.6080035218E+00
                       8.3780201006E+00  5.3561373859E+00  5.6080035218E+00
                       2.8379869429E+00  5.3561373859E+00  5.6080035217E+00
                       2.1482406365E-22 -2.2103443407E-21  2.1054670691E-22
           xangst5     2.8016108484E+00  2.6745694692E+00  2.8016108484E+00
                       8.4048325451E+00  8.0237084075E+00  8.4048325451E+00
                       5.6032216966E+00  8.1126902541E+00  5.6032216966E+00
                       5.6032216967E+00  5.3491389384E+00  2.8371211111E+00
                       5.6032216968E+00  5.3491389384E+00  8.3693222824E+00
                       5.6032216968E+00  2.5855876226E+00  5.6032216968E+00
                       8.3693222824E+00  5.3491389384E+00  5.6032216968E+00
                       2.8371211111E+00  5.3491389384E+00  5.6032216967E+00
                      -1.1031295224E-21  2.4697297882E-21  1.7978953192E-22
           xangst6     2.7989260473E+00  2.6716315711E+00  2.7989260473E+00
                       8.3967781419E+00  8.0148947133E+00  8.3967781419E+00
                       5.5978520945E+00  8.1013266012E+00  5.5978520945E+00
                       5.5978520945E+00  5.3432631422E+00  2.8361468680E+00
                       5.5978520946E+00  5.3432631422E+00  8.3595573212E+00
                       5.5978520946E+00  2.5851996833E+00  5.5978520946E+00
                       8.3595573212E+00  5.3432631422E+00  5.5978520946E+00
                       2.8361468680E+00  5.3432631422E+00  5.5978520945E+00
                      -1.1391077842E-21 -8.2114376468E-22  8.6906609721E-22
           xangst7     2.7964489094E+00  2.6682973709E+00  2.7964489094E+00
                       8.3893467283E+00  8.0048921126E+00  8.3893467283E+00
                       5.5928978189E+00  8.0884242910E+00  5.5928978189E+00
                       5.5928978189E+00  5.3365947417E+00  2.8352120617E+00
                       5.5928978188E+00  5.3365947417E+00  8.3505835760E+00
                       5.5928978188E+00  2.5847651925E+00  5.5928978188E+00
                       8.3505835760E+00  5.3365947417E+00  5.5928978188E+00
                       2.8352120617E+00  5.3365947417E+00  5.5928978189E+00
                       1.2696293796E-21 -6.1172220673E-22 -2.2127777271E-22
           xangst8     2.7936381526E+00  2.6655999487E+00  2.7936381526E+00
                       8.3809144578E+00  7.9967998461E+00  8.3809144578E+00
                       5.5872763052E+00  8.0781149849E+00  5.5872763052E+00
                       5.5872763052E+00  5.3311998974E+00  2.8342029253E+00
                       5.5872763052E+00  5.3311998974E+00  8.3403496851E+00
                       5.5872763052E+00  2.5842848099E+00  5.5872763052E+00
                       8.3403496851E+00  5.3311998974E+00  5.5872763052E+00
                       2.8342029253E+00  5.3311998974E+00  5.5872763052E+00
                       6.2498684637E-21 -6.7195644520E-22 -6.1154386387E-21
           xangst9     2.7910897045E+00  2.6624020270E+00  2.7910897045E+00
                       8.3732691135E+00  7.9872060810E+00  8.3732691135E+00
                       5.5821794089E+00  8.0657839593E+00  5.5821794089E+00
                       5.5821794089E+00  5.3248040540E+00  2.8332472054E+00
                       5.5821794091E+00  5.3248040540E+00  8.3311116126E+00
                       5.5821794091E+00  2.5838241486E+00  5.5821794091E+00
                       8.3311116126E+00  5.3248040540E+00  5.5821794091E+00
                       2.8332472054E+00  5.3248040540E+00  5.5821794089E+00
                       7.5184642657E-22 -9.5597284336E-22 -2.4902752799E-21
           xangst10    2.7883157941E+00  2.6596343149E+00  2.7883157941E+00
                       8.3649473823E+00  7.9789029448E+00  8.3649473823E+00
                       5.5766315882E+00  8.0552152394E+00  5.5766315882E+00
                       5.5766315882E+00  5.3192686299E+00  2.8322358378E+00
                       5.5766315882E+00  5.3192686299E+00  8.3210273386E+00
                       5.5766315882E+00  2.5833220203E+00  5.5766315882E+00
                       8.3210273386E+00  5.3192686299E+00  5.5766315882E+00
                       2.8322358378E+00  5.3192686299E+00  5.5766315882E+00
                       1.8201961975E-21 -5.3343350845E-21 -1.2906164215E-21
            xcart1     5.3128688103E+00  5.0796658983E+00  5.3128688103E+00
                       1.5938606431E+01  1.5238997695E+01  1.5938606431E+01
                       1.0625737621E+01  1.5429029842E+01  1.0625737621E+01
                       1.0625737621E+01  1.0159331797E+01  5.3681208370E+00
                       1.0625737621E+01  1.0159331797E+01  1.5883354404E+01
                       1.0625737621E+01  4.8896337515E+00  1.0625737621E+01
                       1.5883354404E+01  1.0159331797E+01  1.0625737621E+01
                       5.3681208370E+00  1.0159331797E+01  1.0625737621E+01
                       0.0000000000E+00  0.0000000000E+00  0.0000000000E+00
            xcart2     5.3083295740E+00  5.0730919566E+00  5.3083295740E+00
                       1.5924988722E+01  1.5219275870E+01  1.5924988722E+01
                       1.0616659148E+01  1.5403694773E+01  1.0616659148E+01
                       1.0616659148E+01  1.0146183913E+01  5.3664632338E+00
                       1.0616659148E+01  1.0146183913E+01  1.5866855062E+01
                       1.0616659148E+01  4.8886730532E+00  1.0616659148E+01
                       1.5866855062E+01  1.0146183913E+01  1.0616659148E+01
                       5.3664632338E+00  1.0146183913E+01  1.0616659148E+01
                       2.7145782055E-21  1.2842565435E-21  3.5226352607E-23
            xcart3     5.3036612229E+00  5.0667653584E+00  5.3036612229E+00
                       1.5910983669E+01  1.5200296075E+01  1.5910983669E+01
                       1.0607322446E+01  1.5379267295E+01  1.0607322446E+01
                       1.0607322446E+01  1.0133530717E+01  5.3647945195E+00
                       1.0607322446E+01  1.0133530717E+01  1.5849850372E+01
                       1.0607322446E+01  4.8877941385E+00  1.0607322446E+01
                       1.5849850372E+01  1.0133530717E+01  1.0607322446E+01
                       5.3647945195E+00  1.0133530717E+01  1.0607322446E+01
                       0.0000000000E+00  0.0000000000E+00  0.0000000000E+00
            xcart4     5.2987954042E+00  5.0608163948E+00  5.2987954042E+00
                       1.5896386213E+01  1.5182449184E+01  1.5896386213E+01
                       1.0597590808E+01  1.5356316427E+01  1.0597590808E+01
                       1.0597590808E+01  1.0121632790E+01  5.3630180908E+00
                       1.0597590809E+01  1.0121632790E+01  1.5832163526E+01
                       1.0597590809E+01  4.8869491519E+00  1.0597590809E+01
                       1.5832163526E+01  1.0121632790E+01  1.0597590809E+01
                       5.3630180908E+00  1.0121632790E+01  1.0597590808E+01
                       4.0595864706E-22 -4.1769454633E-21  3.9787561424E-22
            xcart5     5.2942772343E+00  5.0542038201E+00  5.2942772343E+00
                       1.5882831703E+01  1.5162611460E+01  1.5882831703E+01
                       1.0588554469E+01  1.5330762781E+01  1.0588554469E+01
                       1.0588554469E+01  1.0108407640E+01  5.3613819058E+00
                       1.0588554469E+01  1.0108407640E+01  1.5815727032E+01
                       1.0588554469E+01  4.8860524993E+00  1.0588554469E+01
                       1.5815727032E+01  1.0108407640E+01  1.0588554469E+01
                       5.3613819058E+00  1.0108407640E+01  1.0588554469E+01
                      -2.0846126864E-21  4.6671129220E-21  3.3975297689E-22
            xcart6     5.2892036956E+00  5.0486519974E+00  5.2892036956E+00
                       1.5867611087E+01  1.5145955992E+01  1.5867611087E+01
                       1.0578407391E+01  1.5309288589E+01  1.0578407391E+01
                       1.0578407391E+01  1.0097303995E+01  5.3595408531E+00
                       1.0578407391E+01  1.0097303995E+01  1.5797273929E+01
                       1.0578407391E+01  4.8853194002E+00  1.0578407391E+01
                       1.5797273929E+01  1.0097303995E+01  1.0578407391E+01
                       5.3595408531E+00  1.0097303995E+01  1.0578407391E+01
                      -2.1526017481E-21 -1.5517368310E-21  1.6422969151E-21
            xcart7     5.2845225835E+00  5.0423512720E+00  5.2845225835E+00
                       1.5853567750E+01  1.5127053816E+01  1.5853567750E+01
                       1.0569045167E+01  1.5284906757E+01  1.0569045167E+01
                       1.0569045167E+01  1.0084702544E+01  5.3577743253E+00
                       1.0569045167E+01  1.0084702544E+01  1.5780316008E+01
                       1.0569045167E+01  4.8844983316E+00  1.0569045167E+01
                       1.5780316008E+01  1.0084702544E+01  1.0569045167E+01
                       5.3577743253E+00  1.0084702544E+01  1.0569045167E+01
                       2.3992518178E-21 -1.1559874401E-21 -4.1815438973E-22
            xcart8     5.2792110228E+00  5.0372538829E+00  5.2792110228E+00
                       1.5837633068E+01  1.5111761649E+01  1.5837633068E+01
                       1.0558422046E+01  1.5265424992E+01  1.0558422046E+01
                       1.0558422046E+01  1.0074507766E+01  5.3558673339E+00
                       1.0558422046E+01  1.0074507766E+01  1.5760976757E+01
                       1.0558422046E+01  4.8835905400E+00  1.0558422046E+01
                       1.5760976757E+01  1.0074507766E+01  1.0558422046E+01
                       5.3558673339E+00  1.0074507766E+01  1.0558422046E+01
                       1.1810539763E-20 -1.2698136546E-21 -1.1556504210E-20
            xcart9     5.2743951538E+00  5.0312106867E+00  5.2743951538E+00
                       1.5823185461E+01  1.5093632060E+01  1.5823185461E+01
                       1.0548790307E+01  1.5242122730E+01  1.0548790307E+01
                       1.0548790307E+01  1.0062421373E+01  5.3540612849E+00
                       1.0548790308E+01  1.0062421373E+01  1.5743519330E+01
                       1.0548790308E+01  4.8827200164E+00  1.0548790308E+01
                       1.5743519330E+01  1.0062421373E+01  1.0548790308E+01
                       5.3540612849E+00  1.0062421373E+01  1.0548790307E+01
                       1.4207838402E-21 -1.8065268644E-21 -4.7059382745E-21
            xcart10    5.2691532228E+00  5.0259804688E+00  5.2691532228E+00
                       1.5807459669E+01  1.5077941407E+01  1.5807459669E+01
                       1.0538306446E+01  1.5222150744E+01  1.0538306446E+01
                       1.0538306446E+01  1.0051960938E+01  5.3521500772E+00
                       1.0538306446E+01  1.0051960938E+01  1.5724462814E+01
                       1.0538306446E+01  4.8817711314E+00  1.0538306446E+01
                       1.5724462814E+01  1.0051960938E+01  1.0538306446E+01
                       5.3521500772E+00  1.0051960938E+01  1.0538306446E+01
                       3.4396723214E-21 -1.0080432411E-20 -2.4389115793E-21
             xred1     2.5000000000E-01  2.5000000000E-01  2.5000000000E-01
                       7.5000000000E-01  7.5000000000E-01  7.5000000000E-01
                       7.5935259083E-01  2.4064740917E-01  7.5935259083E-01
                       2.5259991488E-01  2.5259991488E-01  7.4740008512E-01
                       7.4740008512E-01  7.4740008512E-01  2.5259991488E-01
                       2.4064740917E-01  7.5935259083E-01  2.4064740917E-01
                       2.5259991488E-01  7.4740008512E-01  7.4740008512E-01
                       7.4740008512E-01  2.5259991488E-01  2.5259991488E-01
                       0.0000000000E+00  0.0000000000E+00  0.0000000000E+00
             xred2     2.5000000000E-01  2.5000000000E-01  2.5000000000E-01
                       7.5000000000E-01  7.5000000000E-01  7.5000000000E-01
                       7.5908809189E-01  2.4091190811E-01  7.5908809189E-01
                       2.5273785091E-01  2.5273785091E-01  7.4726214909E-01
                       7.4726214909E-01  7.4726214909E-01  2.5273785091E-01
                       2.4091190811E-01  7.5908809189E-01  2.4091190811E-01
                       2.5273785091E-01  7.4726214909E-01  7.4726214909E-01
                       7.4726214909E-01  2.5273785091E-01  2.5273785091E-01
                      -6.2898541537E-23  6.6216567682E-23  1.8947386823E-22
             xred3     2.5000000000E-01  2.5000000000E-01  2.5000000000E-01
                       7.5000000000E-01  7.5000000000E-01  7.5000000000E-01
                       7.5883064476E-01  2.4116935524E-01  7.5883064476E-01
                       2.5288165543E-01  2.5288165543E-01  7.4711834457E-01
                       7.4711834457E-01  7.4711834457E-01  2.5288165543E-01
                       2.4116935524E-01  7.5883064476E-01  2.4116935524E-01
                       2.5288165543E-01  7.4711834457E-01  7.4711834457E-01
                       7.4711834457E-01  2.5288165543E-01  2.5288165543E-01
                       0.0000000000E+00  0.0000000000E+00  0.0000000000E+00
             xred4     2.5000000000E-01  2.5000000000E-01  2.5000000000E-01
                       7.5000000000E-01  7.5000000000E-01  7.5000000000E-01
                       7.5858889304E-01  2.4141110696E-01  7.5858889304E-01
                       2.5303006069E-01  2.5303006069E-01  7.4696993931E-01
                       7.4696993931E-01  7.4696993931E-01  2.5303006069E-01
                       2.4141110696E-01  7.5858889304E-01  2.4141110696E-01
                       2.5303006069E-01  7.4696993931E-01  7.4696993931E-01
                       7.4696993931E-01  2.5303006069E-01  2.5303006069E-01
                      -2.0671889401E-22  2.4426286238E-22 -2.0595617039E-22
             xred5     2.5000000000E-01  2.5000000000E-01  2.5000000000E-01
                       7.5000000000E-01  7.5000000000E-01  7.5000000000E-01
                       7.5831739908E-01  2.4168260092E-01  7.5831739908E-01
                       2.5316873619E-01  2.5316873619E-01  7.4683126381E-01
                       7.4683126381E-01  7.4683126381E-01  2.5316873619E-01
                       2.4168260092E-01  7.5831739908E-01  2.4168260092E-01
                       2.5316873619E-01  7.4683126381E-01  7.4683126381E-01
                       7.4683126381E-01  2.5316873619E-01  2.5316873619E-01
                       3.4533350613E-22 -3.1324669219E-22  1.1637253978E-22
             xred6     2.5000000000E-01  2.5000000000E-01  2.5000000000E-01
                       7.5000000000E-01  7.5000000000E-01  7.5000000000E-01
                       7.5808793106E-01  2.4191206894E-01  7.5808793106E-01
                       2.5332456271E-01  2.5332456271E-01  7.4667543729E-01
                       7.4667543729E-01  7.4667543729E-01  2.5332456271E-01
                       2.4191206894E-01  7.5808793106E-01  2.4191206894E-01
                       2.5332456271E-01  7.4667543729E-01  7.4667543729E-01
                       7.4667543729E-01  2.5332456271E-01  2.5332456271E-01
                       1.0253087184E-22  5.2719049475E-23 -2.5620920338E-22
             xred7     2.5000000000E-01  2.5000000000E-01  2.5000000000E-01
                       7.5000000000E-01  7.5000000000E-01  7.5000000000E-01
                       7.5782635580E-01  2.4217364420E-01  7.5782635580E-01
                       2.5346539071E-01  2.5346539071E-01  7.4653460929E-01
                       7.4653460929E-01  7.4653460929E-01  2.5346539071E-01
                       2.4217364420E-01  7.5782635580E-01  2.4217364420E-01
                       2.5346539071E-01  7.4653460929E-01  7.4653460929E-01
                       7.4653460929E-01  2.5346539071E-01  2.5346539071E-01
                      -1.9059965785E-22  1.5103559288E-22  7.5971840612E-23
             xred8     2.5000000000E-01  2.5000000000E-01  2.5000000000E-01
                       7.5000000000E-01  7.5000000000E-01  7.5000000000E-01
                       7.5762634495E-01  2.4237365505E-01  7.5762634495E-01
                       2.5363010262E-01  2.5363010262E-01  7.4636989738E-01
                       7.4636989738E-01  7.4636989738E-01  2.5363010262E-01
                       2.4237365505E-01  7.5762634495E-01  2.4237365505E-01
                       2.5363010262E-01  7.4636989738E-01  7.4636989738E-01
                       7.4636989738E-01  2.5363010262E-01  2.5363010262E-01
                      -1.1695806043E-21  7.5051122569E-23  1.0435383515E-21
             xred9     2.5000000000E-01  2.5000000000E-01  2.5000000000E-01
                       7.5000000000E-01  7.5000000000E-01  7.5000000000E-01
                       7.5737847605E-01  2.4262152395E-01  7.5737847605E-01
                       2.5377607900E-01  2.5377607900E-01  7.4622392100E-01
                       7.4622392100E-01  7.4622392100E-01  2.5377607900E-01
                       2.4262152395E-01  7.5737847605E-01  2.4262152395E-01
                       2.5377607900E-01  7.4622392100E-01  7.4622392100E-01
                       7.4622392100E-01  2.5377607900E-01  2.5377607900E-01
                      -3.8016528645E-22 -6.5946365920E-23  2.0063326355E-22
             xred10    2.5000000000E-01  2.5000000000E-01  2.5000000000E-01
                       7.5000000000E-01  7.5000000000E-01  7.5000000000E-01
                       7.5717319428E-01  2.4282680572E-01  7.5717319428E-01
                       2.5393786491E-01  2.5393786491E-01  7.4606213509E-01
                       7.4606213509E-01  7.4606213509E-01  2.5393786491E-01
                       2.4282680572E-01  7.5717319428E-01  2.4282680572E-01
                       2.5393786491E-01  7.4606213509E-01  7.4606213509E-01
                       7.4606213509E-01  2.5393786491E-01  2.5393786491E-01
                      -7.8033123461E-22  5.4889826272E-22 -2.2250119512E-22
            znucl       55.00000   53.00000   72.00000   35.00000

================================================================================

 chkinp: Checking input parameters for consistency, jdtset=   1.

 chkinp: Checking input parameters for consistency, jdtset=   2.

 chkinp: Checking input parameters for consistency, jdtset=   3.

 chkinp: Checking input parameters for consistency, jdtset=   4.

 chkinp: Checking input parameters for consistency, jdtset=   5.

 chkinp: Checking input parameters for consistency, jdtset=   6.

 chkinp: Checking input parameters for consistency, jdtset=   7.

 chkinp: Checking input parameters for consistency, jdtset=   8.

 chkinp: Checking input parameters for consistency, jdtset=   9.

 chkinp: Checking input parameters for consistency, jdtset=  10.

================================================================================
== DATASET  1 ==================================================================
-   mpi_nproc: 6, omp_nthreads: -1 (-1 if OMP is not activated)


--- !DatasetInfo
iteration_state: {dtset: 1, }
dimensions: {natom: 9, nkpt: 163, mband: 42, nsppol: 1, nspinor: 1, nspden: 1, mpw: 7051, }
cutoff_energies: {ecut:  16.0, pawecutdg:  40.0, }
electrons: {nelect:   7.20000000E+01, charge:   0.00000000E+00, occopt:   1.00000000E+00, tsmear:   1.00000000E-02, }
meta: {optdriver: 0, ionmov: 0, optcell: 0, iscf: 17, paral_kgb: 0, }
...

 Real(R)+Recip(G) space primitive vectors, cartesian coordinates (Bohr,Bohr^-1):
 R(1)=  0.0000000 10.1593318 10.6257376  G(1)= -0.0470556  0.0492158  0.0470556
 R(2)= 10.6257376  0.0000000 10.6257376  G(2)=  0.0470556 -0.0492158  0.0470556
 R(3)= 10.6257376 10.1593318  0.0000000  G(3)=  0.0470556  0.0492158 -0.0470556
 Unit cell volume ucvol=  2.2941051E+03 bohr^3
 Angles (23,13,12)=  5.92634670E+01  6.14730659E+01  5.92634670E+01 degrees

 Coarse grid specifications (used for wave-functions):

 getcut: wavevector=  0.0000  0.0000  0.0000  ngfft=  60  60  60
         ecut(hartree)=     16.000   => boxcut(ratio)=   2.21744

 getcut : COMMENT -
  Note that boxcut > 2.2 ; recall that boxcut=Gcut(box)/Gcut(sphere) = 2
  is sufficient for exact treatment of convolution.
  Such a large boxcut is a waste : you could raise ecut
  e.g. ecut=   19.668176 Hartrees makes boxcut=2


 Fine grid specifications (used for densities):

 getcut: wavevector=  0.0000  0.0000  0.0000  ngfft=  90  90  90
         ecut(hartree)=     40.000   => boxcut(ratio)=   2.10393

--- Pseudopotential description ------------------------------------------------
- pspini: atom type   1  psp file is ../../../Psps_for_tests/ATOMICDATA/Cs.GGA_PBE-JTH.xml
- pspatm: opening atomic psp file    ../../../Psps_for_tests/ATOMICDATA/Cs.GGA_PBE-JTH.xml
- pspatm : Reading pseudopotential header in XML form from ../../../Psps_for_tests/ATOMICDATA/Cs.GGA_PBE-JTH.xml
 Pseudopotential format is: paw10
 basis_size (lnmax)=  6 (lmn_size= 18), orbitals=   0   0   1   1   2   2
 Spheres core radius: rc_sph= 2.20660278
 1 radial meshes are used:
  - mesh 1: r(i)=AA*[exp(BB*(i-1))-1], size=1500 , AA= 0.15922E-03 BB= 0.87573E-02
 Shapefunction is SIN type: shapef(r)=[sin(pi*r/rshp)/(pi*r/rshp)]**2
 Radius for shape functions =  2.00394208
 mmax= 1500
 Radial grid used for partial waves is grid 1
 Radial grid used for projectors is grid 1
 Radial grid used for (t)core density is grid 1
 Radial grid used for Vloc is grid 1
 Radial grid used for pseudo valence density is grid 1
 Mesh size for Vloc has been set to 1341 to avoid numerical noise.
 Compensation charge density is not taken into account in XC energy/potential
 pspatm: atomic psp has been read  and splines computed

- pspini: atom type   2  psp file is ../../../Psps_for_tests/ATOMICDATA/I.GGA_PBE-JTH.xml
- pspatm: opening atomic psp file    ../../../Psps_for_tests/ATOMICDATA/I.GGA_PBE-JTH.xml
- pspatm : Reading pseudopotential header in XML form from ../../../Psps_for_tests/ATOMICDATA/I.GGA_PBE-JTH.xml
 Pseudopotential format is: paw10
 basis_size (lnmax)=  4 (lmn_size=  8), orbitals=   0   0   1   1
 Spheres core radius: rc_sph= 2.30022271
 1 radial meshes are used:
  - mesh 1: r(i)=AA*[exp(BB*(i-1))-1], size=2000 , AA= 0.12610E-03 BB= 0.66836E-02
 Shapefunction is SIN type: shapef(r)=[sin(pi*r/rshp)/(pi*r/rshp)]**2
 Radius for shape functions =  2.10879093
 mmax= 2000
 Radial grid used for partial waves is grid 1
 Radial grid used for projectors is grid 1
 Radial grid used for (t)core density is grid 1
 Radial grid used for Vloc is grid 1
 Radial grid used for pseudo valence density is grid 1
 Mesh size for Vloc has been set to 1792 to avoid numerical noise.
 Compensation charge density is not taken into account in XC energy/potential
 pspatm: atomic psp has been read  and splines computed

- pspini: atom type   3  psp file is ../../../Psps_for_tests/ATOMICDATA/Hf.GGA_PBE-JTH.xml
- pspatm: opening atomic psp file    ../../../Psps_for_tests/ATOMICDATA/Hf.GGA_PBE-JTH.xml
- pspatm : Reading pseudopotential header in XML form from ../../../Psps_for_tests/ATOMICDATA/Hf.GGA_PBE-JTH.xml
 Pseudopotential format is: paw10
 basis_size (lnmax)=  6 (lmn_size= 18), orbitals=   0   0   1   1   2   2
 Spheres core radius: rc_sph= 2.41000000
 1 radial meshes are used:
  - mesh 1: r(i)=AA*[exp(BB*(i-1))-1], size= 972 , AA= 0.19796E-03 BB= 0.14253E-01
 Shapefunction is SIN type: shapef(r)=[sin(pi*r/rshp)/(pi*r/rshp)]**2
 Radius for shape functions =  2.41000000
 mmax=  972
 Radial grid used for partial waves is grid 1
 Radial grid used for projectors is grid 1
 Radial grid used for (t)core density is grid 1
 Radial grid used for Vloc is grid 1
 Radial grid used for pseudo valence density is grid 1
 Mesh size for Vloc has been set to  809 to avoid numerical noise.
 Compensation charge density is not taken into account in XC energy/potential
 pspatm: atomic psp has been read  and splines computed

- pspini: atom type   4  psp file is ../../../Psps_for_tests/ATOMICDATA/Br.GGA_PBE-JTH.xml
- pspatm: opening atomic psp file    ../../../Psps_for_tests/ATOMICDATA/Br.GGA_PBE-JTH.xml
- pspatm : Reading pseudopotential header in XML form from ../../../Psps_for_tests/ATOMICDATA/Br.GGA_PBE-JTH.xml
 Pseudopotential format is: paw10
 basis_size (lnmax)=  4 (lmn_size=  8), orbitals=   0   0   1   1
 Spheres core radius: rc_sph= 2.20000000
 1 radial meshes are used:
  - mesh 1: r(i)=AA*[exp(BB*(i-1))-1], size= 927 , AA= 0.40483E-03 BB= 0.14169E-01
 Shapefunction is BESSEL type: shapef(r,l)=aa(1,l)*jl(q(1,l)*r)+aa(2,l)*jl(q(2,l)*r)
 Radius for shape functions =  2.02066386
 mmax=  927
 Radial grid used for partial waves is grid 1
 Radial grid used for projectors is grid 1
 Radial grid used for (t)core density is grid 1
 Radial grid used for Vloc is grid 1
 Radial grid used for pseudo valence density is grid 1
 Mesh size for Vloc has been set to  763 to avoid numerical noise.
 Compensation charge density is not taken into account in XC energy/potential
 pspatm: atomic psp has been read  and splines computed

   4.24151776E+04                                ecore*ucvol(ha*bohr**3)
--------------------------------------------------------------------------------

_setup2: Arith. and geom. avg. npw (full set) are    7012.675    7012.669

================================================================================

--- !BeginCycle
iteration_state: {dtset: 1, }
solver: {iscf: 17, nstep: 2500, nline: 4, wfoptalg: 10, }
tolerances: {toldfe: 1.00E-08, }
...

     iter   Etot(hartree)      deltaE(h)  residm     nres2
 ETOT  1  -163.84317634630    -1.638E+02 8.377E+00 6.194E+00
 ETOT  2  -165.25811386994    -1.415E+00 2.999E-02 1.956E+00
 ETOT  3  -165.25104146600     7.072E-03 1.782E-02 3.608E-01
 ETOT  4  -165.25180813083    -7.667E-04 6.239E-03 7.590E-02
 ETOT  5  -165.25175957601     4.855E-05 6.787E-03 5.833E-03
 ETOT  6  -165.25182281487    -6.324E-05 2.398E-03 6.149E-04
 ETOT  7  -165.25182979798    -6.983E-06 2.117E-03 1.559E-04
 ETOT  8  -165.25183226792    -2.470E-06 2.000E-03 1.621E-05
 ETOT  9  -165.25183248643    -2.185E-07 1.134E-03 2.887E-06
 ETOT 10  -165.25183253645    -5.001E-08 9.138E-04 6.870E-07
 ETOT 11  -165.25183253879    -2.345E-09 6.063E-04 2.437E-07
 ETOT 12  -165.25183253930    -5.102E-10 3.795E-04 8.246E-09

 At SCF step   12, etot is converged : 
  for the second time, diff in etot=  5.102E-10 < toldfe=  1.000E-08

 Cartesian components of stress tensor (hartree/bohr^3)
  sigma(1 1)= -8.00427965E-05  sigma(3 2)= -1.27411158E-13
  sigma(2 2)= -8.00091800E-05  sigma(3 1)=  2.43638396E-13
  sigma(3 3)= -8.00427965E-05  sigma(2 1)= -1.27413419E-13


--- !ResultsGS
iteration_state: {dtset: 1, }
comment   : Summary of ground state results
lattice_vectors:
- [  0.0000000,  10.1593318,  10.6257376, ]
- [ 10.6257376,   0.0000000,  10.6257376, ]
- [ 10.6257376,  10.1593318,   0.0000000, ]
lattice_lengths: [  14.70096,   15.02706,   14.70096, ]
lattice_angles: [ 59.263,  61.473,  59.263, ] # degrees, (23, 13, 12)
lattice_volume:   2.2941051E+03
convergence: {deltae: -5.102E-10, res2:  8.246E-09, residm:  3.795E-04, diffor: null, }
etotal    :  -1.65251833E+02
entropy   :   0.00000000E+00
fermie    :  -9.34276927E-02
cartesian_stress_tensor: # hartree/bohr^3
- [ -8.00427965E-05,  -1.27413419E-13,   2.43638396E-13, ]
- [ -1.27413419E-13,  -8.00091800E-05,  -1.27411158E-13, ]
- [  2.43638396E-13,  -1.27411158E-13,  -8.00427965E-05, ]
pressure_GPa:   2.3546E+00
xred      :
- [  2.5000E-01,   2.5000E-01,   2.5000E-01, Cs]
- [  7.5000E-01,   7.5000E-01,   7.5000E-01, Cs]
- [  7.5935E-01,   2.4065E-01,   7.5935E-01, Br]
- [  2.5260E-01,   2.5260E-01,   7.4740E-01,  I]
- [  7.4740E-01,   7.4740E-01,   2.5260E-01,  I]
- [  2.4065E-01,   7.5935E-01,   2.4065E-01, Br]
- [  2.5260E-01,   7.4740E-01,   7.4740E-01,  I]
- [  7.4740E-01,   2.5260E-01,   2.5260E-01,  I]
- [  0.0000E+00,   0.0000E+00,   0.0000E+00, Hf]
cartesian_forces: # hartree/bohr
- [  3.76459354E-22,  -3.76459247E-22,   3.75084459E-22, ]
- [  3.76458841E-22,  -3.76458909E-22,   3.75084364E-22, ]
- [  4.15300869E-22,  -3.55656130E-07,   3.36242640E-22, ]
- [  3.80797895E-16,  -3.98282962E-16,   2.49422132E-05, ]
- [ -3.80800530E-16,   3.98285597E-16,  -2.49422132E-05, ]
- [  3.64087086E-22,   3.55656130E-07,   3.87456422E-22, ]
- [ -2.49422132E-05,   3.98284877E-16,  -3.80799694E-16, ]
- [  2.49422132E-05,  -3.98285630E-16,   3.80800444E-16, ]
- [  3.76459088E-22,  -3.76459088E-22,   3.75084421E-22, ]
force_length_stats: {min:   6.51253291E-22, max:   2.49422132E-05, mean:   1.11644628E-05, }
...

 Integrated electronic density in atomic spheres:
 ------------------------------------------------
 Atom  Sphere_radius  Integrated_density
    1        2.20660          5.36913748
    2        2.20660          5.36913748
    3        2.20000          4.94635472
    4        2.30022          4.03080779
    5        2.30022          4.03080779
    6        2.20000          4.94635472
    7        2.30022          4.03080779
    8        2.30022          4.03080779
    9        2.41000          9.30757791

 PAW TEST:
 ==== Compensation charge inside spheres ============
 The following values must be close to each other ...
 Compensation charge over spherical meshes =     -0.490469415003148
 Compensation charge over fine fft grid    =     -0.490459426944678

 ==== Results concerning PAW augmentation regions ====

 Total pseudopotential strength Dij (hartree):
 Atom #  1
   0.44083  -0.14597   0.00000   0.00000   0.00000   0.00000   0.00000   0.00000   0.00000   0.00000   0.00000   0.00000 ...
  -0.14597   0.04399   0.00000   0.00000   0.00000   0.00000   0.00000   0.00000   0.00000   0.00000  -0.00000   0.00000 ...
   0.00000   0.00000  -0.09363   0.00000   0.00000  -0.16655   0.00000   0.00000   0.00000   0.00000   0.00000  -0.00000 ...
   0.00000   0.00000   0.00000  -0.09363   0.00000   0.00000  -0.16655   0.00000  -0.00000   0.00000   0.00000   0.00000 ...
   0.00000   0.00000   0.00000   0.00000  -0.09363   0.00000   0.00000  -0.16655   0.00000  -0.00000   0.00000   0.00000 ...
   0.00000   0.00000  -0.16655   0.00000   0.00000   0.40422   0.00000   0.00000   0.00000   0.00000   0.00000   0.00000 ...
   0.00000   0.00000   0.00000  -0.16655   0.00000   0.00000   0.40422   0.00000   0.00000   0.00000   0.00000   0.00000 ...
   0.00000   0.00000   0.00000   0.00000  -0.16655   0.00000   0.00000   0.40422   0.00000   0.00000   0.00000   0.00000 ...
   0.00000   0.00000   0.00000  -0.00000   0.00000   0.00000   0.00000   0.00000   0.00522   0.00000   0.00000   0.00000 ...
   0.00000   0.00000   0.00000   0.00000  -0.00000   0.00000   0.00000   0.00000   0.00000   0.00522   0.00000   0.00000 ...
   0.00000  -0.00000   0.00000   0.00000   0.00000   0.00000   0.00000   0.00000   0.00000   0.00000   0.00522   0.00000 ...
   0.00000   0.00000  -0.00000   0.00000   0.00000   0.00000   0.00000   0.00000   0.00000   0.00000   0.00000   0.00522 ...
   ...  only 12  components have been written...
 Atom #  9
  -3.52128   0.42926   0.00000   0.00000   0.00000   0.00000   0.00000   0.00000   0.00000   0.00000  -0.00009   0.00000 ...
   0.42926   0.00267   0.00000   0.00000   0.00000   0.00000   0.00000   0.00000   0.00000   0.00000   0.00001   0.00000 ...
   0.00000   0.00000  -1.46029   0.00000   0.00000   0.12426   0.00000   0.00000   0.00000   0.00000   0.00000   0.00000 ...
   0.00000   0.00000   0.00000  -1.46089   0.00000   0.00000   0.12436   0.00000   0.00000   0.00000   0.00000   0.00000 ...
   0.00000   0.00000   0.00000   0.00000  -1.46089   0.00000   0.00000   0.12436   0.00000   0.00000   0.00000   0.00000 ...
   0.00000   0.00000   0.12426   0.00000   0.00000   0.01325   0.00000   0.00000   0.00000   0.00000   0.00000   0.00000 ...
   0.00000   0.00000   0.00000   0.12436   0.00000   0.00000   0.01324   0.00000   0.00000   0.00000   0.00000   0.00000 ...
   0.00000   0.00000   0.00000   0.00000   0.12436   0.00000   0.00000   0.01324   0.00000   0.00000   0.00000   0.00000 ...
   0.00000   0.00000   0.00000   0.00000   0.00000   0.00000   0.00000   0.00000  -0.39486   0.00000   0.00000   0.00000 ...
   0.00000   0.00000   0.00000   0.00000   0.00000   0.00000   0.00000   0.00000   0.00000  -0.39486   0.00000   0.00000 ...
  -0.00009   0.00001   0.00000   0.00000   0.00000   0.00000   0.00000   0.00000   0.00000   0.00000  -0.39427   0.00000 ...
   0.00000   0.00000   0.00000   0.00000   0.00000   0.00000   0.00000   0.00000   0.00000   0.00000   0.00000  -0.39498 ...
   ...  only 12  components have been written...


 Augmentation waves occupancies Rhoij:
 Atom #  1
   1.99817  -0.01361   0.00000   0.00000   0.00000   0.00000   0.00000   0.00000   0.00000   0.00000   0.00065   0.00000 ...
  -0.01361   0.18941   0.00000   0.00000   0.00000   0.00000   0.00000   0.00000   0.00000   0.00000  -0.01082   0.00000 ...
   0.00000   0.00000   2.00837   0.00000   0.00000  -0.00507   0.00000   0.00000   0.00000   0.00000   0.00000  -0.00139 ...
   0.00000   0.00000   0.00000   2.00722   0.00000   0.00000  -0.00479   0.00000  -0.00161   0.00000   0.00000   0.00000 ...
   0.00000   0.00000   0.00000   0.00000   2.00722   0.00000   0.00000  -0.00479   0.00000  -0.00161   0.00000   0.00000 ...
   0.00000   0.00000  -0.00507   0.00000   0.00000   0.00016   0.00000   0.00000   0.00000   0.00000   0.00000   0.00005 ...
   0.00000   0.00000   0.00000  -0.00479   0.00000   0.00000   0.00013   0.00000   0.00006   0.00000   0.00000   0.00000 ...
   0.00000   0.00000   0.00000   0.00000  -0.00479   0.00000   0.00000   0.00013   0.00000   0.00006   0.00000   0.00000 ...
   0.00000   0.00000   0.00000  -0.00161   0.00000   0.00000   0.00006   0.00000   0.08023   0.00000   0.00000   0.00000 ...
   0.00000   0.00000   0.00000   0.00000  -0.00161   0.00000   0.00000   0.00006   0.00000   0.08023   0.00000   0.00000 ...
   0.00065  -0.01082   0.00000   0.00000   0.00000   0.00000   0.00000   0.00000   0.00000   0.00000   0.05011   0.00000 ...
   0.00000   0.00000  -0.00139   0.00000   0.00000   0.00005   0.00000   0.00000   0.00000   0.00000   0.00000   0.03577 ...
   ...  only 12  components have been written...
 Atom #  9
   1.99795  -0.02032   0.00000   0.00000   0.00000   0.00000   0.00000   0.00000   0.00000   0.00000  -0.00036   0.00000 ...
  -0.02032   1.01346   0.00000   0.00000   0.00000   0.00000   0.00000   0.00000   0.00000   0.00000  -0.02412   0.00000 ...
   0.00000   0.00000   1.99281   0.00000   0.00000  -0.06302   0.00000   0.00000   0.00000   0.00000   0.00000   0.00000 ...
   0.00000   0.00000   0.00000   1.99314   0.00000   0.00000  -0.05765   0.00000   0.00000   0.00000   0.00000   0.00000 ...
   0.00000   0.00000   0.00000   0.00000   1.99314   0.00000   0.00000  -0.05765   0.00000   0.00000   0.00000   0.00000 ...
   0.00000   0.00000  -0.06302   0.00000   0.00000   1.39734   0.00000   0.00000   0.00000   0.00000   0.00000   0.00000 ...
   0.00000   0.00000   0.00000  -0.05765   0.00000   0.00000   1.19540   0.00000   0.00000   0.00000   0.00000   0.00000 ...
   0.00000   0.00000   0.00000   0.00000  -0.05765   0.00000   0.00000   1.19540   0.00000   0.00000   0.00000   0.00000 ...
   0.00000   0.00000   0.00000   0.00000   0.00000   0.00000   0.00000   0.00000   0.49637   0.00000   0.00000   0.00000 ...
   0.00000   0.00000   0.00000   0.00000   0.00000   0.00000   0.00000   0.00000   0.00000   0.49637   0.00000   0.00000 ...
  -0.00036  -0.02412   0.00000   0.00000   0.00000   0.00000   0.00000   0.00000   0.00000   0.00000   1.40607   0.00000 ...
   0.00000   0.00000   0.00000   0.00000   0.00000   0.00000   0.00000   0.00000   0.00000   0.00000   0.00000   0.45698 ...
   ...  only 12  components have been written...


================================================================================

 ----iterations are completed or convergence reached----

 Mean square residual over all n,k,spin=   12.696E-07; max=  37.946E-05
 reduced coordinates (array xred) for    9 atoms
       0.250000000000      0.250000000000      0.250000000000
       0.750000000000      0.750000000000      0.750000000000
       0.759352590830      0.240647409170      0.759352590830
       0.252599914880      0.252599914880      0.747400085120
       0.747400085120      0.747400085120      0.252599914880
       0.240647409170      0.759352590830      0.240647409170
       0.252599914880      0.747400085120      0.747400085120
       0.747400085120      0.252599914880      0.252599914880
       0.000000000000      0.000000000000      0.000000000000
 rms dE/dt=  1.4427E-04; max dE/dt=  2.6503E-04; dE/dt below (all hartree)
    1       0.000000000000     -0.000000000000     -0.000000000000
    2      -0.000000000000      0.000000000000      0.000000000000
    3       0.000003613229      0.000000000000      0.000003613229
    4      -0.000265029413     -0.000265029413      0.000000000000
    5       0.000265029413      0.000265029413      0.000000000000
    6      -0.000003613229      0.000000000000     -0.000003613229
    7      -0.000000000000      0.000265029413      0.000265029413
    8       0.000000000000     -0.000265029413     -0.000265029413
    9       0.000000000000      0.000000000000      0.000000000000

 cartesian coordinates (angstrom) at end:
    1      2.81144908664546     2.68804342062641     2.81144908664546
    2      8.43434725993639     8.06413026187922     8.43434725993639
    3      5.62289817333545     8.16469094286479     5.62289817333545
    4      5.62289817333340     5.37608684125281     2.84068719990439
    5      5.62289817324845     5.37608684125281     8.40510914667746
    6      5.62289817324640     2.58748273964084     5.62289817324640
    7      8.40510914667746     5.37608684125281     5.62289817324845
    8      2.84068719990439     5.37608684125281     5.62289817333340
    9      0.00000000000000     0.00000000000000     0.00000000000000

 cartesian forces (hartree/bohr) at end:
    1      0.00000000000000    -0.00000000000000     0.00000000000000
    2      0.00000000000000    -0.00000000000000     0.00000000000000
    3      0.00000000000000    -0.00000035565613     0.00000000000000
    4      0.00000000000000    -0.00000000000000     0.00002494221322
    5     -0.00000000000000     0.00000000000000    -0.00002494221322
    6      0.00000000000000     0.00000035565613     0.00000000000000
    7     -0.00002494221322     0.00000000000000    -0.00000000000000
    8      0.00002494221322    -0.00000000000000     0.00000000000000
    9      0.00000000000000    -0.00000000000000     0.00000000000000
 frms,max,avg= 9.6007503E-06 2.4942213E-05   0.000E+00  0.000E+00  0.000E+00 h/b

 cartesian forces (eV/Angstrom) at end:
    1      0.00000000000000    -0.00000000000000     0.00000000000000
    2      0.00000000000000    -0.00000000000000     0.00000000000000
    3      0.00000000000000    -0.00001828857202     0.00000000000000
    4      0.00000000000002    -0.00000000000002     0.00128258006451
    5     -0.00000000000002     0.00000000000002    -0.00128258006451
    6      0.00000000000000     0.00001828857202     0.00000000000000
    7     -0.00128258006451     0.00000000000002    -0.00000000000002
    8      0.00128258006451    -0.00000000000002     0.00000000000002
    9      0.00000000000000    -0.00000000000000     0.00000000000000
 frms,max,avg= 4.9369039E-04 1.2825801E-03   0.000E+00  0.000E+00  0.000E+00 e/A
 length scales= 14.700963320000 15.027062253000 14.700963320000 bohr
              =  7.779414733262  7.951978856351  7.779414733262 angstroms
 prteigrs : about to open file Cs2TiI6o_DS1_EIG
 Fermi (or HOMO) energy (hartree) =  -0.09343   Average Vxc (hartree)=  -0.31223
 Eigenvalues (hartree) for nkpt= 163  k points:
 kpt#   1, nband= 42, wtk=  0.00058, kpt=  0.0000  0.0000  0.0000 (reduced coord)
  -2.39428   -1.23923   -1.23885   -1.23885   -0.84335   -0.84299   -0.61315   -0.60465
  -0.52891   -0.51482   -0.51482   -0.50898   -0.36735   -0.36455   -0.36455   -0.36168
  -0.36160   -0.36160   -0.26110   -0.19755   -0.19755   -0.19719   -0.19683   -0.19683
  -0.18772   -0.18432   -0.16308   -0.14322   -0.14322   -0.12707   -0.11559   -0.10700
  -0.10700   -0.10410   -0.10410   -0.09343   -0.02127   -0.01193   -0.01193    0.05117
   0.06160    0.07130
 prteigrs : prtvol=0 or 1, do not print more k-points.


--- !EnergyTerms
iteration_state     : {dtset: 1, }
comment             : Components of total free energy in Hartree
kinetic             :  3.91883135850704E+01
hartree             :  3.12980250689207E+01
xc                  : -6.24064575413143E+01
Ewald energy        : -1.24971069842986E+02
psp_core            :  1.84887680421556E+01
local_psp           : -6.37369974508738E+01
spherical_terms     : -3.11242397185005E+00
total_energy        : -1.65251842110878E+02
total_energy_eV     : -4.49673130925120E+03
...


--- !EnergyTermsDC
iteration_state     : {dtset: 1, }
comment             : '"Double-counting" decomposition of free energy'
band_energy         : -3.23938468106760E+01
Ewald energy        : -1.24971069842986E+02
psp_core            :  1.84887680421556E+01
xc_dc               : -5.55248611179305E+01
spherical_terms     :  2.91491771901353E+01
total_energy_dc     : -1.65251832539302E+02
total_energy_dc_eV  : -4.49673104879538E+03
...


 Cartesian components of stress tensor (hartree/bohr^3)
  sigma(1 1)= -8.00427965E-05  sigma(3 2)= -1.27411158E-13
  sigma(2 2)= -8.00091800E-05  sigma(3 1)=  2.43638396E-13
  sigma(3 3)= -8.00427965E-05  sigma(2 1)= -1.27413419E-13

-Cartesian components of stress tensor (GPa)         [Pressure=  2.3546E+00 GPa]
- sigma(1 1)= -2.35493998E+00  sigma(3 2)= -3.74856506E-09
- sigma(2 2)= -2.35395095E+00  sigma(3 1)=  7.16808788E-09
- sigma(3 3)= -2.35493998E+00  sigma(2 1)= -3.74863159E-09

================================================================================
== DATASET  2 ==================================================================
-   mpi_nproc: 6, omp_nthreads: -1 (-1 if OMP is not activated)


--- !DatasetInfo
iteration_state: {dtset: 2, }
dimensions: {natom: 9, nkpt: 163, mband: 42, nsppol: 1, nspinor: 1, nspden: 1, mpw: 7020, }
cutoff_energies: {ecut:  16.0, pawecutdg:  40.0, }
electrons: {nelect:   7.20000000E+01, charge:   0.00000000E+00, occopt:   1.00000000E+00, tsmear:   1.00000000E-02, }
meta: {optdriver: 0, ionmov: 0, optcell: 0, iscf: 17, paral_kgb: 0, }
...

 Real(R)+Recip(G) space primitive vectors, cartesian coordinates (Bohr,Bohr^-1):
 R(1)=  0.0000000 10.1461839 10.6166591  G(1)= -0.0470958  0.0492796  0.0470958
 R(2)= 10.6166591  0.0000000 10.6166591  G(2)=  0.0470958 -0.0492796  0.0470958
 R(3)= 10.6166591 10.1461839  0.0000000  G(3)=  0.0470958  0.0492796 -0.0470958
 Unit cell volume ucvol=  2.2872228E+03 bohr^3
 Angles (23,13,12)=  5.92563045E+01  6.14873910E+01  5.92563045E+01 degrees

 Coarse grid specifications (used for wave-functions):

 getcut: wavevector=  0.0000  0.0000  0.0000  ngfft=  60  60  60
         ecut(hartree)=     16.000   => boxcut(ratio)=   2.21934

 getcut : COMMENT -
  Note that boxcut > 2.2 ; recall that boxcut=Gcut(box)/Gcut(sphere) = 2
  is sufficient for exact treatment of convolution.
  Such a large boxcut is a waste : you could raise ecut
  e.g. ecut=   19.701828 Hartrees makes boxcut=2


 Fine grid specifications (used for densities):

 getcut: wavevector=  0.0000  0.0000  0.0000  ngfft=  90  90  90
         ecut(hartree)=     40.000   => boxcut(ratio)=   2.10573

--- Pseudopotential description ------------------------------------------------
- pspini: atom type   1  psp file is ../../../Psps_for_tests/ATOMICDATA/Cs.GGA_PBE-JTH.xml
- pspatm: opening atomic psp file    ../../../Psps_for_tests/ATOMICDATA/Cs.GGA_PBE-JTH.xml
- pspatm : Reading pseudopotential header in XML form from ../../../Psps_for_tests/ATOMICDATA/Cs.GGA_PBE-JTH.xml
 Pseudopotential format is: paw10
 basis_size (lnmax)=  6 (lmn_size= 18), orbitals=   0   0   1   1   2   2
 Spheres core radius: rc_sph= 2.20660278
 1 radial meshes are used:
  - mesh 1: r(i)=AA*[exp(BB*(i-1))-1], size=1500 , AA= 0.15922E-03 BB= 0.87573E-02
 Shapefunction is SIN type: shapef(r)=[sin(pi*r/rshp)/(pi*r/rshp)]**2
 Radius for shape functions =  2.00394208
 mmax= 1500
 Radial grid used for partial waves is grid 1
 Radial grid used for projectors is grid 1
 Radial grid used for (t)core density is grid 1
 Radial grid used for Vloc is grid 1
 Radial grid used for pseudo valence density is grid 1
 Mesh size for Vloc has been set to 1341 to avoid numerical noise.
 Compensation charge density is not taken into account in XC energy/potential
 pspatm: atomic psp has been read  and splines computed

- pspini: atom type   2  psp file is ../../../Psps_for_tests/ATOMICDATA/I.GGA_PBE-JTH.xml
- pspatm: opening atomic psp file    ../../../Psps_for_tests/ATOMICDATA/I.GGA_PBE-JTH.xml
- pspatm : Reading pseudopotential header in XML form from ../../../Psps_for_tests/ATOMICDATA/I.GGA_PBE-JTH.xml
 Pseudopotential format is: paw10
 basis_size (lnmax)=  4 (lmn_size=  8), orbitals=   0   0   1   1
 Spheres core radius: rc_sph= 2.30022271
 1 radial meshes are used:
  - mesh 1: r(i)=AA*[exp(BB*(i-1))-1], size=2000 , AA= 0.12610E-03 BB= 0.66836E-02
 Shapefunction is SIN type: shapef(r)=[sin(pi*r/rshp)/(pi*r/rshp)]**2
 Radius for shape functions =  2.10879093
 mmax= 2000
 Radial grid used for partial waves is grid 1
 Radial grid used for projectors is grid 1
 Radial grid used for (t)core density is grid 1
 Radial grid used for Vloc is grid 1
 Radial grid used for pseudo valence density is grid 1
 Mesh size for Vloc has been set to 1792 to avoid numerical noise.
 Compensation charge density is not taken into account in XC energy/potential
 pspatm: atomic psp has been read  and splines computed

- pspini: atom type   3  psp file is ../../../Psps_for_tests/ATOMICDATA/Hf.GGA_PBE-JTH.xml
- pspatm: opening atomic psp file    ../../../Psps_for_tests/ATOMICDATA/Hf.GGA_PBE-JTH.xml
- pspatm : Reading pseudopotential header in XML form from ../../../Psps_for_tests/ATOMICDATA/Hf.GGA_PBE-JTH.xml
 Pseudopotential format is: paw10
 basis_size (lnmax)=  6 (lmn_size= 18), orbitals=   0   0   1   1   2   2
 Spheres core radius: rc_sph= 2.41000000
 1 radial meshes are used:
  - mesh 1: r(i)=AA*[exp(BB*(i-1))-1], size= 972 , AA= 0.19796E-03 BB= 0.14253E-01
 Shapefunction is SIN type: shapef(r)=[sin(pi*r/rshp)/(pi*r/rshp)]**2
 Radius for shape functions =  2.41000000
 mmax=  972
 Radial grid used for partial waves is grid 1
 Radial grid used for projectors is grid 1
 Radial grid used for (t)core density is grid 1
 Radial grid used for Vloc is grid 1
 Radial grid used for pseudo valence density is grid 1
 Mesh size for Vloc has been set to  809 to avoid numerical noise.
 Compensation charge density is not taken into account in XC energy/potential
 pspatm: atomic psp has been read  and splines computed

- pspini: atom type   4  psp file is ../../../Psps_for_tests/ATOMICDATA/Br.GGA_PBE-JTH.xml
- pspatm: opening atomic psp file    ../../../Psps_for_tests/ATOMICDATA/Br.GGA_PBE-JTH.xml
- pspatm : Reading pseudopotential header in XML form from ../../../Psps_for_tests/ATOMICDATA/Br.GGA_PBE-JTH.xml
 Pseudopotential format is: paw10
 basis_size (lnmax)=  4 (lmn_size=  8), orbitals=   0   0   1   1
 Spheres core radius: rc_sph= 2.20000000
 1 radial meshes are used:
  - mesh 1: r(i)=AA*[exp(BB*(i-1))-1], size= 927 , AA= 0.40483E-03 BB= 0.14169E-01
 Shapefunction is BESSEL type: shapef(r,l)=aa(1,l)*jl(q(1,l)*r)+aa(2,l)*jl(q(2,l)*r)
 Radius for shape functions =  2.02066386
 mmax=  927
 Radial grid used for partial waves is grid 1
 Radial grid used for projectors is grid 1
 Radial grid used for (t)core density is grid 1
 Radial grid used for Vloc is grid 1
 Radial grid used for pseudo valence density is grid 1
 Mesh size for Vloc has been set to  763 to avoid numerical noise.
 Compensation charge density is not taken into account in XC energy/potential
 pspatm: atomic psp has been read  and splines computed

--------------------------------------------------------------------------------

_setup2: Arith. and geom. avg. npw (full set) are    6991.448    6991.442

================================================================================

--- !BeginCycle
iteration_state: {dtset: 2, }
solver: {iscf: 17, nstep: 2500, nline: 4, wfoptalg: 10, }
tolerances: {toldfe: 1.00E-08, }
...

     iter   Etot(hartree)      deltaE(h)  residm     nres2
 ETOT  1  -163.59270003497    -1.636E+02 9.469E+00 5.636E+00
 ETOT  2  -165.26153598732    -1.669E+00 2.770E-02 2.538E+00
 ETOT  3  -165.25041441925     1.112E-02 2.711E-02 4.441E-01
 ETOT  4  -165.25121322807    -7.988E-04 6.295E-03 9.657E-02
 ETOT  5  -165.25116438404     4.884E-05 4.530E-03 7.759E-03
 ETOT  6  -165.25123749075    -7.311E-05 3.242E-03 7.107E-04
 ETOT  7  -165.25124483769    -7.347E-06 2.127E-03 2.037E-04
 ETOT  8  -165.25124819710    -3.359E-06 1.793E-03 1.790E-05
 ETOT  9  -165.25124833359    -1.365E-07 1.548E-03 3.492E-06
 ETOT 10  -165.25124839925    -6.566E-08 8.340E-04 1.239E-06
 ETOT 11  -165.25124839931    -6.506E-11 7.441E-04 2.696E-07
 ETOT 12  -165.25124840017    -8.604E-10 5.523E-04 2.168E-08

 At SCF step   12, etot is converged : 
  for the second time, diff in etot=  8.604E-10 < toldfe=  1.000E-08

 Cartesian components of stress tensor (hartree/bohr^3)
  sigma(1 1)= -8.22741358E-05  sigma(3 2)= -1.12549225E-13
  sigma(2 2)= -8.23426033E-05  sigma(3 1)=  2.15123180E-13
  sigma(3 3)= -8.22741358E-05  sigma(2 1)= -1.12548851E-13


--- !ResultsGS
iteration_state: {dtset: 2, }
comment   : Summary of ground state results
lattice_vectors:
- [  0.0000000,  10.1461839,  10.6166591, ]
- [ 10.6166591,   0.0000000,  10.6166591, ]
- [ 10.6166591,  10.1461839,   0.0000000, ]
lattice_lengths: [  14.68532,   15.01422,   14.68532, ]
lattice_angles: [ 59.256,  61.487,  59.256, ] # degrees, (23, 13, 12)
lattice_volume:   2.2872228E+03
convergence: {deltae: -8.604E-10, res2:  2.168E-08, residm:  5.523E-04, diffor: null, }
etotal    :  -1.65251248E+02
entropy   :   0.00000000E+00
fermie    :  -9.30039087E-02
cartesian_stress_tensor: # hartree/bohr^3
- [ -8.22741358E-05,  -1.12548851E-13,   2.15123180E-13, ]
- [ -1.12548851E-13,  -8.23426033E-05,  -1.12549225E-13, ]
- [  2.15123180E-13,  -1.12549225E-13,  -8.22741358E-05, ]
pressure_GPa:   2.4213E+00
xred      :
- [  2.5000E-01,   2.5000E-01,   2.5000E-01, Cs]
- [  7.5000E-01,   7.5000E-01,   7.5000E-01, Cs]
- [  7.5909E-01,   2.4091E-01,   7.5909E-01, Br]
- [  2.5274E-01,   2.5274E-01,   7.4726E-01,  I]
- [  7.4726E-01,   7.4726E-01,   2.5274E-01,  I]
- [  2.4091E-01,   7.5909E-01,   2.4091E-01, Br]
- [  2.5274E-01,   7.4726E-01,   7.4726E-01,  I]
- [  7.4726E-01,   2.5274E-01,   2.5274E-01,  I]
- [ -6.2899E-23,   6.6217E-23,   1.8947E-22, Hf]
cartesian_forces: # hartree/bohr
- [  1.12937637E-21,  -4.56090214E-22,   4.70851227E-22, ]
- [  1.12937718E-21,  -4.56088492E-22,   4.70849810E-22, ]
- [  1.11492106E-21,  -5.62889563E-07,   4.85306379E-22, ]
- [  4.01891935E-16,  -4.20527376E-16,   2.99868814E-05, ]
- [ -4.01893065E-16,   4.20529852E-16,  -2.99868814E-05, ]
- [  1.14383346E-21,   5.62889563E-07,   4.56393983E-22, ]
- [ -2.99868814E-05,   4.20532524E-16,  -4.01896276E-16, ]
- [  2.99868814E-05,  -4.20532719E-16,   4.01896383E-16, ]
- [  1.12937726E-21,  -4.56090055E-22,   4.70850181E-22, ]
force_length_stats: {min:   1.30583654E-21, max:   2.99868814E-05, mean:   1.34525894E-05, }
...

 Integrated electronic density in atomic spheres:
 ------------------------------------------------
 Atom  Sphere_radius  Integrated_density
    1        2.20660          5.36868821
    2        2.20660          5.36868821
    3        2.20000          4.94425574
    4        2.30022          4.03037483
    5        2.30022          4.03037483
    6        2.20000          4.94425574
    7        2.30022          4.03037483
    8        2.30022          4.03037483
    9        2.41000          9.30924726

 PAW TEST:
 ==== Compensation charge inside spheres ============
 The following values must be close to each other ...
[...]
                       8.3311116126E+00  5.3248040540E+00  5.5821794091E+00
                       2.8332472054E+00  5.3248040540E+00  5.5821794089E+00
                       7.5184642657E-22 -9.5597284336E-22 -2.4902752799E-21
           xangst10    2.7883157941E+00  2.6596343149E+00  2.7883157941E+00
                       8.3649473823E+00  7.9789029448E+00  8.3649473823E+00
                       5.5766315882E+00  8.0552152394E+00  5.5766315882E+00
                       5.5766315882E+00  5.3192686299E+00  2.8322358378E+00
                       5.5766315882E+00  5.3192686299E+00  8.3210273386E+00
                       5.5766315882E+00  2.5833220203E+00  5.5766315882E+00
                       8.3210273386E+00  5.3192686299E+00  5.5766315882E+00
                       2.8322358378E+00  5.3192686299E+00  5.5766315882E+00
                       1.8201961975E-21 -5.3343350845E-21 -1.2906164215E-21
            xcart1     5.3128688103E+00  5.0796658983E+00  5.3128688103E+00
                       1.5938606431E+01  1.5238997695E+01  1.5938606431E+01
                       1.0625737621E+01  1.5429029842E+01  1.0625737621E+01
                       1.0625737621E+01  1.0159331797E+01  5.3681208370E+00
                       1.0625737621E+01  1.0159331797E+01  1.5883354404E+01
                       1.0625737621E+01  4.8896337515E+00  1.0625737621E+01
                       1.5883354404E+01  1.0159331797E+01  1.0625737621E+01
                       5.3681208370E+00  1.0159331797E+01  1.0625737621E+01
                       0.0000000000E+00  0.0000000000E+00  0.0000000000E+00
            xcart2     5.3083295740E+00  5.0730919566E+00  5.3083295740E+00
                       1.5924988722E+01  1.5219275870E+01  1.5924988722E+01
                       1.0616659148E+01  1.5403694773E+01  1.0616659148E+01
                       1.0616659148E+01  1.0146183913E+01  5.3664632338E+00
                       1.0616659148E+01  1.0146183913E+01  1.5866855062E+01
                       1.0616659148E+01  4.8886730532E+00  1.0616659148E+01
                       1.5866855062E+01  1.0146183913E+01  1.0616659148E+01
                       5.3664632338E+00  1.0146183913E+01  1.0616659148E+01
                       2.7145782055E-21  1.2842565435E-21  3.5226352607E-23
            xcart3     5.3036612229E+00  5.0667653584E+00  5.3036612229E+00
                       1.5910983669E+01  1.5200296075E+01  1.5910983669E+01
                       1.0607322446E+01  1.5379267295E+01  1.0607322446E+01
                       1.0607322446E+01  1.0133530717E+01  5.3647945195E+00
                       1.0607322446E+01  1.0133530717E+01  1.5849850372E+01
                       1.0607322446E+01  4.8877941385E+00  1.0607322446E+01
                       1.5849850372E+01  1.0133530717E+01  1.0607322446E+01
                       5.3647945195E+00  1.0133530717E+01  1.0607322446E+01
                       0.0000000000E+00  0.0000000000E+00  0.0000000000E+00
            xcart4     5.2987954042E+00  5.0608163948E+00  5.2987954042E+00
                       1.5896386213E+01  1.5182449184E+01  1.5896386213E+01
                       1.0597590808E+01  1.5356316427E+01  1.0597590808E+01
                       1.0597590808E+01  1.0121632790E+01  5.3630180908E+00
                       1.0597590809E+01  1.0121632790E+01  1.5832163526E+01
                       1.0597590809E+01  4.8869491519E+00  1.0597590809E+01
                       1.5832163526E+01  1.0121632790E+01  1.0597590809E+01
                       5.3630180908E+00  1.0121632790E+01  1.0597590808E+01
                       4.0595864706E-22 -4.1769454633E-21  3.9787561424E-22
            xcart5     5.2942772343E+00  5.0542038201E+00  5.2942772343E+00
                       1.5882831703E+01  1.5162611460E+01  1.5882831703E+01
                       1.0588554469E+01  1.5330762781E+01  1.0588554469E+01
                       1.0588554469E+01  1.0108407640E+01  5.3613819058E+00
                       1.0588554469E+01  1.0108407640E+01  1.5815727032E+01
                       1.0588554469E+01  4.8860524993E+00  1.0588554469E+01
                       1.5815727032E+01  1.0108407640E+01  1.0588554469E+01
                       5.3613819058E+00  1.0108407640E+01  1.0588554469E+01
                      -2.0846126864E-21  4.6671129220E-21  3.3975297689E-22
            xcart6     5.2892036956E+00  5.0486519974E+00  5.2892036956E+00
                       1.5867611087E+01  1.5145955992E+01  1.5867611087E+01
                       1.0578407391E+01  1.5309288589E+01  1.0578407391E+01
                       1.0578407391E+01  1.0097303995E+01  5.3595408531E+00
                       1.0578407391E+01  1.0097303995E+01  1.5797273929E+01
                       1.0578407391E+01  4.8853194002E+00  1.0578407391E+01
                       1.5797273929E+01  1.0097303995E+01  1.0578407391E+01
                       5.3595408531E+00  1.0097303995E+01  1.0578407391E+01
                      -2.1526017481E-21 -1.5517368310E-21  1.6422969151E-21
            xcart7     5.2845225835E+00  5.0423512720E+00  5.2845225835E+00
                       1.5853567750E+01  1.5127053816E+01  1.5853567750E+01
                       1.0569045167E+01  1.5284906757E+01  1.0569045167E+01
                       1.0569045167E+01  1.0084702544E+01  5.3577743253E+00
                       1.0569045167E+01  1.0084702544E+01  1.5780316008E+01
                       1.0569045167E+01  4.8844983316E+00  1.0569045167E+01
                       1.5780316008E+01  1.0084702544E+01  1.0569045167E+01
                       5.3577743253E+00  1.0084702544E+01  1.0569045167E+01
                       2.3992518178E-21 -1.1559874401E-21 -4.1815438973E-22
            xcart8     5.2792110228E+00  5.0372538829E+00  5.2792110228E+00
                       1.5837633068E+01  1.5111761649E+01  1.5837633068E+01
                       1.0558422046E+01  1.5265424992E+01  1.0558422046E+01
                       1.0558422046E+01  1.0074507766E+01  5.3558673339E+00
                       1.0558422046E+01  1.0074507766E+01  1.5760976757E+01
                       1.0558422046E+01  4.8835905400E+00  1.0558422046E+01
                       1.5760976757E+01  1.0074507766E+01  1.0558422046E+01
                       5.3558673339E+00  1.0074507766E+01  1.0558422046E+01
                       1.1810539763E-20 -1.2698136546E-21 -1.1556504210E-20
            xcart9     5.2743951538E+00  5.0312106867E+00  5.2743951538E+00
                       1.5823185461E+01  1.5093632060E+01  1.5823185461E+01
                       1.0548790307E+01  1.5242122730E+01  1.0548790307E+01
                       1.0548790307E+01  1.0062421373E+01  5.3540612849E+00
                       1.0548790308E+01  1.0062421373E+01  1.5743519330E+01
                       1.0548790308E+01  4.8827200164E+00  1.0548790308E+01
                       1.5743519330E+01  1.0062421373E+01  1.0548790308E+01
                       5.3540612849E+00  1.0062421373E+01  1.0548790307E+01
                       1.4207838402E-21 -1.8065268644E-21 -4.7059382745E-21
            xcart10    5.2691532228E+00  5.0259804688E+00  5.2691532228E+00
                       1.5807459669E+01  1.5077941407E+01  1.5807459669E+01
                       1.0538306446E+01  1.5222150744E+01  1.0538306446E+01
                       1.0538306446E+01  1.0051960938E+01  5.3521500772E+00
                       1.0538306446E+01  1.0051960938E+01  1.5724462814E+01
                       1.0538306446E+01  4.8817711314E+00  1.0538306446E+01
                       1.5724462814E+01  1.0051960938E+01  1.0538306446E+01
                       5.3521500772E+00  1.0051960938E+01  1.0538306446E+01
                       3.4396723214E-21 -1.0080432411E-20 -2.4389115793E-21
             xred1     2.5000000000E-01  2.5000000000E-01  2.5000000000E-01
                       7.5000000000E-01  7.5000000000E-01  7.5000000000E-01
                       7.5935259083E-01  2.4064740917E-01  7.5935259083E-01
                       2.5259991488E-01  2.5259991488E-01  7.4740008512E-01
                       7.4740008512E-01  7.4740008512E-01  2.5259991488E-01
                       2.4064740917E-01  7.5935259083E-01  2.4064740917E-01
                       2.5259991488E-01  7.4740008512E-01  7.4740008512E-01
                       7.4740008512E-01  2.5259991488E-01  2.5259991488E-01
                       0.0000000000E+00  0.0000000000E+00  0.0000000000E+00
             xred2     2.5000000000E-01  2.5000000000E-01  2.5000000000E-01
                       7.5000000000E-01  7.5000000000E-01  7.5000000000E-01
                       7.5908809189E-01  2.4091190811E-01  7.5908809189E-01
                       2.5273785091E-01  2.5273785091E-01  7.4726214909E-01
                       7.4726214909E-01  7.4726214909E-01  2.5273785091E-01
                       2.4091190811E-01  7.5908809189E-01  2.4091190811E-01
                       2.5273785091E-01  7.4726214909E-01  7.4726214909E-01
                       7.4726214909E-01  2.5273785091E-01  2.5273785091E-01
                      -6.2898541537E-23  6.6216567682E-23  1.8947386823E-22
             xred3     2.5000000000E-01  2.5000000000E-01  2.5000000000E-01
                       7.5000000000E-01  7.5000000000E-01  7.5000000000E-01
                       7.5883064476E-01  2.4116935524E-01  7.5883064476E-01
                       2.5288165543E-01  2.5288165543E-01  7.4711834457E-01
                       7.4711834457E-01  7.4711834457E-01  2.5288165543E-01
                       2.4116935524E-01  7.5883064476E-01  2.4116935524E-01
                       2.5288165543E-01  7.4711834457E-01  7.4711834457E-01
                       7.4711834457E-01  2.5288165543E-01  2.5288165543E-01
                       0.0000000000E+00  0.0000000000E+00  0.0000000000E+00
             xred4     2.5000000000E-01  2.5000000000E-01  2.5000000000E-01
                       7.5000000000E-01  7.5000000000E-01  7.5000000000E-01
                       7.5858889304E-01  2.4141110696E-01  7.5858889304E-01
                       2.5303006069E-01  2.5303006069E-01  7.4696993931E-01
                       7.4696993931E-01  7.4696993931E-01  2.5303006069E-01
                       2.4141110696E-01  7.5858889304E-01  2.4141110696E-01
                       2.5303006069E-01  7.4696993931E-01  7.4696993931E-01
                       7.4696993931E-01  2.5303006069E-01  2.5303006069E-01
                      -2.0671889401E-22  2.4426286238E-22 -2.0595617039E-22
             xred5     2.5000000000E-01  2.5000000000E-01  2.5000000000E-01
                       7.5000000000E-01  7.5000000000E-01  7.5000000000E-01
                       7.5831739908E-01  2.4168260092E-01  7.5831739908E-01
                       2.5316873619E-01  2.5316873619E-01  7.4683126381E-01
                       7.4683126381E-01  7.4683126381E-01  2.5316873619E-01
                       2.4168260092E-01  7.5831739908E-01  2.4168260092E-01
                       2.5316873619E-01  7.4683126381E-01  7.4683126381E-01
                       7.4683126381E-01  2.5316873619E-01  2.5316873619E-01
                       3.4533350613E-22 -3.1324669219E-22  1.1637253978E-22
             xred6     2.5000000000E-01  2.5000000000E-01  2.5000000000E-01
                       7.5000000000E-01  7.5000000000E-01  7.5000000000E-01
                       7.5808793106E-01  2.4191206894E-01  7.5808793106E-01
                       2.5332456271E-01  2.5332456271E-01  7.4667543729E-01
                       7.4667543729E-01  7.4667543729E-01  2.5332456271E-01
                       2.4191206894E-01  7.5808793106E-01  2.4191206894E-01
                       2.5332456271E-01  7.4667543729E-01  7.4667543729E-01
                       7.4667543729E-01  2.5332456271E-01  2.5332456271E-01
                       1.0253087184E-22  5.2719049475E-23 -2.5620920338E-22
             xred7     2.5000000000E-01  2.5000000000E-01  2.5000000000E-01
                       7.5000000000E-01  7.5000000000E-01  7.5000000000E-01
                       7.5782635580E-01  2.4217364420E-01  7.5782635580E-01
                       2.5346539071E-01  2.5346539071E-01  7.4653460929E-01
                       7.4653460929E-01  7.4653460929E-01  2.5346539071E-01
                       2.4217364420E-01  7.5782635580E-01  2.4217364420E-01
                       2.5346539071E-01  7.4653460929E-01  7.4653460929E-01
                       7.4653460929E-01  2.5346539071E-01  2.5346539071E-01
                      -1.9059965785E-22  1.5103559288E-22  7.5971840612E-23
             xred8     2.5000000000E-01  2.5000000000E-01  2.5000000000E-01
                       7.5000000000E-01  7.5000000000E-01  7.5000000000E-01
                       7.5762634495E-01  2.4237365505E-01  7.5762634495E-01
                       2.5363010262E-01  2.5363010262E-01  7.4636989738E-01
                       7.4636989738E-01  7.4636989738E-01  2.5363010262E-01
                       2.4237365505E-01  7.5762634495E-01  2.4237365505E-01
                       2.5363010262E-01  7.4636989738E-01  7.4636989738E-01
                       7.4636989738E-01  2.5363010262E-01  2.5363010262E-01
                      -1.1695806043E-21  7.5051122569E-23  1.0435383515E-21
             xred9     2.5000000000E-01  2.5000000000E-01  2.5000000000E-01
                       7.5000000000E-01  7.5000000000E-01  7.5000000000E-01
                       7.5737847605E-01  2.4262152395E-01  7.5737847605E-01
                       2.5377607900E-01  2.5377607900E-01  7.4622392100E-01
                       7.4622392100E-01  7.4622392100E-01  2.5377607900E-01
                       2.4262152395E-01  7.5737847605E-01  2.4262152395E-01
                       2.5377607900E-01  7.4622392100E-01  7.4622392100E-01
                       7.4622392100E-01  2.5377607900E-01  2.5377607900E-01
                      -3.8016528645E-22 -6.5946365920E-23  2.0063326355E-22
             xred10    2.5000000000E-01  2.5000000000E-01  2.5000000000E-01
                       7.5000000000E-01  7.5000000000E-01  7.5000000000E-01
                       7.5717319428E-01  2.4282680572E-01  7.5717319428E-01
                       2.5393786491E-01  2.5393786491E-01  7.4606213509E-01
                       7.4606213509E-01  7.4606213509E-01  2.5393786491E-01
                       2.4282680572E-01  7.5717319428E-01  2.4282680572E-01
                       2.5393786491E-01  7.4606213509E-01  7.4606213509E-01
                       7.4606213509E-01  2.5393786491E-01  2.5393786491E-01
                      -7.8033123461E-22  5.4889826272E-22 -2.2250119512E-22
            znucl       55.00000   53.00000   72.00000   35.00000

================================================================================


- Timing analysis has been suppressed with timopt=0



================================================================================

 Suggested references for the acknowledgment of ABINIT usage.

 The users of ABINIT have little formal obligations with respect to the ABINIT group
 (those specified in the GNU General Public License, http://www.gnu.org/copyleft/gpl.txt).
 However, it is common practice in the scientific literature,
 to acknowledge the efforts of people that have made the research possible.
 In this spirit, please find below suggested citations of work written by ABINIT developers,
 corresponding to implementations inside of ABINIT that you have used in the present run.
 Note also that it will be of great value to readers of publications presenting these results,
 to read papers enabling them to understand the theoretical formalism and details
 of the ABINIT implementation.
 For information on why they are suggested, see also https://docs.abinit.org/theory/acknowledgments.
-
- [1] Implementation of the Projector Augmented-Wave Method in the ABINIT code.
- M. Torrent, F. Jollet, F. Bottin, G. Zerah, and X. Gonze Comput. Mat. Science 42, 337, (2008).
- Comment: PAW calculations. Strong suggestion to cite this paper.
- DOI and bibtex: see https://docs.abinit.org/theory/bibliography/#torrent2008
-
- [2] Libxc: A library of exchange and correlation functionals for density functional theory.
- M.A.L. Marques, M.J.T. Oliveira, T. Burnus, Computer Physics Communications 183, 2227 (2012).
- Comment: to be cited when LibXC is used (negative value of ixc)
- Strong suggestion to cite this paper.
- DOI and bibtex: see https://docs.abinit.org/theory/bibliography/#marques2012
-
- [3] The Abinit project: Impact, environment and recent developments.
- Computer Phys. Comm. 248, 107042 (2020).
- X.Gonze, B. Amadon, G. Antonius, F.Arnardi, L.Baguet, J.-M.Beuken,
- J.Bieder, F.Bottin, J.Bouchet, E.Bousquet, N.Brouwer, F.Bruneval,
- G.Brunin, T.Cavignac, J.-B. Charraud, Wei Chen, M.Cote, S.Cottenier,
- J.Denier, G.Geneste, Ph.Ghosez, M.Giantomassi, Y.Gillet, O.Gingras,
- D.R.Hamann, G.Hautier, Xu He, N.Helbig, N.Holzwarth, Y.Jia, F.Jollet,
- W.Lafargue-Dit-Hauret, K.Lejaeghere, M.A.L.Marques, A.Martin, C.Martins,
- H.P.C. Miranda, F.Naccarato, K. Persson, G.Petretto, V.Planes, Y.Pouillon,
- S.Prokhorenko, F.Ricci, G.-M.Rignanese, A.H.Romero, M.M.Schmitt, M.Torrent,
- M.J.van Setten, B.Van Troeye, M.J.Verstraete, G.Zerah and J.W.Zwanzig
- Comment: the fifth generic paper describing the ABINIT project.
- Note that a version of this paper, that is not formatted for Computer Phys. Comm. 
- is available at https://www.abinit.org/sites/default/files/ABINIT20.pdf .
- The licence allows the authors to put it on the Web.
- DOI and bibtex: see https://docs.abinit.org/theory/bibliography/#gonze2020
-
- [4] ABINIT: Overview, and focus on selected capabilities
- J. Chem. Phys. 152, 124102 (2020).
- A. Romero, D.C. Allan, B. Amadon, G. Antonius, T. Applencourt, L.Baguet,
- J.Bieder, F.Bottin, J.Bouchet, E.Bousquet, F.Bruneval,
- G.Brunin, D.Caliste, M.Cote,
- J.Denier, C. Dreyer, Ph.Ghosez, M.Giantomassi, Y.Gillet, O.Gingras,
- D.R.Hamann, G.Hautier, F.Jollet, G. Jomard,
- A.Martin, 
- H.P.C. Miranda, F.Naccarato, G.Petretto, N.A. Pike, V.Planes,
- S.Prokhorenko, T. Rangel, F.Ricci, G.-M.Rignanese, M.Royo, M.Stengel, M.Torrent,
- M.J.van Setten, B.Van Troeye, M.J.Verstraete, J.Wiktor, J.W.Zwanziger, and X.Gonze.
- Comment: a global overview of ABINIT, with focus on selected capabilities .
- Note that a version of this paper, that is not formatted for J. Chem. Phys 
- is available at https://www.abinit.org/sites/default/files/ABINIT20_JPC.pdf .
- The licence allows the authors to put it on the Web.
- DOI and bibtex: see https://docs.abinit.org/theory/bibliography/#romero2020
-
- [5] Recent developments in the ABINIT software package.
- Computer Phys. Comm. 205, 106 (2016).
- X.Gonze, F.Jollet, F.Abreu Araujo, D.Adams, B.Amadon, T.Applencourt,
- C.Audouze, J.-M.Beuken, J.Bieder, A.Bokhanchuk, E.Bousquet, F.Bruneval
- D.Caliste, M.Cote, F.Dahm, F.Da Pieve, M.Delaveau, M.Di Gennaro,
- B.Dorado, C.Espejo, G.Geneste, L.Genovese, A.Gerossier, M.Giantomassi,
- Y.Gillet, D.R.Hamann, L.He, G.Jomard, J.Laflamme Janssen, S.Le Roux,
- A.Levitt, A.Lherbier, F.Liu, I.Lukacevic, A.Martin, C.Martins,
- M.J.T.Oliveira, S.Ponce, Y.Pouillon, T.Rangel, G.-M.Rignanese,
- A.H.Romero, B.Rousseau, O.Rubel, A.A.Shukri, M.Stankovski, M.Torrent,
- M.J.Van Setten, B.Van Troeye, M.J.Verstraete, D.Waroquier, J.Wiktor,
- B.Xu, A.Zhou, J.W.Zwanziger.
- Comment: the fourth generic paper describing the ABINIT project.
- Note that a version of this paper, that is not formatted for Computer Phys. Comm. 
- is available at https://www.abinit.org/sites/default/files/ABINIT16.pdf .
- The licence allows the authors to put it on the Web.
- DOI and bibtex: see https://docs.abinit.org/theory/bibliography/#gonze2016
-
- Proc.   0 individual time (sec): cpu=       6907.8  wall=       6908.0

================================================================================

 Calculation completed.
.Delivered   0 WARNINGs and   3 COMMENTs to log file.
+Overall time at end (sec) : cpu=      41447.4  wall=      41448.0
