
.Version 9.2.2 of ABINIT 
.(MPI version, prepared for a x86_64_linux_gnu9.3 computer) 

.Copyright (C) 1998-2020 ABINIT group . 
 ABINIT comes with ABSOLUTELY NO WARRANTY.
 It is free software, and you are welcome to redistribute it
 under certain conditions (GNU General Public License,
 see ~abinit/COPYING or http://www.gnu.org/copyleft/gpl.txt).

 ABINIT is a project of the Universite Catholique de Louvain,
 Corning Inc. and other collaborators, see ~abinit/doc/developers/contributors.txt .
 Please read https://docs.abinit.org/theory/acknowledgments for suggested
 acknowledgments of the ABINIT effort.
 For more information, see https://www.abinit.org .

.Starting date : Sat 19 Nov 2022.
- ( at 20h53 )
  
- input  file    -> Cs2TiI6.in
- output file    -> Cs2TiI6.out
- root for input  files -> Cs2TiI6i
- root for output files -> Cs2TiI6o

- inpspheads : Reading pseudopotential header in XML form from 
-   ../../../Psps_for_tests/ATOMICDATA/Cs.GGA_PBE-JTH.xml
- inpspheads : Reading pseudopotential header in XML form from 
-   ../../../Psps_for_tests/ATOMICDATA/I.GGA_PBE-JTH.xml
- inpspheads : Reading pseudopotential header in XML form from 
-   ../../../Psps_for_tests/ATOMICDATA/Hf.GGA_PBE-JTH.xml

 DATASET    1 : space group Fm -3 m (#225); Bravais cF (face-center cubic)
================================================================================
 Values of the parameters that define the memory need for DATASET  1.
     intxc =       0    ionmov =       2      iscf =      17    lmnmax =      18
     lnmax =       6     mgfft =      64  mpssoang =       3    mqgrid =    4028
     natom =       9  nloc_mem =       2    nspden =       1   nspinor =       1
    nsppol =       1      nsym =      48    n1xccc =       1    ntypat =       3
    occopt =       1   xclevel =       2
-    mband =          42        mffmem =           1         mkmem =           2
       mpw =       11268          nfft =      262144          nkpt =          10
Pmy_natom=         2
 PAW method is used; the additional fine FFT grid is defined by:
   mgfftf=       100    nfftf =   1000000
================================================================================
P This job should need less than                     314.493 Mbytes of memory.
  Rough estimation (10% accuracy) of disk space for files :
_ WF disk file :     72.215 Mbytes ; DEN or POT disk file :      7.631 Mbytes.
================================================================================


 DATASET    2 : space group Fm -3 m (#225); Bravais cF (face-center cubic)
================================================================================
 Values of the parameters that define the memory need for DATASET  2.
     intxc =       0    ionmov =       2      iscf =      17    lmnmax =      18
     lnmax =       6     mgfft =      64  mpssoang =       3    mqgrid =    4024
     natom =       9  nloc_mem =       2    nspden =       1   nspinor =       1
    nsppol =       1      nsym =      48    n1xccc =       1    ntypat =       3
    occopt =       1   xclevel =       2
-    mband =          42        mffmem =           1         mkmem =           2
       mpw =       11227          nfft =      262144          nkpt =          10
Pmy_natom=         2
 PAW method is used; the additional fine FFT grid is defined by:
   mgfftf=       100    nfftf =   1000000
================================================================================
P This job should need less than                     314.504 Mbytes of memory.
  Rough estimation (10% accuracy) of disk space for files :
_ WF disk file :     71.952 Mbytes ; DEN or POT disk file :      7.631 Mbytes.
================================================================================


 DATASET    3 : space group Fm -3 m (#225); Bravais cF (face-center cubic)
================================================================================
 Values of the parameters that define the memory need for DATASET  3.
     intxc =       0    ionmov =       2      iscf =      17    lmnmax =      18
     lnmax =       6     mgfft =      64  mpssoang =       3    mqgrid =    4020
     natom =       9  nloc_mem =       2    nspden =       1   nspinor =       1
    nsppol =       1      nsym =      48    n1xccc =       1    ntypat =       3
    occopt =       1   xclevel =       2
-    mband =          42        mffmem =           1         mkmem =           2
       mpw =       11191          nfft =      262144          nkpt =          10
Pmy_natom=         2
 PAW method is used; the additional fine FFT grid is defined by:
   mgfftf=       100    nfftf =   1000000
================================================================================
P This job should need less than                     314.523 Mbytes of memory.
  Rough estimation (10% accuracy) of disk space for files :
_ WF disk file :     71.722 Mbytes ; DEN or POT disk file :      7.631 Mbytes.
================================================================================


 DATASET    4 : space group Fm -3 m (#225); Bravais cF (face-center cubic)
================================================================================
 Values of the parameters that define the memory need for DATASET  4.
     intxc =       0    ionmov =       2      iscf =      17    lmnmax =      18
     lnmax =       6     mgfft =      64  mpssoang =       3    mqgrid =    4015
     natom =       9  nloc_mem =       2    nspden =       1   nspinor =       1
    nsppol =       1      nsym =      48    n1xccc =       1    ntypat =       3
    occopt =       1   xclevel =       2
-    mband =          42        mffmem =           1         mkmem =           2
       mpw =       11165          nfft =      262144          nkpt =          10
Pmy_natom=         2
 PAW method is used; the additional fine FFT grid is defined by:
   mgfftf=       100    nfftf =   1000000
================================================================================
P This job should need less than                     314.556 Mbytes of memory.
  Rough estimation (10% accuracy) of disk space for files :
_ WF disk file :     71.555 Mbytes ; DEN or POT disk file :      7.631 Mbytes.
================================================================================


 DATASET    5 : space group Fm -3 m (#225); Bravais cF (face-center cubic)
================================================================================
 Values of the parameters that define the memory need for DATASET  5.
     intxc =       0    ionmov =       2      iscf =      17    lmnmax =      18
     lnmax =       6     mgfft =      64  mpssoang =       3    mqgrid =    4011
     natom =       9  nloc_mem =       2    nspden =       1   nspinor =       1
    nsppol =       1      nsym =      48    n1xccc =       1    ntypat =       3
    occopt =       1   xclevel =       2
-    mband =          42        mffmem =           1         mkmem =           2
       mpw =       11127          nfft =      262144          nkpt =          10
Pmy_natom=         2
 PAW method is used; the additional fine FFT grid is defined by:
   mgfftf=       100    nfftf =   1000000
================================================================================
P This job should need less than                     314.572 Mbytes of memory.
  Rough estimation (10% accuracy) of disk space for files :
_ WF disk file :     71.312 Mbytes ; DEN or POT disk file :      7.631 Mbytes.
================================================================================


 DATASET    6 : space group Fm -3 m (#225); Bravais cF (face-center cubic)
================================================================================
 Values of the parameters that define the memory need for DATASET  6.
     intxc =       0    ionmov =       2      iscf =      17    lmnmax =      18
     lnmax =       6     mgfft =      64  mpssoang =       3    mqgrid =    4007
     natom =       9  nloc_mem =       2    nspden =       1   nspinor =       1
    nsppol =       1      nsym =      48    n1xccc =       1    ntypat =       3
    occopt =       1   xclevel =       2
-    mband =          42        mffmem =           1         mkmem =           2
       mpw =       11093          nfft =      262144          nkpt =          10
Pmy_natom=         2
 PAW method is used; the additional fine FFT grid is defined by:
   mgfftf=       100    nfftf =   1000000
================================================================================
P This job should need less than                     314.593 Mbytes of memory.
  Rough estimation (10% accuracy) of disk space for files :
_ WF disk file :     71.094 Mbytes ; DEN or POT disk file :      7.631 Mbytes.
================================================================================


 DATASET    7 : space group Fm -3 m (#225); Bravais cF (face-center cubic)
================================================================================
 Values of the parameters that define the memory need for DATASET  7.
     intxc =       0    ionmov =       2      iscf =      17    lmnmax =      18
     lnmax =       6     mgfft =      64  mpssoang =       3    mqgrid =    4003
     natom =       9  nloc_mem =       2    nspden =       1   nspinor =       1
    nsppol =       1      nsym =      48    n1xccc =       1    ntypat =       3
    occopt =       1   xclevel =       2
-    mband =          42        mffmem =           1         mkmem =           2
       mpw =       11054          nfft =      262144          nkpt =          10
Pmy_natom=         2
 PAW method is used; the additional fine FFT grid is defined by:
   mgfftf=       100    nfftf =   1000000
================================================================================
P This job should need less than                     314.609 Mbytes of memory.
  Rough estimation (10% accuracy) of disk space for files :
_ WF disk file :     70.844 Mbytes ; DEN or POT disk file :      7.631 Mbytes.
================================================================================


 DATASET    8 : space group Fm -3 m (#225); Bravais cF (face-center cubic)
================================================================================
 Values of the parameters that define the memory need for DATASET  8.
     intxc =       0    ionmov =       2      iscf =      17    lmnmax =      18
     lnmax =       6     mgfft =      64  mpssoang =       3    mqgrid =    3998
     natom =       9  nloc_mem =       2    nspden =       1   nspinor =       1
    nsppol =       1      nsym =      48    n1xccc =       1    ntypat =       3
    occopt =       1   xclevel =       2
-    mband =          42        mffmem =           1         mkmem =           2
       mpw =       11016          nfft =      262144          nkpt =          10
Pmy_natom=         2
 PAW method is used; the additional fine FFT grid is defined by:
   mgfftf=       100    nfftf =   1000000
================================================================================
P This job should need less than                     314.626 Mbytes of memory.
  Rough estimation (10% accuracy) of disk space for files :
_ WF disk file :     70.600 Mbytes ; DEN or POT disk file :      7.631 Mbytes.
================================================================================


 DATASET    9 : space group Fm -3 m (#225); Bravais cF (face-center cubic)
================================================================================
 Values of the parameters that define the memory need for DATASET  9.
     intxc =       0    ionmov =       2      iscf =      17    lmnmax =      18
     lnmax =       6     mgfft =      64  mpssoang =       3    mqgrid =    3994
     natom =       9  nloc_mem =       2    nspden =       1   nspinor =       1
    nsppol =       1      nsym =      48    n1xccc =       1    ntypat =       3
    occopt =       1   xclevel =       2
-    mband =          42        mffmem =           1         mkmem =           2
       mpw =       10981          nfft =      262144          nkpt =          10
Pmy_natom=         2
 PAW method is used; the additional fine FFT grid is defined by:
   mgfftf=       100    nfftf =   1000000
================================================================================
P This job should need less than                     314.648 Mbytes of memory.
  Rough estimation (10% accuracy) of disk space for files :
_ WF disk file :     70.376 Mbytes ; DEN or POT disk file :      7.631 Mbytes.
================================================================================

--------------------------------------------------------------------------------
------------- Echo of variables that govern the present computation ------------
--------------------------------------------------------------------------------
-
- outvars: echo of selected default values                                      
-   iomode0 =  0 , fftalg0 =112 , wfoptalg0 = 10
-
- outvars: echo of global parameters not present in the input file              
-  max_nthreads =    0
-
 -outvars: echo values of preprocessed input variables --------
            acell1     1.5066878342E+01  1.5066878342E+01  1.5066878342E+01 Bohr
            acell2     1.5050832678E+01  1.5050832678E+01  1.5050832678E+01 Bohr
            acell3     1.5034787014E+01  1.5034787014E+01  1.5034787014E+01 Bohr
            acell4     1.5018741350E+01  1.5018741350E+01  1.5018741350E+01 Bohr
            acell5     1.5002695687E+01  1.5002695687E+01  1.5002695687E+01 Bohr
            acell6     1.4986650023E+01  1.4986650023E+01  1.4986650023E+01 Bohr
            acell7     1.4970604359E+01  1.4970604359E+01  1.4970604359E+01 Bohr
            acell8     1.4954558695E+01  1.4954558695E+01  1.4954558695E+01 Bohr
            acell9     1.4938513031E+01  1.4938513031E+01  1.4938513031E+01 Bohr
              amu      1.32905430E+02  1.26904470E+02  1.78490000E+02
           diemac      1.20000000E+01
          dilatmx      1.15000000E+00
             ecut      1.60000000E+01 Hartree
           ecutsm      5.00000000E-01 Hartree
-          fftalg         112
           ionmov           2
              ixc     -101130
           jdtset        1    2    3    4    5    6    7    8    9
              kpt     -1.25000000E-01 -2.50000000E-01  0.00000000E+00
                      -1.25000000E-01  5.00000000E-01  0.00000000E+00
                      -2.50000000E-01 -3.75000000E-01  0.00000000E+00
                      -1.25000000E-01 -3.75000000E-01  1.25000000E-01
                      -1.25000000E-01  2.50000000E-01  0.00000000E+00
                      -2.50000000E-01  3.75000000E-01  0.00000000E+00
                      -3.75000000E-01  5.00000000E-01  0.00000000E+00
                      -2.50000000E-01  5.00000000E-01  1.25000000E-01
                      -1.25000000E-01  0.00000000E+00  0.00000000E+00
                      -3.75000000E-01  0.00000000E+00  0.00000000E+00
         kptrlatt        4   -4    4     -4    4    4     -4   -4    4
          kptrlen1     8.52311348E+01
          kptrlen2     8.51403668E+01
          kptrlen3     8.50495988E+01
          kptrlen4     8.49588308E+01
          kptrlen5     8.48680628E+01
          kptrlen6     8.47772949E+01
          kptrlen7     8.46865269E+01
          kptrlen8     8.45957589E+01
          kptrlen9     8.45049909E+01
P           mkmem           2
            natom           9
            nband          42
           ndtset           9
            ngfft          64      64      64
          ngfftdg         100     100     100
             nkpt          10
            nstep        2500
             nsym          48
            ntime        1000
           ntypat           3
              occ      2.000000  2.000000  2.000000  2.000000  2.000000  2.000000
                       2.000000  2.000000  2.000000  2.000000  2.000000  2.000000
                       2.000000  2.000000  2.000000  2.000000  2.000000  2.000000
                       2.000000  2.000000  2.000000  2.000000  2.000000  2.000000
                       2.000000  2.000000  2.000000  2.000000  2.000000  2.000000
                       2.000000  2.000000  2.000000  2.000000  2.000000  2.000000
                       0.000000  0.000000  0.000000  0.000000  0.000000  0.000000
        optforces           1
        pawecutdg      4.00000000E+01 Hartree
            prtwf           0
            rprim      0.0000000000E+00  7.0710678119E-01  7.0710678119E-01
                       7.0710678119E-01  0.0000000000E+00  7.0710678119E-01
                       7.0710678119E-01  7.0710678119E-01  0.0000000000E+00
           shiftk      5.00000000E-01  5.00000000E-01  5.00000000E-01
          spgroup         225
           symrel      1  0  0   0  1  0   0  0  1      -1  0  0   0 -1  0   0  0 -1
                       0 -1  1   0 -1  0   1 -1  0       0  1 -1   0  1  0  -1  1  0
                      -1  0  0  -1  0  1  -1  1  0       1  0  0   1  0 -1   1 -1  0
                       0  1 -1   1  0 -1   0  0 -1       0 -1  1  -1  0  1   0  0  1
                      -1  0  0  -1  1  0  -1  0  1       1  0  0   1 -1  0   1  0 -1
                       0 -1  1   1 -1  0   0 -1  0       0  1 -1  -1  1  0   0  1  0
                       1  0  0   0  0  1   0  1  0      -1  0  0   0  0 -1   0 -1  0
                       0  1 -1   0  0 -1   1  0 -1       0 -1  1   0  0  1  -1  0  1
                      -1  0  1  -1  1  0  -1  0  0       1  0 -1   1 -1  0   1  0  0
                       0 -1  0   1 -1  0   0 -1  1       0  1  0  -1  1  0   0  1 -1
                       1  0 -1   0  0 -1   0  1 -1      -1  0  1   0  0  1   0 -1  1
                       0  1  0   0  0  1   1  0  0       0 -1  0   0  0 -1  -1  0  0
                       1  0 -1   0  1 -1   0  0 -1      -1  0  1   0 -1  1   0  0  1
                       0 -1  0   0 -1  1   1 -1  0       0  1  0   0  1 -1  -1  1  0
                      -1  0  1  -1  0  0  -1  1  0       1  0 -1   1  0  0   1 -1  0
                       0  1  0   1  0  0   0  0  1       0 -1  0  -1  0  0   0  0 -1
                       0  0 -1   0  1 -1   1  0 -1       0  0  1   0 -1  1  -1  0  1
                       1 -1  0   0 -1  1   0 -1  0      -1  1  0   0  1 -1   0  1  0
                       0  0  1   1  0  0   0  1  0       0  0 -1  -1  0  0   0 -1  0
                      -1  1  0  -1  0  0  -1  0  1       1 -1  0   1  0  0   1  0 -1
                       0  0  1   0  1  0   1  0  0       0  0 -1   0 -1  0  -1  0  0
                       1 -1  0   0 -1  0   0 -1  1      -1  1  0   0  1  0   0  1 -1
                       0  0 -1   1  0 -1   0  1 -1       0  0  1  -1  0  1   0 -1  1
                      -1  1  0  -1  0  1  -1  0  0       1 -1  0   1  0 -1   1  0  0
           toldff      1.00000000E-08
           tolmxf      1.00000000E-05
            typat      1  1  2  2  2  2  2  2  3
           useylm           1
              wtk        0.09375    0.09375    0.09375    0.18750    0.09375    0.09375
                         0.09375    0.18750    0.03125    0.03125
           xangst1     2.8188983741E+00  2.8188983741E+00  2.8188983741E+00
                       8.4566951223E+00  8.4566951223E+00  8.4566951223E+00
                       5.6377967482E+00  8.4507679924E+00  5.6377967482E+00
                       5.6377967482E+00  5.6377967482E+00  2.8248255040E+00
                       5.6377967482E+00  5.6377967482E+00  8.4507679924E+00
                       5.6377967482E+00  2.8248255040E+00  5.6377967482E+00
                       8.4507679924E+00  5.6377967482E+00  5.6377967482E+00
                       2.8248255040E+00  5.6377967482E+00  5.6377967482E+00
                       0.0000000000E+00  0.0000000000E+00  0.0000000000E+00
           xangst2     2.8158963524E+00  2.8158963524E+00  2.8158963524E+00
                       8.4476890572E+00  8.4476890572E+00  8.4476890572E+00
                       5.6317927048E+00  8.4417682395E+00  5.6317927048E+00
                       5.6317927048E+00  5.6317927048E+00  2.8218171702E+00
                       5.6317927048E+00  5.6317927048E+00  8.4417682395E+00
                       5.6317927048E+00  2.8218171702E+00  5.6317927048E+00
                       8.4417682395E+00  5.6317927048E+00  5.6317927048E+00
                       2.8218171702E+00  5.6317927048E+00  5.6317927048E+00
                       0.0000000000E+00  0.0000000000E+00  0.0000000000E+00
           xangst3     2.8128943307E+00  2.8128943307E+00  2.8128943307E+00
                       8.4386829921E+00  8.4386829921E+00  8.4386829921E+00
                       5.6257886614E+00  8.4327684865E+00  5.6257886614E+00
                       5.6257886614E+00  5.6257886614E+00  2.8188088363E+00
                       5.6257886614E+00  5.6257886614E+00  8.4327684865E+00
                       5.6257886614E+00  2.8188088363E+00  5.6257886614E+00
                       8.4327684865E+00  5.6257886614E+00  5.6257886614E+00
                       2.8188088363E+00  5.6257886614E+00  5.6257886614E+00
                       0.0000000000E+00  0.0000000000E+00  0.0000000000E+00
           xangst4     2.8098923090E+00  2.8098923090E+00  2.8098923090E+00
                       8.4296769270E+00  8.4296769270E+00  8.4296769270E+00
                       5.6197846180E+00  8.4237687336E+00  5.6197846180E+00
                       5.6197846180E+00  5.6197846180E+00  2.8158005024E+00
                       5.6197846180E+00  5.6197846180E+00  8.4237687336E+00
                       5.6197846180E+00  2.8158005024E+00  5.6197846180E+00
                       8.4237687336E+00  5.6197846180E+00  5.6197846180E+00
                       2.8158005024E+00  5.6197846180E+00  5.6197846180E+00
                       0.0000000000E+00  0.0000000000E+00  0.0000000000E+00
           xangst5     2.8068902873E+00  2.8068902873E+00  2.8068902873E+00
                       8.4206708619E+00  8.4206708619E+00  8.4206708619E+00
                       5.6137805746E+00  8.4147689807E+00  5.6137805746E+00
                       5.6137805746E+00  5.6137805746E+00  2.8127921686E+00
                       5.6137805746E+00  5.6137805746E+00  8.4147689807E+00
                       5.6137805746E+00  2.8127921686E+00  5.6137805746E+00
                       8.4147689807E+00  5.6137805746E+00  5.6137805746E+00
                       2.8127921686E+00  5.6137805746E+00  5.6137805746E+00
                       0.0000000000E+00  0.0000000000E+00  0.0000000000E+00
           xangst6     2.8038882656E+00  2.8038882656E+00  2.8038882656E+00
                       8.4116647969E+00  8.4116647969E+00  8.4116647969E+00
                       5.6077765312E+00  8.4057692278E+00  5.6077765312E+00
                       5.6077765312E+00  5.6077765312E+00  2.8097838347E+00
                       5.6077765312E+00  5.6077765312E+00  8.4057692278E+00
                       5.6077765312E+00  2.8097838347E+00  5.6077765312E+00
                       8.4057692278E+00  5.6077765312E+00  5.6077765312E+00
                       2.8097838347E+00  5.6077765312E+00  5.6077765312E+00
                       0.0000000000E+00  0.0000000000E+00  0.0000000000E+00
           xangst7     2.8008862439E+00  2.8008862439E+00  2.8008862439E+00
                       8.4026587318E+00  8.4026587318E+00  8.4026587318E+00
                       5.6017724878E+00  8.3967694749E+00  5.6017724878E+00
                       5.6017724878E+00  5.6017724878E+00  2.8067755008E+00
                       5.6017724878E+00  5.6017724878E+00  8.3967694749E+00
                       5.6017724878E+00  2.8067755008E+00  5.6017724878E+00
                       8.3967694749E+00  5.6017724878E+00  5.6017724878E+00
                       2.8067755008E+00  5.6017724878E+00  5.6017724878E+00
                       0.0000000000E+00  0.0000000000E+00  0.0000000000E+00
           xangst8     2.7978842222E+00  2.7978842222E+00  2.7978842222E+00
                       8.3936526667E+00  8.3936526667E+00  8.3936526667E+00
                       5.5957684444E+00  8.3877697219E+00  5.5957684444E+00
                       5.5957684444E+00  5.5957684444E+00  2.8037671670E+00
                       5.5957684444E+00  5.5957684444E+00  8.3877697219E+00
                       5.5957684444E+00  2.8037671670E+00  5.5957684444E+00
                       8.3877697219E+00  5.5957684444E+00  5.5957684444E+00
                       2.8037671670E+00  5.5957684444E+00  5.5957684444E+00
                       0.0000000000E+00  0.0000000000E+00  0.0000000000E+00
           xangst9     2.7948822005E+00  2.7948822005E+00  2.7948822005E+00
                       8.3846466016E+00  8.3846466016E+00  8.3846466016E+00
                       5.5897644011E+00  8.3787699690E+00  5.5897644011E+00
                       5.5897644011E+00  5.5897644011E+00  2.8007588331E+00
                       5.5897644011E+00  5.5897644011E+00  8.3787699690E+00
                       5.5897644011E+00  2.8007588331E+00  5.5897644011E+00
                       8.3787699690E+00  5.5897644011E+00  5.5897644011E+00
                       2.8007588331E+00  5.5897644011E+00  5.5897644011E+00
                       0.0000000000E+00  0.0000000000E+00  0.0000000000E+00
            xcart1     5.3269459235E+00  5.3269459235E+00  5.3269459235E+00
                       1.5980837770E+01  1.5980837770E+01  1.5980837770E+01
                       1.0653891847E+01  1.5969637118E+01  1.0653891847E+01
                       1.0653891847E+01  1.0653891847E+01  5.3381465758E+00
                       1.0653891847E+01  1.0653891847E+01  1.5969637118E+01
                       1.0653891847E+01  5.3381465758E+00  1.0653891847E+01
                       1.5969637118E+01  1.0653891847E+01  1.0653891847E+01
                       5.3381465758E+00  1.0653891847E+01  1.0653891847E+01
                       0.0000000000E+00  0.0000000000E+00  0.0000000000E+00
            xcart2     5.3212729246E+00  5.3212729246E+00  5.3212729246E+00
                       1.5963818774E+01  1.5963818774E+01  1.5963818774E+01
                       1.0642545849E+01  1.5952630050E+01  1.0642545849E+01
                       1.0642545849E+01  1.0642545849E+01  5.3324616487E+00
                       1.0642545849E+01  1.0642545849E+01  1.5952630050E+01
                       1.0642545849E+01  5.3324616487E+00  1.0642545849E+01
                       1.5952630050E+01  1.0642545849E+01  1.0642545849E+01
                       5.3324616487E+00  1.0642545849E+01  1.0642545849E+01
                       0.0000000000E+00  0.0000000000E+00  0.0000000000E+00
            xcart3     5.3155999258E+00  5.3155999258E+00  5.3155999258E+00
                       1.5946799777E+01  1.5946799777E+01  1.5946799777E+01
                       1.0631199852E+01  1.5935622982E+01  1.0631199852E+01
                       1.0631199852E+01  1.0631199852E+01  5.3267767216E+00
                       1.0631199852E+01  1.0631199852E+01  1.5935622982E+01
                       1.0631199852E+01  5.3267767216E+00  1.0631199852E+01
                       1.5935622982E+01  1.0631199852E+01  1.0631199852E+01
                       5.3267767216E+00  1.0631199852E+01  1.0631199852E+01
                       0.0000000000E+00  0.0000000000E+00  0.0000000000E+00
            xcart4     5.3099269269E+00  5.3099269269E+00  5.3099269269E+00
                       1.5929780781E+01  1.5929780781E+01  1.5929780781E+01
                       1.0619853854E+01  1.5918615913E+01  1.0619853854E+01
                       1.0619853854E+01  1.0619853854E+01  5.3210917945E+00
                       1.0619853854E+01  1.0619853854E+01  1.5918615913E+01
                       1.0619853854E+01  5.3210917945E+00  1.0619853854E+01
                       1.5918615913E+01  1.0619853854E+01  1.0619853854E+01
                       5.3210917945E+00  1.0619853854E+01  1.0619853854E+01
                       0.0000000000E+00  0.0000000000E+00  0.0000000000E+00
            xcart5     5.3042539281E+00  5.3042539281E+00  5.3042539281E+00
                       1.5912761784E+01  1.5912761784E+01  1.5912761784E+01
                       1.0608507856E+01  1.5901608845E+01  1.0608507856E+01
                       1.0608507856E+01  1.0608507856E+01  5.3154068673E+00
                       1.0608507856E+01  1.0608507856E+01  1.5901608845E+01
                       1.0608507856E+01  5.3154068673E+00  1.0608507856E+01
                       1.5901608845E+01  1.0608507856E+01  1.0608507856E+01
                       5.3154068673E+00  1.0608507856E+01  1.0608507856E+01
                       0.0000000000E+00  0.0000000000E+00  0.0000000000E+00
            xcart6     5.2985809292E+00  5.2985809292E+00  5.2985809292E+00
                       1.5895742788E+01  1.5895742788E+01  1.5895742788E+01
                       1.0597161858E+01  1.5884601777E+01  1.0597161858E+01
                       1.0597161858E+01  1.0597161858E+01  5.3097219402E+00
                       1.0597161858E+01  1.0597161858E+01  1.5884601777E+01
                       1.0597161858E+01  5.3097219402E+00  1.0597161858E+01
                       1.5884601777E+01  1.0597161858E+01  1.0597161858E+01
                       5.3097219402E+00  1.0597161858E+01  1.0597161858E+01
                       0.0000000000E+00  0.0000000000E+00  0.0000000000E+00
            xcart7     5.2929079304E+00  5.2929079304E+00  5.2929079304E+00
                       1.5878723791E+01  1.5878723791E+01  1.5878723791E+01
                       1.0585815861E+01  1.5867594708E+01  1.0585815861E+01
                       1.0585815861E+01  1.0585815861E+01  5.3040370131E+00
                       1.0585815861E+01  1.0585815861E+01  1.5867594708E+01
                       1.0585815861E+01  5.3040370131E+00  1.0585815861E+01
                       1.5867594708E+01  1.0585815861E+01  1.0585815861E+01
                       5.3040370131E+00  1.0585815861E+01  1.0585815861E+01
                       0.0000000000E+00  0.0000000000E+00  0.0000000000E+00
            xcart8     5.2872349315E+00  5.2872349315E+00  5.2872349315E+00
                       1.5861704795E+01  1.5861704795E+01  1.5861704795E+01
                       1.0574469863E+01  1.5850587640E+01  1.0574469863E+01
                       1.0574469863E+01  1.0574469863E+01  5.2983520859E+00
                       1.0574469863E+01  1.0574469863E+01  1.5850587640E+01
                       1.0574469863E+01  5.2983520859E+00  1.0574469863E+01
                       1.5850587640E+01  1.0574469863E+01  1.0574469863E+01
                       5.2983520859E+00  1.0574469863E+01  1.0574469863E+01
                       0.0000000000E+00  0.0000000000E+00  0.0000000000E+00
            xcart9     5.2815619327E+00  5.2815619327E+00  5.2815619327E+00
                       1.5844685798E+01  1.5844685798E+01  1.5844685798E+01
                       1.0563123865E+01  1.5833580572E+01  1.0563123865E+01
                       1.0563123865E+01  1.0563123865E+01  5.2926671588E+00
                       1.0563123865E+01  1.0563123865E+01  1.5833580572E+01
                       1.0563123865E+01  5.2926671588E+00  1.0563123865E+01
                       1.5833580572E+01  1.0563123865E+01  1.0563123865E+01
                       5.2926671588E+00  1.0563123865E+01  1.0563123865E+01
                       0.0000000000E+00  0.0000000000E+00  0.0000000000E+00
             xred      2.5000000000E-01  2.5000000000E-01  2.5000000000E-01
                       7.5000000000E-01  7.5000000000E-01  7.5000000000E-01
                       7.4947433987E-01  2.5052566013E-01  7.4947433987E-01
                       2.5052566013E-01  2.5052566013E-01  7.4947433987E-01
                       7.4947433987E-01  7.4947433987E-01  2.5052566013E-01
                       2.5052566013E-01  7.4947433987E-01  2.5052566013E-01
                       2.5052566013E-01  7.4947433987E-01  7.4947433987E-01
                       7.4947433987E-01  2.5052566013E-01  2.5052566013E-01
                       0.0000000000E+00  0.0000000000E+00  0.0000000000E+00
            znucl       55.00000   53.00000   72.00000

================================================================================

 chkinp: Checking input parameters for consistency, jdtset=   1.

 chkinp: Checking input parameters for consistency, jdtset=   2.

 chkinp: Checking input parameters for consistency, jdtset=   3.

 chkinp: Checking input parameters for consistency, jdtset=   4.

 chkinp: Checking input parameters for consistency, jdtset=   5.

 chkinp: Checking input parameters for consistency, jdtset=   6.

 chkinp: Checking input parameters for consistency, jdtset=   7.

 chkinp: Checking input parameters for consistency, jdtset=   8.

 chkinp: Checking input parameters for consistency, jdtset=   9.

================================================================================
== DATASET  1 ==================================================================
-   mpi_nproc: 6, omp_nthreads: -1 (-1 if OMP is not activated)


--- !DatasetInfo
iteration_state: {dtset: 1, }
dimensions: {natom: 9, nkpt: 10, mband: 42, nsppol: 1, nspinor: 1, nspden: 1, mpw: 11268, }
cutoff_energies: {ecut:  16.0, pawecutdg:  40.0, }
electrons: {nelect:   7.20000000E+01, charge:   0.00000000E+00, occopt:   1.00000000E+00, tsmear:   1.00000000E-02, }
meta: {optdriver: 0, ionmov: 2, optcell: 0, iscf: 17, paral_kgb: 0, }
...

 Real(R)+Recip(G) space primitive vectors, cartesian coordinates (Bohr,Bohr^-1):
 R(1)=  0.0000000 10.6538918 10.6538918  G(1)= -0.0469312  0.0469312  0.0469312
 R(2)= 10.6538918  0.0000000 10.6538918  G(2)=  0.0469312 -0.0469312  0.0469312
 R(3)= 10.6538918 10.6538918  0.0000000  G(3)=  0.0469312  0.0469312 -0.0469312
 Unit cell volume ucvol=  2.4185488E+03 bohr^3
 Angles (23,13,12)=  6.00000000E+01  6.00000000E+01  6.00000000E+01 degrees

 Coarse grid specifications (used for wave-functions):

 getcut: wavevector=  0.0000  0.0000  0.0000  ngfft=  64  64  64
         ecut(hartree)=     21.160   => boxcut(ratio)=   2.05132

 Fine grid specifications (used for densities):

 getcut: wavevector=  0.0000  0.0000  0.0000  ngfft= 100 100 100
         ecut(hartree)=     52.900   => boxcut(ratio)=   2.02714

--- Pseudopotential description ------------------------------------------------
- pspini: atom type   1  psp file is ../../../Psps_for_tests/ATOMICDATA/Cs.GGA_PBE-JTH.xml
- pspatm: opening atomic psp file    ../../../Psps_for_tests/ATOMICDATA/Cs.GGA_PBE-JTH.xml
- pspatm : Reading pseudopotential header in XML form from ../../../Psps_for_tests/ATOMICDATA/Cs.GGA_PBE-JTH.xml
 Pseudopotential format is: paw10
 basis_size (lnmax)=  6 (lmn_size= 18), orbitals=   0   0   1   1   2   2
 Spheres core radius: rc_sph= 2.20660278
 1 radial meshes are used:
  - mesh 1: r(i)=AA*[exp(BB*(i-1))-1], size=1500 , AA= 0.15922E-03 BB= 0.87573E-02
 Shapefunction is SIN type: shapef(r)=[sin(pi*r/rshp)/(pi*r/rshp)]**2
 Radius for shape functions =  2.00394208
 mmax= 1500
 Radial grid used for partial waves is grid 1
 Radial grid used for projectors is grid 1
 Radial grid used for (t)core density is grid 1
 Radial grid used for Vloc is grid 1
 Radial grid used for pseudo valence density is grid 1
 Mesh size for Vloc has been set to 1341 to avoid numerical noise.
 Compensation charge density is not taken into account in XC energy/potential
 pspatm: atomic psp has been read  and splines computed

- pspini: atom type   2  psp file is ../../../Psps_for_tests/ATOMICDATA/I.GGA_PBE-JTH.xml
- pspatm: opening atomic psp file    ../../../Psps_for_tests/ATOMICDATA/I.GGA_PBE-JTH.xml
- pspatm : Reading pseudopotential header in XML form from ../../../Psps_for_tests/ATOMICDATA/I.GGA_PBE-JTH.xml
 Pseudopotential format is: paw10
 basis_size (lnmax)=  4 (lmn_size=  8), orbitals=   0   0   1   1
 Spheres core radius: rc_sph= 2.30022271
 1 radial meshes are used:
  - mesh 1: r(i)=AA*[exp(BB*(i-1))-1], size=2000 , AA= 0.12610E-03 BB= 0.66836E-02
 Shapefunction is SIN type: shapef(r)=[sin(pi*r/rshp)/(pi*r/rshp)]**2
 Radius for shape functions =  2.10879093
 mmax= 2000
 Radial grid used for partial waves is grid 1
 Radial grid used for projectors is grid 1
 Radial grid used for (t)core density is grid 1
 Radial grid used for Vloc is grid 1
 Radial grid used for pseudo valence density is grid 1
 Mesh size for Vloc has been set to 1792 to avoid numerical noise.
 Compensation charge density is not taken into account in XC energy/potential
 pspatm: atomic psp has been read  and splines computed

- pspini: atom type   3  psp file is ../../../Psps_for_tests/ATOMICDATA/Hf.GGA_PBE-JTH.xml
- pspatm: opening atomic psp file    ../../../Psps_for_tests/ATOMICDATA/Hf.GGA_PBE-JTH.xml
- pspatm : Reading pseudopotential header in XML form from ../../../Psps_for_tests/ATOMICDATA/Hf.GGA_PBE-JTH.xml
 Pseudopotential format is: paw10
 basis_size (lnmax)=  6 (lmn_size= 18), orbitals=   0   0   1   1   2   2
 Spheres core radius: rc_sph= 2.41000000
 1 radial meshes are used:
  - mesh 1: r(i)=AA*[exp(BB*(i-1))-1], size= 972 , AA= 0.19796E-03 BB= 0.14253E-01
 Shapefunction is SIN type: shapef(r)=[sin(pi*r/rshp)/(pi*r/rshp)]**2
 Radius for shape functions =  2.41000000
 mmax=  972
 Radial grid used for partial waves is grid 1
 Radial grid used for projectors is grid 1
 Radial grid used for (t)core density is grid 1
 Radial grid used for Vloc is grid 1
 Radial grid used for pseudo valence density is grid 1
 Mesh size for Vloc has been set to  809 to avoid numerical noise.
 Compensation charge density is not taken into account in XC energy/potential
 pspatm: atomic psp has been read  and splines computed

   5.00972281E+04                                ecore*ucvol(ha*bohr**3)
--------------------------------------------------------------------------------

_setup2: Arith. and geom. avg. npw (full set) are   11245.031   11245.025

================================================================================

=== [ionmov= 2] Broyden-Fletcher-Goldfard-Shanno method (forces)            
================================================================================

--- Iteration: (   1/1000) Internal Cycle: (1/1)
--------------------------------------------------------------------------------

---SELF-CONSISTENT-FIELD CONVERGENCE--------------------------------------------

--- !BeginCycle
iteration_state: {dtset: 1, itime: 1, icycle: 1, }
solver: {iscf: 17, nstep: 2500, nline: 4, wfoptalg: 10, }
tolerances: {toldff: 1.00E-08, }
...

     iter   Etot(hartree)      deltaE(h)  residm     nres2    diffor    maxfor
 ETOT  1  -159.92334039067    -1.599E+02 6.582E+00 7.432E+00 1.627E-03 1.627E-03
 ETOT  2  -161.33559667185    -1.412E+00 2.021E-02 2.246E+00 1.114E-02 1.277E-02
 ETOT  3  -161.33015266611     5.444E-03 1.029E-02 4.608E-01 1.043E-02 2.320E-02
 ETOT  4  -161.33065296483    -5.003E-04 2.495E-03 9.338E-02 2.922E-02 6.022E-03
 ETOT  5  -161.33053815514     1.148E-04 2.309E-03 5.775E-03 8.071E-03 2.049E-03
 ETOT  6  -161.33060000428    -6.185E-05 1.940E-03 9.045E-04 2.383E-03 3.340E-04
 ETOT  7  -161.33060862090    -8.617E-06 1.144E-03 1.561E-04 1.568E-04 4.908E-04
 ETOT  8  -161.33061044662    -1.826E-06 1.234E-03 8.688E-06 2.234E-05 4.685E-04
 ETOT  9  -161.33061062791    -1.813E-07 7.619E-04 7.546E-07 2.084E-05 4.476E-04
 ETOT 10  -161.33061064876    -2.085E-08 5.681E-04 7.379E-08 4.249E-06 4.434E-04
 ETOT 11  -161.33061064890    -1.357E-10 2.685E-04 1.131E-08 2.466E-06 4.409E-04
 ETOT 12  -161.33061064891    -6.850E-12 3.048E-04 9.709E-10 2.562E-06 4.435E-04
 ETOT 13  -161.33061064889     1.856E-11 9.846E-05 2.143E-10 1.992E-07 4.433E-04
 ETOT 14  -161.33061064890    -1.342E-11 2.289E-04 2.022E-11 3.988E-07 4.437E-04
 ETOT 15  -161.33061064892    -1.862E-11 6.308E-05 2.979E-12 4.607E-08 4.436E-04
 ETOT 16  -161.33061064892     2.842E-12 1.556E-04 3.148E-13 3.895E-08 4.437E-04
 ETOT 17  -161.33061064891     8.583E-12 3.872E-05 3.123E-14 5.263E-09 4.437E-04
 ETOT 18  -161.33061064892    -7.958E-12 9.854E-05 4.269E-15 2.713E-10 4.437E-04

 At SCF step   18, forces are converged : 
  for the second time, max diff in force=  2.713E-10 < toldff=  1.000E-08

 Cartesian components of stress tensor (hartree/bohr^3)
  sigma(1 1)= -8.82119994E-05  sigma(3 2)=  0.00000000E+00
  sigma(2 2)= -8.82119994E-05  sigma(3 1)=  0.00000000E+00
  sigma(3 3)= -8.82119994E-05  sigma(2 1)=  0.00000000E+00


--- !ResultsGS
iteration_state: {dtset: 1, itime: 1, icycle: 1, }
comment   : Summary of ground state results
lattice_vectors:
- [  0.0000000,  10.6538918,  10.6538918, ]
- [ 10.6538918,   0.0000000,  10.6538918, ]
- [ 10.6538918,  10.6538918,   0.0000000, ]
lattice_lengths: [  15.06688,   15.06688,   15.06688, ]
lattice_angles: [ 60.000,  60.000,  60.000, ] # degrees, (23, 13, 12)
lattice_volume:   2.4185488E+03
convergence: {deltae: -7.958E-12, res2:  4.269E-15, residm:  9.854E-05, diffor:  2.713E-10, }
etotal    :  -1.61330611E+02
entropy   :   0.00000000E+00
fermie    :  -1.22912955E-01
cartesian_stress_tensor: # hartree/bohr^3
- [ -8.82119994E-05,   0.00000000E+00,   0.00000000E+00, ]
- [  0.00000000E+00,  -8.82119994E-05,   0.00000000E+00, ]
- [  0.00000000E+00,   0.00000000E+00,  -8.82119994E-05, ]
pressure_GPa:   2.5953E+00
xred      :
- [  2.5000E-01,   2.5000E-01,   2.5000E-01, Cs]
- [  7.5000E-01,   7.5000E-01,   7.5000E-01, Cs]
- [  7.4947E-01,   2.5053E-01,   7.4947E-01,  I]
- [  2.5053E-01,   2.5053E-01,   7.4947E-01,  I]
- [  7.4947E-01,   7.4947E-01,   2.5053E-01,  I]
- [  2.5053E-01,   7.4947E-01,   2.5053E-01,  I]
- [  2.5053E-01,   7.4947E-01,   7.4947E-01,  I]
- [  7.4947E-01,   2.5053E-01,   2.5053E-01,  I]
- [  0.0000E+00,   0.0000E+00,   0.0000E+00, Hf]
cartesian_forces: # hartree/bohr
- [  1.20466908E-20,  -4.93629256E-32,   6.09386361E-22, ]
- [  1.20466908E-20,   3.70221942E-32,   6.09386360E-22, ]
- [ -3.41441194E-20,  -4.43661870E-04,   4.68001966E-20, ]
- [  7.21525614E-21,   6.52753187E-21,   4.43661870E-04, ]
- [ -3.73319832E-20,   4.76825768E-20,  -4.43661870E-04, ]
- [  1.75311681E-20,   4.43661870E-04,  -4.87509089E-21, ]
- [ -4.43661870E-04,  -5.48447725E-21,   6.09386361E-21, ]
- [  4.43661870E-04,   5.48447725E-21,  -4.87509089E-21, ]
- [  1.20466908E-20,  -0.00000000E+00,   6.09386361E-22, ]
force_length_stats: {min:   1.20620940E-20, max:   4.43661870E-04, mean:   2.95774580E-04, }
...

 Integrated electronic density in atomic spheres:
 ------------------------------------------------
 Atom  Sphere_radius  Integrated_density
    1        2.20660          5.36594382
    2        2.20660          5.36594382
    3        2.30022          4.02909502
    4        2.30022          4.02909502
    5        2.30022          4.02909502
    6        2.30022          4.02909502
    7        2.30022          4.02909502
    8        2.30022          4.02909502
    9        2.41000          9.31004865

 PAW TEST:
 ==== Compensation charge inside spheres ============
 The following values must be close to each other ...
 Compensation charge over spherical meshes =     -0.599411818996159
 Compensation charge over fine fft grid    =     -0.599429946132288

 ==== Results concerning PAW augmentation regions ====

 Total pseudopotential strength Dij (hartree):
 Atom #  1
   0.44854  -0.14848   0.00000   0.00000   0.00000   0.00000   0.00000   0.00000   0.00000   0.00000   0.00000   0.00000 ...
  -0.14848   0.04480   0.00000   0.00000   0.00000   0.00000   0.00000   0.00000   0.00000   0.00000   0.00000   0.00000 ...
   0.00000   0.00000  -0.09457   0.00000   0.00000  -0.16598   0.00000   0.00000   0.00000   0.00000   0.00000  -0.00000 ...
   0.00000   0.00000   0.00000  -0.09457   0.00000   0.00000  -0.16598   0.00000  -0.00000   0.00000   0.00000   0.00000 ...
   0.00000   0.00000   0.00000   0.00000  -0.09457   0.00000   0.00000  -0.16598   0.00000  -0.00000   0.00000   0.00000 ...
   0.00000   0.00000  -0.16598   0.00000   0.00000   0.40655   0.00000   0.00000   0.00000   0.00000   0.00000   0.00000 ...
   0.00000   0.00000   0.00000  -0.16598   0.00000   0.00000   0.40655   0.00000   0.00000   0.00000   0.00000   0.00000 ...
   0.00000   0.00000   0.00000   0.00000  -0.16598   0.00000   0.00000   0.40655   0.00000   0.00000   0.00000   0.00000 ...
   0.00000   0.00000   0.00000  -0.00000   0.00000   0.00000   0.00000   0.00000   0.00508   0.00000   0.00000   0.00000 ...
   0.00000   0.00000   0.00000   0.00000  -0.00000   0.00000   0.00000   0.00000   0.00000   0.00508   0.00000   0.00000 ...
   0.00000   0.00000   0.00000   0.00000   0.00000   0.00000   0.00000   0.00000   0.00000   0.00000   0.00508   0.00000 ...
   0.00000   0.00000  -0.00000   0.00000   0.00000   0.00000   0.00000   0.00000   0.00000   0.00000   0.00000   0.00508 ...
   ...  only 12  components have been written...
 Atom #  9
  -3.53178   0.43301   0.00000   0.00000   0.00000   0.00000   0.00000   0.00000   0.00000   0.00000   0.00000   0.00000 ...
   0.43301   0.00194   0.00000   0.00000   0.00000   0.00000   0.00000   0.00000   0.00000   0.00000   0.00000   0.00000 ...
   0.00000   0.00000  -1.47792   0.00000   0.00000   0.12779   0.00000   0.00000   0.00000   0.00000   0.00000   0.00000 ...
   0.00000   0.00000   0.00000  -1.47792   0.00000   0.00000   0.12779   0.00000   0.00000   0.00000   0.00000   0.00000 ...
   0.00000   0.00000   0.00000   0.00000  -1.47792   0.00000   0.00000   0.12779   0.00000   0.00000   0.00000   0.00000 ...
   0.00000   0.00000   0.12779   0.00000   0.00000   0.01268   0.00000   0.00000   0.00000   0.00000   0.00000   0.00000 ...
   0.00000   0.00000   0.00000   0.12779   0.00000   0.00000   0.01268   0.00000   0.00000   0.00000   0.00000   0.00000 ...
   0.00000   0.00000   0.00000   0.00000   0.12779   0.00000   0.00000   0.01268   0.00000   0.00000   0.00000   0.00000 ...
   0.00000   0.00000   0.00000   0.00000   0.00000   0.00000   0.00000   0.00000  -0.39820   0.00000   0.00000   0.00000 ...
   0.00000   0.00000   0.00000   0.00000   0.00000   0.00000   0.00000   0.00000   0.00000  -0.39820   0.00000   0.00000 ...
   0.00000   0.00000   0.00000   0.00000   0.00000   0.00000   0.00000   0.00000   0.00000   0.00000  -0.39752   0.00000 ...
   0.00000   0.00000   0.00000   0.00000   0.00000   0.00000   0.00000   0.00000   0.00000   0.00000   0.00000  -0.39820 ...
   ...  only 12  components have been written...


 Augmentation waves occupancies Rhoij:
 Atom #  1
   1.99750  -0.01511   0.00000   0.00000   0.00000   0.00000   0.00000   0.00000   0.00000   0.00000   0.00000   0.00000 ...
  -0.01511   0.17927   0.00000   0.00000   0.00000   0.00000   0.00000   0.00000   0.00000   0.00000   0.00000   0.00000 ...
   0.00000   0.00000   2.00664   0.00000   0.00000  -0.00502   0.00000   0.00000   0.00000   0.00000   0.00000  -0.00137 ...
   0.00000   0.00000   0.00000   2.00664   0.00000   0.00000  -0.00502   0.00000  -0.00137   0.00000   0.00000   0.00000 ...
   0.00000   0.00000   0.00000   0.00000   2.00664   0.00000   0.00000  -0.00502   0.00000  -0.00137   0.00000   0.00000 ...
   0.00000   0.00000  -0.00502   0.00000   0.00000   0.00013   0.00000   0.00000   0.00000   0.00000   0.00000   0.00006 ...
   0.00000   0.00000   0.00000  -0.00502   0.00000   0.00000   0.00013   0.00000   0.00006   0.00000   0.00000   0.00000 ...
   0.00000   0.00000   0.00000   0.00000  -0.00502   0.00000   0.00000   0.00013   0.00000   0.00006   0.00000   0.00000 ...
   0.00000   0.00000   0.00000  -0.00137   0.00000   0.00000   0.00006   0.00000   0.06324   0.00000   0.00000   0.00000 ...
   0.00000   0.00000   0.00000   0.00000  -0.00137   0.00000   0.00000   0.00006   0.00000   0.06324   0.00000   0.00000 ...
   0.00000   0.00000   0.00000   0.00000   0.00000   0.00000   0.00000   0.00000   0.00000   0.00000   0.04266   0.00000 ...
   0.00000   0.00000  -0.00137   0.00000   0.00000   0.00006   0.00000   0.00000   0.00000   0.00000   0.00000   0.06324 ...
   ...  only 12  components have been written...
 Atom #  9
   1.99802  -0.01936   0.00000   0.00000   0.00000   0.00000   0.00000   0.00000   0.00000   0.00000   0.00000   0.00000 ...
  -0.01936   1.01445   0.00000   0.00000   0.00000   0.00000   0.00000   0.00000   0.00000   0.00000   0.00000   0.00000 ...
   0.00000   0.00000   1.99318   0.00000   0.00000  -0.05617   0.00000   0.00000   0.00000   0.00000   0.00000   0.00000 ...
   0.00000   0.00000   0.00000   1.99318   0.00000   0.00000  -0.05617   0.00000   0.00000   0.00000   0.00000   0.00000 ...
   0.00000   0.00000   0.00000   0.00000   1.99318   0.00000   0.00000  -0.05617   0.00000   0.00000   0.00000   0.00000 ...
   0.00000   0.00000  -0.05617   0.00000   0.00000   1.22598   0.00000   0.00000   0.00000   0.00000   0.00000   0.00000 ...
   0.00000   0.00000   0.00000  -0.05617   0.00000   0.00000   1.22598   0.00000   0.00000   0.00000   0.00000   0.00000 ...
   0.00000   0.00000   0.00000   0.00000  -0.05617   0.00000   0.00000   1.22598   0.00000   0.00000   0.00000   0.00000 ...
   0.00000   0.00000   0.00000   0.00000   0.00000   0.00000   0.00000   0.00000   0.47162   0.00000   0.00000   0.00000 ...
   0.00000   0.00000   0.00000   0.00000   0.00000   0.00000   0.00000   0.00000   0.00000   0.47162   0.00000   0.00000 ...
   0.00000   0.00000   0.00000   0.00000   0.00000   0.00000   0.00000   0.00000   0.00000   0.00000   1.40559   0.00000 ...
   0.00000   0.00000   0.00000   0.00000   0.00000   0.00000   0.00000   0.00000   0.00000   0.00000   0.00000   0.47162 ...
   ...  only 12  components have been written...



---OUTPUT-----------------------------------------------------------------------

 Cartesian coordinates (xcart) [bohr]
  5.32694592349789E+00  5.32694592349789E+00  5.32694592349789E+00
  1.59808377704937E+01  1.59808377704937E+01  1.59808377704937E+01
  1.06538918469958E+01  1.59696371181471E+01  1.06538918469958E+01
  1.06538918469958E+01  1.06538918469958E+01  5.33814657584448E+00
  1.06538918469958E+01  1.06538918469958E+01  1.59696371181471E+01
  1.06538918469958E+01  5.33814657584448E+00  1.06538918469958E+01
  1.59696371181471E+01  1.06538918469958E+01  1.06538918469958E+01
  5.33814657584448E+00  1.06538918469958E+01  1.06538918469958E+01
  0.00000000000000E+00  0.00000000000000E+00  0.00000000000000E+00
 Reduced coordinates (xred)
  2.50000000000000E-01  2.50000000000000E-01  2.50000000000000E-01
  7.50000000000000E-01  7.50000000000000E-01  7.50000000000000E-01
  7.49474339870000E-01  2.50525660130000E-01  7.49474339870000E-01
  2.50525660130000E-01  2.50525660130000E-01  7.49474339870000E-01
  7.49474339870000E-01  7.49474339870000E-01  2.50525660130000E-01
  2.50525660130000E-01  7.49474339870000E-01  2.50525660130000E-01
  2.50525660130000E-01  7.49474339870000E-01  7.49474339870000E-01
  7.49474339870000E-01  2.50525660130000E-01  2.50525660130000E-01
  0.00000000000000E+00  0.00000000000000E+00  0.00000000000000E+00
 Cartesian forces (fcart) [Ha/bohr]; max,rms= 4.43662E-04 2.09144E-04 (free atoms)
  1.20466908056413E-20 -4.93629255581038E-32  6.09386360553707E-22
  1.20466908054562E-20  3.70221941685778E-32  6.09386360417959E-22
 -3.41441194150538E-20 -4.43661869851952E-04  4.68001965811501E-20
  7.21525613900315E-21  6.52753187364685E-21  4.43661869851952E-04
 -3.73319831524894E-20  4.76825767506284E-20 -4.43661869851952E-04
  1.75311680517107E-20  4.43661869851952E-04 -4.87509088561437E-21
 -4.43661869851952E-04 -5.48447724631616E-21  6.09386360701796E-21
  4.43661869851952E-04  5.48447724631616E-21 -4.87509088561437E-21
  1.20466908053945E-20 -0.00000000000000E+00  6.09386360701796E-22
 Reduced forces (fred)
 -6.49233637784766E-21 -1.34836477335874E-19 -1.28344140956975E-19
 -6.49233637732175E-21 -1.34836477332456E-19 -1.28344140955923E-19
  4.72672557803861E-03 -1.34836477334823E-19  4.72672557803861E-03
 -4.72672557803861E-03 -4.72672557803861E-03 -1.46414177162963E-19
  4.72672557803861E-03  4.72672557803861E-03 -1.10274104746780E-19
 -4.72672557803861E-03 -1.34836477334823E-19 -4.72672557803861E-03
 -6.49233637995129E-21  4.72672557803861E-03  4.72672557803861E-03
 -6.49233637995129E-21 -4.72672557803861E-03 -4.72672557803861E-03
 -6.49233637995129E-21 -1.34836477334823E-19 -1.28344140954871E-19
 Total energy (etotal) [Ha]= -1.61330610648916E+02

--- Iteration: (   2/1000) Internal Cycle: (1/1)
--------------------------------------------------------------------------------

---SELF-CONSISTENT-FIELD CONVERGENCE--------------------------------------------

--- !BeginCycle
iteration_state: {dtset: 1, itime: 2, icycle: 1, }
solver: {iscf: 17, nstep: 2500, nline: 4, wfoptalg: 10, }
tolerances: {toldff: 1.00E-08, }
...

     iter   Etot(hartree)      deltaE(h)  residm     nres2    diffor    maxfor
 ETOT  1  -161.33061337099    -1.613E+02 5.942E-05 2.132E-04 1.099E-03 1.542E-03
 ETOT  2  -161.33061189080     1.480E-06 3.546E-05 2.805E-05 1.155E-03 3.871E-04
 ETOT  3  -161.33061175906     1.317E-07 8.965E-06 2.126E-06 1.398E-04 5.269E-04
 ETOT  4  -161.33061174461     1.445E-08 1.989E-05 3.123E-07 1.221E-04 4.048E-04
 ETOT  5  -161.33061174882    -4.218E-09 5.128E-06 1.296E-07 6.249E-07 4.042E-04
 ETOT  6  -161.33061175186    -3.034E-09 1.123E-05 1.375E-08 7.020E-06 3.972E-04
 ETOT  7  -161.33061175308    -1.224E-09 3.102E-06 3.739E-09 2.581E-06 3.946E-04
 ETOT  8  -161.33061175432    -1.241E-09 6.396E-06 1.784E-10 1.148E-06 3.934E-04
 ETOT  9  -161.33061175434    -1.700E-11 1.859E-06 2.034E-11 1.037E-07 3.933E-04
 ETOT 10  -161.33061175432     1.950E-11 3.745E-06 6.699E-12 4.513E-08 3.934E-04
 ETOT 11  -161.33061175437    -5.048E-11 1.132E-06 1.458E-13 2.437E-08 3.934E-04
 ETOT 12  -161.33061175439    -1.819E-11 2.231E-06 4.358E-14 4.940E-09 3.933E-04
 ETOT 13  -161.33061175442    -2.629E-11 6.925E-07 8.163E-15 3.033E-09 3.933E-04

 At SCF step   13, forces are converged : 
  for the second time, max diff in force=  3.033E-09 < toldff=  1.000E-08

 Cartesian components of stress tensor (hartree/bohr^3)
  sigma(1 1)= -8.80590072E-05  sigma(3 2)=  0.00000000E+00
  sigma(2 2)= -8.80590072E-05  sigma(3 1)=  0.00000000E+00
  sigma(3 3)= -8.80590072E-05  sigma(2 1)=  0.00000000E+00


--- !ResultsGS
iteration_state: {dtset: 1, itime: 2, icycle: 1, }
comment   : Summary of ground state results
lattice_vectors:
- [  0.0000000,  10.6538918,  10.6538918, ]
- [ 10.6538918,   0.0000000,  10.6538918, ]
- [ 10.6538918,  10.6538918,   0.0000000, ]
lattice_lengths: [  15.06688,   15.06688,   15.06688, ]
lattice_angles: [ 60.000,  60.000,  60.000, ] # degrees, (23, 13, 12)
lattice_volume:   2.4185488E+03
convergence: {deltae: -2.629E-11, res2:  8.163E-15, residm:  6.925E-07, diffor:  3.033E-09, }
etotal    :  -1.61330612E+02
entropy   :   0.00000000E+00
fermie    :  -1.22909644E-01
cartesian_stress_tensor: # hartree/bohr^3
- [ -8.80590072E-05,   0.00000000E+00,   0.00000000E+00, ]
- [  0.00000000E+00,  -8.80590072E-05,   0.00000000E+00, ]
- [  0.00000000E+00,   0.00000000E+00,  -8.80590072E-05, ]
pressure_GPa:   2.5908E+00
xred      :
- [  2.5000E-01,   2.5000E-01,   2.5000E-01, Cs]
- [  7.5000E-01,   7.5000E-01,   7.5000E-01, Cs]
- [  7.4945E-01,   2.5055E-01,   7.4945E-01,  I]
- [  2.5055E-01,   2.5055E-01,   7.4945E-01,  I]
- [  7.4945E-01,   7.4945E-01,   2.5055E-01,  I]
- [  2.5055E-01,   7.4945E-01,   2.5055E-01,  I]
- [  2.5055E-01,   7.4945E-01,   7.4945E-01,  I]
- [  7.4945E-01,   2.5055E-01,   2.5055E-01,  I]
- [ -9.1119E-22,   9.5568E-22,   9.0484E-22, Hf]
cartesian_forces: # hartree/bohr
- [  2.58803895E-26,  -1.20465614E-20,   1.11155580E-20, ]
- [ -1.29401948E-25,  -1.20467167E-20,   1.11156098E-20, ]
- [  4.90867610E-20,  -3.93348672E-04,  -3.79712289E-20, ]
- [ -4.59271836E-20,   3.38804928E-20,   3.93348672E-04, ]
- [ -8.28292506E-21,  -3.76376574E-21,  -3.93348672E-04, ]
- [ -8.38042807E-21,   3.93348672E-04,   1.94959602E-20, ]
- [ -3.93348672E-04,  -3.66626273E-21,   2.73510406E-21, ]
- [  3.93348672E-04,  -2.04271189E-20,   1.94959602E-20, ]
- [ -0.00000000E+00,  -1.20466908E-20,   1.11155321E-20, ]
force_length_stats: {min:   1.63913170E-20, max:   3.93348672E-04, mean:   2.62232448E-04, }
...

 Integrated electronic density in atomic spheres:
 ------------------------------------------------
 Atom  Sphere_radius  Integrated_density
    1        2.20660          5.36594446
    2        2.20660          5.36594446
    3        2.30022          4.02882378
    4        2.30022          4.02882378
    5        2.30022          4.02882378
    6        2.30022          4.02882378
    7        2.30022          4.02882378
    8        2.30022          4.02882378
    9        2.41000          9.30974825

 PAW TEST:
 ==== Compensation charge inside spheres ============
 The following values must be close to each other ...
 Compensation charge over spherical meshes =     -0.599445390007429
 Compensation charge over fine fft grid    =     -0.599463473592104

 ==== Results concerning PAW augmentation regions ====

 Total pseudopotential strength Dij (hartree):
 Atom #  1
   0.44854  -0.14848   0.00000   0.00000   0.00000   0.00000   0.00000   0.00000   0.00000   0.00000   0.00000   0.00000 ...
  -0.14848   0.04480   0.00000   0.00000   0.00000   0.00000   0.00000   0.00000   0.00000   0.00000   0.00000   0.00000 ...
   0.00000   0.00000  -0.09457   0.00000   0.00000  -0.16598   0.00000   0.00000   0.00000   0.00000   0.00000  -0.00000 ...
   0.00000   0.00000   0.00000  -0.09457   0.00000   0.00000  -0.16598   0.00000  -0.00000   0.00000   0.00000   0.00000 ...
   0.00000   0.00000   0.00000   0.00000  -0.09457   0.00000   0.00000  -0.16598   0.00000  -0.00000   0.00000   0.00000 ...
   0.00000   0.00000  -0.16598   0.00000   0.00000   0.40655   0.00000   0.00000   0.00000   0.00000   0.00000   0.00000 ...
   0.00000   0.00000   0.00000  -0.16598   0.00000   0.00000   0.40655   0.00000   0.00000   0.00000   0.00000   0.00000 ...
   0.00000   0.00000   0.00000   0.00000  -0.16598   0.00000   0.00000   0.40655   0.00000   0.00000   0.00000   0.00000 ...
   0.00000   0.00000   0.00000  -0.00000   0.00000   0.00000   0.00000   0.00000   0.00508   0.00000   0.00000   0.00000 ...
   0.00000   0.00000   0.00000   0.00000  -0.00000   0.00000   0.00000   0.00000   0.00000   0.00508   0.00000   0.00000 ...
   0.00000   0.00000   0.00000   0.00000   0.00000   0.00000   0.00000   0.00000   0.00000   0.00000   0.00508   0.00000 ...
   0.00000   0.00000  -0.00000   0.00000   0.00000   0.00000   0.00000   0.00000   0.00000   0.00000   0.00000   0.00508 ...
   ...  only 12  components have been written...
 Atom #  9
  -3.53179   0.43301   0.00000   0.00000   0.00000   0.00000   0.00000   0.00000   0.00000   0.00000   0.00000   0.00000 ...
   0.43301   0.00194   0.00000   0.00000   0.00000   0.00000   0.00000   0.00000   0.00000   0.00000   0.00000   0.00000 ...
   0.00000   0.00000  -1.47794   0.00000   0.00000   0.12779   0.00000   0.00000   0.00000   0.00000   0.00000   0.00000 ...
   0.00000   0.00000   0.00000  -1.47794   0.00000   0.00000   0.12779   0.00000   0.00000   0.00000   0.00000   0.00000 ...
   0.00000   0.00000   0.00000   0.00000  -1.47794   0.00000   0.00000   0.12779   0.00000   0.00000   0.00000   0.00000 ...
   0.00000   0.00000   0.12779   0.00000   0.00000   0.01267   0.00000   0.00000   0.00000   0.00000   0.00000   0.00000 ...
   0.00000   0.00000   0.00000   0.12779   0.00000   0.00000   0.01267   0.00000   0.00000   0.00000   0.00000   0.00000 ...
   0.00000   0.00000   0.00000   0.00000   0.12779   0.00000   0.00000   0.01267   0.00000   0.00000   0.00000   0.00000 ...
   0.00000   0.00000   0.00000   0.00000   0.00000   0.00000   0.00000   0.00000  -0.39821   0.00000   0.00000   0.00000 ...
   0.00000   0.00000   0.00000   0.00000   0.00000   0.00000   0.00000   0.00000   0.00000  -0.39821   0.00000   0.00000 ...
   0.00000   0.00000   0.00000   0.00000   0.00000   0.00000   0.00000   0.00000   0.00000   0.00000  -0.39753   0.00000 ...
   0.00000   0.00000   0.00000   0.00000   0.00000   0.00000   0.00000   0.00000   0.00000   0.00000   0.00000  -0.39821 ...
   ...  only 12  components have been written...


 Augmentation waves occupancies Rhoij:
 Atom #  1
   1.99750  -0.01511   0.00000   0.00000   0.00000   0.00000   0.00000   0.00000   0.00000   0.00000   0.00000   0.00000 ...
  -0.01511   0.17927   0.00000   0.00000   0.00000   0.00000   0.00000   0.00000   0.00000   0.00000   0.00000   0.00000 ...
   0.00000   0.00000   2.00664   0.00000   0.00000  -0.00502   0.00000   0.00000   0.00000   0.00000   0.00000  -0.00137 ...
   0.00000   0.00000   0.00000   2.00664   0.00000   0.00000  -0.00502   0.00000  -0.00137   0.00000   0.00000   0.00000 ...
   0.00000   0.00000   0.00000   0.00000   2.00664   0.00000   0.00000  -0.00502   0.00000  -0.00137   0.00000   0.00000 ...
   0.00000   0.00000  -0.00502   0.00000   0.00000   0.00013   0.00000   0.00000   0.00000   0.00000   0.00000   0.00006 ...
   0.00000   0.00000   0.00000  -0.00502   0.00000   0.00000   0.00013   0.00000   0.00006   0.00000   0.00000   0.00000 ...
   0.00000   0.00000   0.00000   0.00000  -0.00502   0.00000   0.00000   0.00013   0.00000   0.00006   0.00000   0.00000 ...
   0.00000   0.00000   0.00000  -0.00137   0.00000   0.00000   0.00006   0.00000   0.06324   0.00000   0.00000   0.00000 ...
   0.00000   0.00000   0.00000   0.00000  -0.00137   0.00000   0.00000   0.00006   0.00000   0.06324   0.00000   0.00000 ...
   0.00000   0.00000   0.00000   0.00000   0.00000   0.00000   0.00000   0.00000   0.00000   0.00000   0.04266   0.00000 ...
   0.00000   0.00000  -0.00137   0.00000   0.00000   0.00006   0.00000   0.00000   0.00000   0.00000   0.00000   0.06324 ...
   ...  only 12  components have been written...
 Atom #  9
   1.99802  -0.01937   0.00000   0.00000   0.00000   0.00000   0.00000   0.00000   0.00000   0.00000   0.00000   0.00000 ...
  -0.01937   1.01433   0.00000   0.00000   0.00000   0.00000   0.00000   0.00000   0.00000   0.00000   0.00000   0.00000 ...
   0.00000   0.00000   1.99317   0.00000   0.00000  -0.05622   0.00000   0.00000   0.00000   0.00000   0.00000   0.00000 ...
   0.00000   0.00000   0.00000   1.99317   0.00000   0.00000  -0.05622   0.00000   0.00000   0.00000   0.00000   0.00000 ...
   0.00000   0.00000   0.00000   0.00000   1.99317   0.00000   0.00000  -0.05622   0.00000   0.00000   0.00000   0.00000 ...
   0.00000   0.00000  -0.05622   0.00000   0.00000   1.22550   0.00000   0.00000   0.00000   0.00000   0.00000   0.00000 ...
   0.00000   0.00000   0.00000  -0.05622   0.00000   0.00000   1.22550   0.00000   0.00000   0.00000   0.00000   0.00000 ...
   0.00000   0.00000   0.00000   0.00000  -0.05622   0.00000   0.00000   1.22550   0.00000   0.00000   0.00000   0.00000 ...
   0.00000   0.00000   0.00000   0.00000   0.00000   0.00000   0.00000   0.00000   0.47142   0.00000   0.00000   0.00000 ...
   0.00000   0.00000   0.00000   0.00000   0.00000   0.00000   0.00000   0.00000   0.00000   0.47142   0.00000   0.00000 ...
   0.00000   0.00000   0.00000   0.00000   0.00000   0.00000   0.00000   0.00000   0.00000   0.00000   1.40499   0.00000 ...
   0.00000   0.00000   0.00000   0.00000   0.00000   0.00000   0.00000   0.00000   0.00000   0.00000   0.00000   0.47142 ...
   ...  only 12  components have been written...



---OUTPUT-----------------------------------------------------------------------

 Cartesian coordinates (xcart) [bohr]
  5.32694592349789E+00  5.32694592349789E+00  5.32694592349789E+00
  1.59808377704937E+01  1.59808377704937E+01  1.59808377704937E+01
  1.06538918469958E+01  1.59691934562772E+01  1.06538918469958E+01
  1.06538918469958E+01  1.06538918469958E+01  5.33859023771433E+00
  1.06538918469958E+01  1.06538918469958E+01  1.59691934562772E+01
  1.06538918469958E+01  5.33859023771433E+00  1.06538918469958E+01
  1.59691934562772E+01  1.06538918469958E+01  1.06538918469958E+01
  5.33859023771433E+00  1.06538918469958E+01  1.06538918469958E+01
  1.98217309724580E-20 -6.77095956335310E-23  4.73967169434730E-22
 Reduced coordinates (xred)
  2.50000000000000E-01  2.50000000000000E-01  2.50000000000000E-01
  7.50000000000000E-01  7.50000000000000E-01  7.50000000000000E-01
  7.49453518283099E-01  2.50546481716901E-01  7.49453518283099E-01
  2.50546481716901E-01  2.50546481716901E-01  7.49453518283099E-01
  7.49453518283099E-01  7.49453518283099E-01  2.50546481716901E-01
  2.50546481716901E-01  7.49453518283099E-01  2.50546481716901E-01
  2.50546481716901E-01  7.49453518283099E-01  7.49453518283099E-01
  7.49453518283099E-01  2.50546481716901E-01  2.50546481716901E-01
 -9.11191594465625E-22  9.55679296822805E-22  9.04836208414599E-22
 Cartesian forces (fcart) [Ha/bohr]; max,rms= 3.93349E-04 1.85426E-04 (free atoms)
  2.58803895150071E-26 -1.20465614034469E-20  1.11155580109384E-20
 -1.29401947575036E-25 -1.20467166857840E-20  1.11156097717174E-20
  4.90867610477429E-20 -3.93348672494365E-04 -3.79712289171941E-20
 -4.59271835625159E-20  3.38804927571214E-20  3.93348672494365E-04
 -8.28292506175931E-21 -3.76376574363518E-21 -3.93348672494365E-04
 -8.38042807361078E-21  3.93348672494365E-04  1.94959602041596E-20
 -3.93348672494365E-04 -3.66626273178371E-21  2.73510405693807E-21
  3.93348672494365E-04 -2.04271188790053E-20  1.94959602041596E-20
 -0.00000000000000E+00 -1.20466908053945E-20  1.11155321305489E-20
 Reduced forces (fred)
  9.91880945297227E-21 -1.18424228594416E-19  1.28342486593646E-19
  9.91991236045568E-21 -1.18423125686932E-19  1.28345795316096E-19
  4.19069421491432E-03 -1.18423677140674E-19  4.19069421491432E-03
 -4.19069421491432E-03 -4.19069421491432E-03  1.28344140954871E-19
  4.19069421491432E-03  4.19069421491432E-03  1.28344140954871E-19
 -4.19069421491432E-03 -1.18423677140674E-19 -4.19069421491432E-03
  9.92046381419738E-21  4.19069421491432E-03  4.19069421491432E-03
  9.92046381419736E-21 -4.19069421491432E-03 -4.19069421491432E-03
  9.92046381419738E-21 -1.18423677140674E-19  1.28344140954871E-19
 Total energy (etotal) [Ha]= -1.61330611754417E+02

 Difference of energy with previous step (new-old):
           Absolute (Ha)=-1.10550E-06
           Relative     =-6.85239E-09

--- Iteration: (   3/1000) Internal Cycle: (1/1)
--------------------------------------------------------------------------------

---SELF-CONSISTENT-FIELD CONVERGENCE--------------------------------------------

--- !BeginCycle
iteration_state: {dtset: 1, itime: 3, icycle: 1, }
solver: {iscf: 17, nstep: 2500, nline: 4, wfoptalg: 10, }
tolerances: {toldff: 1.00E-08, }
...

     iter   Etot(hartree)      deltaE(h)  residm     nres2    diffor    maxfor
 ETOT  1  -161.33070817708    -1.613E+02 1.733E-06 1.301E-02 8.593E-03 8.987E-03
 ETOT  2  -161.33062393655     8.424E-05 1.364E-06 1.708E-03 9.034E-03 4.774E-05
 ETOT  3  -161.33061605822     7.878E-06 1.168E-06 1.303E-04 1.095E-03 1.048E-03
 ETOT  4  -161.33061560236     4.559E-07 4.037E-07 1.906E-05 9.584E-04 8.932E-05
 ETOT  5  -161.33061572405    -1.217E-07 2.391E-07 7.900E-06 4.556E-06 8.477E-05
 ETOT  6  -161.33061575903    -3.498E-08 1.818E-07 8.342E-07 5.450E-05 3.026E-05
 ETOT  7  -161.33061577194    -1.291E-08 1.412E-07 2.258E-07 2.024E-05 1.003E-05
 ETOT  8  -161.33061578371    -1.177E-08 1.122E-07 1.078E-08 8.779E-06 1.250E-06
 ETOT  9  -161.33061578400    -2.880E-10 9.020E-08 1.229E-09 9.210E-07 3.287E-07
 ETOT 10  -161.33061578387     1.224E-10 7.200E-08 4.065E-10 4.065E-07 7.353E-07
 ETOT 11  -161.33061578423    -3.542E-10 6.175E-08 8.614E-12 2.052E-07 5.300E-07
 ETOT 12  -161.33061578438    -1.472E-10 4.683E-08 2.573E-12 3.222E-08 4.978E-07
 ETOT 13  -161.33061578459    -2.161E-10 4.480E-08 4.705E-13 2.455E-08 5.223E-07
 ETOT 14  -161.33061578474    -1.470E-10 3.056E-08 1.379E-13 1.068E-08 5.117E-07
 ETOT 15  -161.33061578485    -1.129E-10 3.285E-08 5.093E-14 3.363E-09 5.083E-07
 ETOT 16  -161.33061578493    -7.859E-11 1.997E-08 1.684E-14 1.221E-09 5.095E-07

 At SCF step   16, forces are converged : 
  for the second time, max diff in force=  1.221E-09 < toldff=  1.000E-08

 Cartesian components of stress tensor (hartree/bohr^3)
  sigma(1 1)= -8.68649393E-05  sigma(3 2)=  0.00000000E+00
  sigma(2 2)= -8.68649393E-05  sigma(3 1)=  0.00000000E+00
  sigma(3 3)= -8.68649393E-05  sigma(2 1)=  0.00000000E+00


--- !ResultsGS
iteration_state: {dtset: 1, itime: 3, icycle: 1, }
comment   : Summary of ground state results
lattice_vectors:
- [  0.0000000,  10.6538918,  10.6538918, ]
- [ 10.6538918,   0.0000000,  10.6538918, ]
- [ 10.6538918,  10.6538918,   0.0000000, ]
lattice_lengths: [  15.06688,   15.06688,   15.06688, ]
lattice_angles: [ 60.000,  60.000,  60.000, ] # degrees, (23, 13, 12)
lattice_volume:   2.4185488E+03
convergence: {deltae: -7.859E-11, res2:  1.684E-14, residm:  1.997E-08, diffor:  1.221E-09, }
etotal    :  -1.61330616E+02
entropy   :   0.00000000E+00
fermie    :  -1.22883407E-01
cartesian_stress_tensor: # hartree/bohr^3
- [ -8.68649393E-05,   0.00000000E+00,   0.00000000E+00, ]
- [  0.00000000E+00,  -8.68649393E-05,   0.00000000E+00, ]
- [  0.00000000E+00,   0.00000000E+00,  -8.68649393E-05, ]
pressure_GPa:   2.5557E+00
xred      :
- [  2.5000E-01,   2.5000E-01,   2.5000E-01, Cs]
- [  7.5000E-01,   7.5000E-01,   7.5000E-01, Cs]
- [  7.4929E-01,   2.5071E-01,   7.4929E-01,  I]
- [  2.5071E-01,   2.5071E-01,   7.4929E-01,  I]
- [  7.4929E-01,   7.4929E-01,   2.5071E-01,  I]
- [  2.5071E-01,   7.4929E-01,   2.5071E-01,  I]
- [  2.5071E-01,   7.4929E-01,   7.4929E-01,  I]
- [  7.4929E-01,   2.5071E-01,   2.5071E-01,  I]
- [  7.4649E-22,   1.8792E-20,  -1.3274E-20, Hf]
cartesian_forces: # hartree/bohr
- [ -1.03521558E-25,   5.67513013E-24,  -5.23661500E-24, ]
- [  7.24650906E-25,   5.67513013E-24,  -5.44365811E-24, ]
- [ -3.94663618E-24,  -5.09518420E-07,  -1.49702193E-24, ]
- [  3.41492972E-23,  -3.15798138E-23,   5.09518420E-07, ]
- [ -3.49774696E-23,   4.25159878E-23,  -5.09518420E-07, ]
- [  3.94663618E-24,   5.09518420E-07,  -9.39029430E-24, ]
- [ -5.09518420E-07,  -6.43817386E-23,   6.48202538E-23, ]
- [  5.09518420E-07,   2.32065259E-23,  -2.27680108E-23, ]
- [ -0.00000000E+00,   5.88217324E-24,  -5.44365811E-24, ]
force_length_stats: {min:   7.72269094E-24, max:   5.09518420E-07, mean:   3.39678947E-07, }
...

 Integrated electronic density in atomic spheres:
 ------------------------------------------------
 Atom  Sphere_radius  Integrated_density
    1        2.20660          5.36594946
    2        2.20660          5.36594946
    3        2.30022          4.03019189
    4        2.30022          4.03019189
    5        2.30022          4.03019189
    6        2.30022          4.03019189
    7        2.30022          4.03019189
    8        2.30022          4.03019189
    9        2.41000          9.30740727

 PAW TEST:
 ==== Compensation charge inside spheres ============
 The following values must be close to each other ...
 Compensation charge over spherical meshes =     -0.599708488668921
 Compensation charge over fine fft grid    =     -0.599726088255399

 ==== Results concerning PAW augmentation regions ====

 Total pseudopotential strength Dij (hartree):
 Atom #  1
   0.44853  -0.14848   0.00000   0.00000   0.00000   0.00000   0.00000   0.00000   0.00000   0.00000   0.00000   0.00000 ...
  -0.14848   0.04480   0.00000   0.00000   0.00000   0.00000   0.00000   0.00000   0.00000   0.00000   0.00000   0.00000 ...
   0.00000   0.00000  -0.09457   0.00000   0.00000  -0.16598   0.00000   0.00000   0.00000   0.00000   0.00000  -0.00000 ...
   0.00000   0.00000   0.00000  -0.09457   0.00000   0.00000  -0.16598   0.00000  -0.00000   0.00000   0.00000   0.00000 ...
   0.00000   0.00000   0.00000   0.00000  -0.09457   0.00000   0.00000  -0.16598   0.00000  -0.00000   0.00000   0.00000 ...
   0.00000   0.00000  -0.16598   0.00000   0.00000   0.40655   0.00000   0.00000   0.00000   0.00000   0.00000   0.00000 ...
   0.00000   0.00000   0.00000  -0.16598   0.00000   0.00000   0.40655   0.00000   0.00000   0.00000   0.00000   0.00000 ...
   0.00000   0.00000   0.00000   0.00000  -0.16598   0.00000   0.00000   0.40655   0.00000   0.00000   0.00000   0.00000 ...
   0.00000   0.00000   0.00000  -0.00000   0.00000   0.00000   0.00000   0.00000   0.00509   0.00000   0.00000   0.00000 ...
   0.00000   0.00000   0.00000   0.00000  -0.00000   0.00000   0.00000   0.00000   0.00000   0.00509   0.00000   0.00000 ...
   0.00000   0.00000   0.00000   0.00000   0.00000   0.00000   0.00000   0.00000   0.00000   0.00000   0.00509   0.00000 ...
   0.00000   0.00000  -0.00000   0.00000   0.00000   0.00000   0.00000   0.00000   0.00000   0.00000   0.00000   0.00509 ...
   ...  only 12  components have been written...
 Atom #  9
  -3.53192   0.43306   0.00000   0.00000   0.00000   0.00000   0.00000   0.00000   0.00000   0.00000   0.00000   0.00000 ...
   0.43306   0.00193   0.00000   0.00000   0.00000   0.00000   0.00000   0.00000   0.00000   0.00000   0.00000   0.00000 ...
   0.00000   0.00000  -1.47814   0.00000   0.00000   0.12783   0.00000   0.00000   0.00000   0.00000   0.00000   0.00000 ...
   0.00000   0.00000   0.00000  -1.47814   0.00000   0.00000   0.12783   0.00000   0.00000   0.00000   0.00000   0.00000 ...
   0.00000   0.00000   0.00000   0.00000  -1.47814   0.00000   0.00000   0.12783   0.00000   0.00000   0.00000   0.00000 ...
   0.00000   0.00000   0.12783   0.00000   0.00000   0.01267   0.00000   0.00000   0.00000   0.00000   0.00000   0.00000 ...
   0.00000   0.00000   0.00000   0.12783   0.00000   0.00000   0.01267   0.00000   0.00000   0.00000   0.00000   0.00000 ...
   0.00000   0.00000   0.00000   0.00000   0.12783   0.00000   0.00000   0.01267   0.00000   0.00000   0.00000   0.00000 ...
   0.00000   0.00000   0.00000   0.00000   0.00000   0.00000   0.00000   0.00000  -0.39824   0.00000   0.00000   0.00000 ...
   0.00000   0.00000   0.00000   0.00000   0.00000   0.00000   0.00000   0.00000   0.00000  -0.39824   0.00000   0.00000 ...
   0.00000   0.00000   0.00000   0.00000   0.00000   0.00000   0.00000   0.00000   0.00000   0.00000  -0.39757   0.00000 ...
   0.00000   0.00000   0.00000   0.00000   0.00000   0.00000   0.00000   0.00000   0.00000   0.00000   0.00000  -0.39824 ...
   ...  only 12  components have been written...


 Augmentation waves occupancies Rhoij:
 Atom #  1
   1.99750  -0.01511   0.00000   0.00000   0.00000   0.00000   0.00000   0.00000   0.00000   0.00000   0.00000   0.00000 ...
  -0.01511   0.17929   0.00000   0.00000   0.00000   0.00000   0.00000   0.00000   0.00000   0.00000   0.00000   0.00000 ...
   0.00000   0.00000   2.00664   0.00000   0.00000  -0.00502   0.00000   0.00000   0.00000   0.00000   0.00000  -0.00138 ...
   0.00000   0.00000   0.00000   2.00664   0.00000   0.00000  -0.00502   0.00000  -0.00138   0.00000   0.00000   0.00000 ...
   0.00000   0.00000   0.00000   0.00000   2.00664   0.00000   0.00000  -0.00502   0.00000  -0.00138   0.00000   0.00000 ...
   0.00000   0.00000  -0.00502   0.00000   0.00000   0.00013   0.00000   0.00000   0.00000   0.00000   0.00000   0.00006 ...
   0.00000   0.00000   0.00000  -0.00502   0.00000   0.00000   0.00013   0.00000   0.00006   0.00000   0.00000   0.00000 ...
   0.00000   0.00000   0.00000   0.00000  -0.00502   0.00000   0.00000   0.00013   0.00000   0.00006   0.00000   0.00000 ...
   0.00000   0.00000   0.00000  -0.00138   0.00000   0.00000   0.00006   0.00000   0.06325   0.00000   0.00000   0.00000 ...
   0.00000   0.00000   0.00000   0.00000  -0.00138   0.00000   0.00000   0.00006   0.00000   0.06325   0.00000   0.00000 ...
   0.00000   0.00000   0.00000   0.00000   0.00000   0.00000   0.00000   0.00000   0.00000   0.00000   0.04266   0.00000 ...
   0.00000   0.00000  -0.00138   0.00000   0.00000   0.00006   0.00000   0.00000   0.00000   0.00000   0.00000   0.06325 ...
   ...  only 12  components have been written...
 Atom #  9
   1.99802  -0.01943   0.00000   0.00000   0.00000   0.00000   0.00000   0.00000   0.00000   0.00000   0.00000   0.00000 ...
  -0.01943   1.01339   0.00000   0.00000   0.00000   0.00000   0.00000   0.00000   0.00000   0.00000   0.00000   0.00000 ...
   0.00000   0.00000   1.99313   0.00000   0.00000  -0.05658   0.00000   0.00000   0.00000   0.00000   0.00000   0.00000 ...
   0.00000   0.00000   0.00000   1.99313   0.00000   0.00000  -0.05658   0.00000   0.00000   0.00000   0.00000   0.00000 ...
   0.00000   0.00000   0.00000   0.00000   1.99313   0.00000   0.00000  -0.05658   0.00000   0.00000   0.00000   0.00000 ...
   0.00000   0.00000  -0.05658   0.00000   0.00000   1.22173   0.00000   0.00000   0.00000   0.00000   0.00000   0.00000 ...
   0.00000   0.00000   0.00000  -0.05658   0.00000   0.00000   1.22173   0.00000   0.00000   0.00000   0.00000   0.00000 ...
   0.00000   0.00000   0.00000   0.00000  -0.05658   0.00000   0.00000   1.22173   0.00000   0.00000   0.00000   0.00000 ...
   0.00000   0.00000   0.00000   0.00000   0.00000   0.00000   0.00000   0.00000   0.46984   0.00000   0.00000   0.00000 ...
   0.00000   0.00000   0.00000   0.00000   0.00000   0.00000   0.00000   0.00000   0.00000   0.46984   0.00000   0.00000 ...
   0.00000   0.00000   0.00000   0.00000   0.00000   0.00000   0.00000   0.00000   0.00000   0.00000   1.40035   0.00000 ...
   0.00000   0.00000   0.00000   0.00000   0.00000   0.00000   0.00000   0.00000   0.00000   0.00000   0.00000   0.46984 ...
   ...  only 12  components have been written...



---OUTPUT-----------------------------------------------------------------------

 Cartesian coordinates (xcart) [bohr]
  5.32694592349789E+00  5.32694592349789E+00  5.32694592349789E+00
  1.59808377704937E+01  1.59808377704937E+01  1.59808377704937E+01
  1.06538918469958E+01  1.59657249069361E+01  1.06538918469958E+01
  1.06538918469958E+01  1.06538918469958E+01  5.34205878705541E+00
  1.06538918469958E+01  1.06538918469958E+01  1.59657249069361E+01
  1.06538918469958E+01  5.34205878705541E+00  1.06538918469958E+01
  1.59657249069361E+01  1.06538918469958E+01  1.06538918469958E+01
  5.34205878705541E+00  1.06538918469958E+01  1.06538918469958E+01
  5.87925712514000E-20 -1.33463209786172E-19  2.08161832823099E-19
 Reduced coordinates (xred)
  2.50000000000000E-01  2.50000000000000E-01  2.50000000000000E-01
  7.50000000000000E-01  7.50000000000000E-01  7.50000000000000E-01
  7.49290735077163E-01  2.50709264922836E-01  7.49290735077163E-01
  2.50709264922836E-01  2.50709264922836E-01  7.49290735077163E-01
  7.49290735077163E-01  7.49290735077163E-01  2.50709264922836E-01
  2.50709264922836E-01  7.49290735077163E-01  2.50709264922836E-01
  2.50709264922836E-01  7.49290735077163E-01  7.49290735077163E-01
  7.49290735077163E-01  2.50709264922836E-01  2.50709264922836E-01
  7.46490203484269E-22  1.87920817862246E-20 -1.32736691633314E-20
 Cartesian forces (fcart) [Ha/bohr]; max,rms= 5.09518E-07 2.40189E-07 (free atoms)
 -1.03521558060028E-25  5.67513012870147E-24 -5.23661499722691E-24
  7.24650906420199E-25  5.67513012870147E-24 -5.44365811334697E-24
 -3.94663618327109E-24 -5.09518420330461E-07 -1.49702193007588E-24
  3.41492971828194E-23 -3.15798137959188E-23  5.09518420330461E-07
 -3.49774696472996E-23  4.25159878210816E-23 -5.09518420330461E-07
  3.94663618327109E-24  5.09518420330461E-07 -9.39029429661805E-24
 -5.09518420330462E-07 -6.43817386202086E-23  6.48202537516831E-23
  5.09518420330462E-07  2.32065259064579E-23 -2.27680107749833E-23
 -0.00000000000000E+00  5.88217324482153E-24 -5.44365811334697E-24
 Reduced forces (fred)
 -4.67189278400114E-24  5.68932373082156E-23 -5.93593151254087E-23
 -2.46607781719306E-24  5.02757924077914E-23 -6.81825749926409E-23
  5.42835414425287E-06  5.79961447916196E-23  5.42835414425287E-06
 -5.42835414425287E-06 -5.42835414425287E-06 -2.73749981066916E-23
  5.42835414425287E-06  5.42835414425287E-06 -8.03145573100853E-23
 -5.42835414425287E-06  5.79961447916196E-23 -5.42835414425287E-06
 -4.67189278400112E-24  5.42835414425287E-06  5.42835414425287E-06
 -4.67189278400115E-24 -5.42835414425287E-06 -5.42835414425287E-06
 -4.67189278400114E-24  5.79961447916196E-23 -6.26680375756208E-23
 Total energy (etotal) [Ha]= -1.61330615784930E+02

[...]
                       8.3935933403E+00  5.6077765312E+00  5.6077765312E+00
                       2.8219597222E+00  5.6077765312E+00  5.6077765312E+00
                       2.2067474921E-19  3.5960309380E-19  2.5322569554E-19
           xangst7     2.8008862439E+00  2.8008862439E+00  2.8008862439E+00
                       8.4026587318E+00  8.4026587318E+00  8.4026587318E+00
                       5.6017724878E+00  8.3826388763E+00  5.6017724878E+00
                       5.6017724878E+00  5.6017724878E+00  2.8209060994E+00
                       5.6017724878E+00  5.6017724878E+00  8.3826388763E+00
                       5.6017724878E+00  2.8209060994E+00  5.6017724878E+00
                       8.3826388763E+00  5.6017724878E+00  5.6017724878E+00
                       2.8209060994E+00  5.6017724878E+00  5.6017724878E+00
                       8.2498396650E-20  1.1575802511E-21 -8.1872582398E-21
           xangst8     2.7978842222E+00  2.7978842222E+00  2.7978842222E+00
                       8.3936526667E+00  8.3936526667E+00  8.3936526667E+00
                       5.5957684444E+00  8.3716863178E+00  5.5957684444E+00
                       5.5957684444E+00  5.5957684444E+00  2.8198505711E+00
                       5.5957684444E+00  5.5957684444E+00  8.3716863178E+00
                       5.5957684444E+00  2.8198505711E+00  5.5957684444E+00
                       8.3716863178E+00  5.5957684444E+00  5.5957684444E+00
                       2.8198505711E+00  5.5957684444E+00  5.5957684444E+00
                       6.5902054114E-21 -1.5703624515E-20  9.4440606760E-20
           xangst9     2.7948822005E+00  2.7948822005E+00  2.7948822005E+00
                       8.3846466016E+00  8.3846466016E+00  8.3846466016E+00
                       5.5897644011E+00  8.3607490407E+00  5.5897644011E+00
                       5.5897644011E+00  5.5897644011E+00  2.8187797614E+00
                       5.5897644011E+00  5.5897644011E+00  8.3607490407E+00
                       5.5897644011E+00  2.8187797614E+00  5.5897644011E+00
                       8.3607490407E+00  5.5897644011E+00  5.5897644011E+00
                       2.8187797614E+00  5.5897644011E+00  5.5897644011E+00
                      -3.7618236704E-20  6.1620327705E-20 -2.3749034702E-20
            xcart1     5.3269459235E+00  5.3269459235E+00  5.3269459235E+00
                       1.5980837770E+01  1.5980837770E+01  1.5980837770E+01
                       1.0653891847E+01  1.5965724907E+01  1.0653891847E+01
                       1.0653891847E+01  1.0653891847E+01  5.3420587871E+00
                       1.0653891847E+01  1.0653891847E+01  1.5965724907E+01
                       1.0653891847E+01  5.3420587871E+00  1.0653891847E+01
                       1.5965724907E+01  1.0653891847E+01  1.0653891847E+01
                       5.3420587871E+00  1.0653891847E+01  1.0653891847E+01
                       5.8792571251E-20 -1.3346320979E-19  2.0816183282E-19
            xcart2     5.3212729246E+00  5.3212729246E+00  5.3212729246E+00
                       1.5963818774E+01  1.5963818774E+01  1.5963818774E+01
                       1.0642545849E+01  1.5944843516E+01  1.0642545849E+01
                       1.0642545849E+01  1.0642545849E+01  5.3402481829E+00
                       1.0642545849E+01  1.0642545849E+01  1.5944843516E+01
                       1.0642545849E+01  5.3402481829E+00  1.0642545849E+01
                       1.5944843516E+01  1.0642545849E+01  1.0642545849E+01
                       5.3402481829E+00  1.0642545849E+01  1.0642545849E+01
                      -9.6237006262E-20 -2.8876187883E-19  1.0639438437E-19
            xcart3     5.3155999258E+00  5.3155999258E+00  5.3155999258E+00
                       1.5946799777E+01  1.5946799777E+01  1.5946799777E+01
                       1.0631199852E+01  1.5923997386E+01  1.0631199852E+01
                       1.0631199852E+01  1.0631199852E+01  5.3384023169E+00
                       1.0631199852E+01  1.0631199852E+01  1.5923997386E+01
                       1.0631199852E+01  5.3384023169E+00  1.0631199852E+01
                       1.5923997386E+01  1.0631199852E+01  1.0631199852E+01
                       5.3384023169E+00  1.0631199852E+01  1.0631199852E+01
                      -2.7511762247E-20 -1.7355004280E-19  2.4153766964E-19
            xcart4     5.3099269269E+00  5.3099269269E+00  5.3099269269E+00
                       1.5929780781E+01  1.5929780781E+01  1.5929780781E+01
                       1.0619853854E+01  1.5903127358E+01  1.0619853854E+01
                       1.0619853854E+01  1.0619853854E+01  5.3365803502E+00
                       1.0619853854E+01  1.0619853854E+01  1.5903127358E+01
                       1.0619853854E+01  5.3365803502E+00  1.0619853854E+01
                       1.5903127358E+01  1.0619853854E+01  1.0619853854E+01
                       5.3365803502E+00  1.0619853854E+01  1.0619853854E+01
                      -3.6449646909E-19 -3.4287777073E-19  1.5294231366E-19
            xcart5     5.3042539281E+00  5.3042539281E+00  5.3042539281E+00
                       1.5912761784E+01  1.5912761784E+01  1.5912761784E+01
                       1.0608507856E+01  1.5882339602E+01  1.0608507856E+01
                       1.0608507856E+01  1.0608507856E+01  5.3346761105E+00
                       1.0608507856E+01  1.0608507856E+01  1.5882339602E+01
                       1.0608507856E+01  5.3346761105E+00  1.0608507856E+01
                       1.5882339602E+01  1.0608507856E+01  1.0608507856E+01
                       5.3346761105E+00  1.0608507856E+01  1.0608507856E+01
                       8.3110683702E-19  2.4271786524E-19 -2.5259908379E-19
            xcart6     5.2985809292E+00  5.2985809292E+00  5.2985809292E+00
                       1.5895742788E+01  1.5895742788E+01  1.5895742788E+01
                       1.0597161858E+01  1.5861592684E+01  1.0597161858E+01
                       1.0597161858E+01  1.0597161858E+01  5.3327310329E+00
                       1.0597161858E+01  1.0597161858E+01  1.5861592684E+01
                       1.0597161858E+01  5.3327310329E+00  1.0597161858E+01
                       1.5861592684E+01  1.0597161858E+01  1.0597161858E+01
                       5.3327310329E+00  1.0597161858E+01  1.0597161858E+01
                       4.1701484045E-19  6.7955136382E-19  4.7852721438E-19
            xcart7     5.2929079304E+00  5.2929079304E+00  5.2929079304E+00
                       1.5878723791E+01  1.5878723791E+01  1.5878723791E+01
                       1.0585815861E+01  1.5840891747E+01  1.0585815861E+01
                       1.0585815861E+01  1.0585815861E+01  5.3307399744E+00
                       1.0585815861E+01  1.0585815861E+01  1.5840891747E+01
                       1.0585815861E+01  5.3307399744E+00  1.0585815861E+01
                       1.5840891747E+01  1.0585815861E+01  1.0585815861E+01
                       5.3307399744E+00  1.0585815861E+01  1.0585815861E+01
                       1.5589937607E-19  2.1875096514E-21 -1.5471675852E-20
            xcart8     5.2872349315E+00  5.2872349315E+00  5.2872349315E+00
                       1.5861704795E+01  1.5861704795E+01  1.5861704795E+01
                       1.0574469863E+01  1.5820194411E+01  1.0574469863E+01
                       1.0574469863E+01  1.0574469863E+01  5.3287453150E+00
                       1.0574469863E+01  1.0574469863E+01  1.5820194411E+01
                       1.0574469863E+01  5.3287453150E+00  1.0574469863E+01
                       1.5820194411E+01  1.0574469863E+01  1.0574469863E+01
                       5.3287453150E+00  1.0574469863E+01  1.0574469863E+01
                       1.2453683387E-20 -2.9675549626E-20  1.7846688260E-19
            xcart9     5.2815619327E+00  5.2815619327E+00  5.2815619327E+00
                       1.5844685798E+01  1.5844685798E+01  1.5844685798E+01
                       1.0563123865E+01  1.5799525953E+01  1.0563123865E+01
                       1.0563123865E+01  1.0563123865E+01  5.3267217779E+00
                       1.0563123865E+01  1.0563123865E+01  1.5799525953E+01
                       1.0563123865E+01  5.3267217779E+00  1.0563123865E+01
                       1.5799525953E+01  1.0563123865E+01  1.0563123865E+01
                       5.3267217779E+00  1.0563123865E+01  1.0563123865E+01
                      -7.1088164973E-20  1.1644554358E-19 -4.4879171507E-20
             xred1     2.5000000000E-01  2.5000000000E-01  2.5000000000E-01
                       7.5000000000E-01  7.5000000000E-01  7.5000000000E-01
                       7.4929073508E-01  2.5070926492E-01  7.4929073508E-01
                       2.5070926492E-01  2.5070926492E-01  7.4929073508E-01
                       7.4929073508E-01  7.4929073508E-01  2.5070926492E-01
                       2.5070926492E-01  7.4929073508E-01  2.5070926492E-01
                       2.5070926492E-01  7.4929073508E-01  7.4929073508E-01
                       7.4929073508E-01  2.5070926492E-01  2.5070926492E-01
                       7.4649020348E-22  1.8792081786E-20 -1.3273669163E-20
             xred2     2.5000000000E-01  2.5000000000E-01  2.5000000000E-01
                       7.5000000000E-01  7.5000000000E-01  7.5000000000E-01
                       7.4910851884E-01  2.5089148116E-01  7.4910851884E-01
                       2.5089148116E-01  2.5089148116E-01  7.4910851884E-01
                       7.4910851884E-01  7.4910851884E-01  2.5089148116E-01
                       2.5089148116E-01  7.4910851884E-01  2.5089148116E-01
                       2.5089148116E-01  7.4910851884E-01  7.4910851884E-01
                       7.4910851884E-01  2.5089148116E-01  2.5089148116E-01
                      -4.0465171311E-21  1.4043597330E-20 -2.3086265092E-20
             xred3     2.5000000000E-01  2.5000000000E-01  2.5000000000E-01
                       7.5000000000E-01  7.5000000000E-01  7.5000000000E-01
                       7.4892757208E-01  2.5107242792E-01  7.4892757208E-01
                       2.5107242792E-01  2.5107242792E-01  7.4892757208E-01
                       7.4892757208E-01  7.4892757208E-01  2.5107242792E-01
                       2.5107242792E-01  7.4892757208E-01  2.5107242792E-01
                       2.5107242792E-01  7.4892757208E-01  7.4892757208E-01
                       7.4892757208E-01  2.5107242792E-01  2.5107242792E-01
                       4.4914680573E-21  1.8228231789E-20 -2.0816064078E-20
             xred4     2.5000000000E-01  2.5000000000E-01  2.5000000000E-01
                       7.5000000000E-01  7.5000000000E-01  7.5000000000E-01
                       7.4874511346E-01  2.5125488654E-01  7.4874511346E-01
                       2.5125488654E-01  2.5125488654E-01  7.4874511346E-01
                       7.4874511346E-01  7.4874511346E-01  2.5125488654E-01
                       2.5125488654E-01  7.4874511346E-01  2.5125488654E-01
                       2.5125488654E-01  7.4874511346E-01  7.4874511346E-01
                       7.4874511346E-01  2.5125488654E-01  2.5125488654E-01
                       8.2186164905E-21  6.1829294968E-21 -4.0505103239E-20
             xred5     2.5000000000E-01  2.5000000000E-01  2.5000000000E-01
                       7.5000000000E-01  7.5000000000E-01  7.5000000000E-01
                       7.4856614225E-01  2.5143385775E-01  7.4856614225E-01
                       2.5143385775E-01  2.5143385775E-01  7.4856614225E-01
                       7.4856614225E-01  7.4856614225E-01  2.5143385775E-01
                       2.5143385775E-01  7.4856614225E-01  2.5143385775E-01
                       2.5143385775E-01  7.4856614225E-01  7.4856614225E-01
                       7.4856614225E-01  2.5143385775E-01  2.5143385775E-01
                      -3.9637433793E-20  1.5826442915E-20  6.2516981843E-20
             xred6     2.5000000000E-01  2.5000000000E-01  2.5000000000E-01
                       7.5000000000E-01  7.5000000000E-01  7.5000000000E-01
                       7.4838871463E-01  2.5161128537E-01  7.4838871463E-01
                       2.5161128537E-01  2.5161128537E-01  7.4838871463E-01
                       7.4838871463E-01  7.4838871463E-01  2.5161128537E-01
                       2.5161128537E-01  7.4838871463E-01  2.5161128537E-01
                       2.5161128537E-01  7.4838871463E-01  7.4838871463E-01
                       7.4838871463E-01  2.5161128537E-01  2.5161128537E-01
                       3.4965198591E-20  1.0190968766E-20  2.9160590266E-20
             xred7     2.5000000000E-01  2.5000000000E-01  2.5000000000E-01
                       7.5000000000E-01  7.5000000000E-01  7.5000000000E-01
                       7.4821307849E-01  2.5178692151E-01  7.4821307849E-01
                       2.5178692151E-01  2.5178692151E-01  7.4821307849E-01
                       7.4821307849E-01  7.4821307849E-01  2.5178692151E-01
                       2.5178692151E-01  7.4821307849E-01  2.5178692151E-01
                       2.5178692151E-01  7.4821307849E-01  7.4821307849E-01
                       7.4821307849E-01  2.5178692151E-01  2.5178692151E-01
                      -7.9910488005E-21  6.5295010033E-21  8.1976941531E-21
             xred8     2.5000000000E-01  2.5000000000E-01  2.5000000000E-01
                       7.5000000000E-01  7.5000000000E-01  7.5000000000E-01
                       7.4803723572E-01  2.5196276428E-01  7.4803723572E-01
                       2.5196276428E-01  2.5196276428E-01  7.4803723572E-01
                       7.4803723572E-01  7.4803723572E-01  2.5196276428E-01
                       2.5196276428E-01  7.4803723572E-01  2.5196276428E-01
                       2.5196276428E-01  7.4803723572E-01  7.4803723572E-01
                       7.4803723572E-01  2.5196276428E-01  2.5196276428E-01
                       6.4465477396E-21  1.0430599286E-20 -9.2528869709E-21
             xred9     2.5000000000E-01  2.5000000000E-01  2.5000000000E-01
                       7.5000000000E-01  7.5000000000E-01  7.5000000000E-01
                       7.4786238210E-01  2.5213761790E-01  7.4786238210E-01
                       2.5213761790E-01  2.5213761790E-01  7.4786238210E-01
                       7.4786238210E-01  7.4786238210E-01  2.5213761790E-01
                       2.5213761790E-01  7.4786238210E-01  2.5213761790E-01
                       2.5213761790E-01  7.4786238210E-01  7.4786238210E-01
                       7.4786238210E-01  2.5213761790E-01  2.5213761790E-01
                       6.7524786638E-21 -1.1001143366E-20  4.2713003874E-21
            znucl       55.00000   53.00000   72.00000

================================================================================


- Timing analysis has been suppressed with timopt=0



================================================================================

 Suggested references for the acknowledgment of ABINIT usage.

 The users of ABINIT have little formal obligations with respect to the ABINIT group
 (those specified in the GNU General Public License, http://www.gnu.org/copyleft/gpl.txt).
 However, it is common practice in the scientific literature,
 to acknowledge the efforts of people that have made the research possible.
 In this spirit, please find below suggested citations of work written by ABINIT developers,
 corresponding to implementations inside of ABINIT that you have used in the present run.
 Note also that it will be of great value to readers of publications presenting these results,
 to read papers enabling them to understand the theoretical formalism and details
 of the ABINIT implementation.
 For information on why they are suggested, see also https://docs.abinit.org/theory/acknowledgments.
-
- [1] Implementation of the Projector Augmented-Wave Method in the ABINIT code.
- M. Torrent, F. Jollet, F. Bottin, G. Zerah, and X. Gonze Comput. Mat. Science 42, 337, (2008).
- Comment: PAW calculations. Strong suggestion to cite this paper.
- DOI and bibtex: see https://docs.abinit.org/theory/bibliography/#torrent2008
-
- [2] Libxc: A library of exchange and correlation functionals for density functional theory.
- M.A.L. Marques, M.J.T. Oliveira, T. Burnus, Computer Physics Communications 183, 2227 (2012).
- Comment: to be cited when LibXC is used (negative value of ixc)
- Strong suggestion to cite this paper.
- DOI and bibtex: see https://docs.abinit.org/theory/bibliography/#marques2012
-
- [3] The Abinit project: Impact, environment and recent developments.
- Computer Phys. Comm. 248, 107042 (2020).
- X.Gonze, B. Amadon, G. Antonius, F.Arnardi, L.Baguet, J.-M.Beuken,
- J.Bieder, F.Bottin, J.Bouchet, E.Bousquet, N.Brouwer, F.Bruneval,
- G.Brunin, T.Cavignac, J.-B. Charraud, Wei Chen, M.Cote, S.Cottenier,
- J.Denier, G.Geneste, Ph.Ghosez, M.Giantomassi, Y.Gillet, O.Gingras,
- D.R.Hamann, G.Hautier, Xu He, N.Helbig, N.Holzwarth, Y.Jia, F.Jollet,
- W.Lafargue-Dit-Hauret, K.Lejaeghere, M.A.L.Marques, A.Martin, C.Martins,
- H.P.C. Miranda, F.Naccarato, K. Persson, G.Petretto, V.Planes, Y.Pouillon,
- S.Prokhorenko, F.Ricci, G.-M.Rignanese, A.H.Romero, M.M.Schmitt, M.Torrent,
- M.J.van Setten, B.Van Troeye, M.J.Verstraete, G.Zerah and J.W.Zwanzig
- Comment: the fifth generic paper describing the ABINIT project.
- Note that a version of this paper, that is not formatted for Computer Phys. Comm. 
- is available at https://www.abinit.org/sites/default/files/ABINIT20.pdf .
- The licence allows the authors to put it on the Web.
- DOI and bibtex: see https://docs.abinit.org/theory/bibliography/#gonze2020
-
- [4] ABINIT: Overview, and focus on selected capabilities
- J. Chem. Phys. 152, 124102 (2020).
- A. Romero, D.C. Allan, B. Amadon, G. Antonius, T. Applencourt, L.Baguet,
- J.Bieder, F.Bottin, J.Bouchet, E.Bousquet, F.Bruneval,
- G.Brunin, D.Caliste, M.Cote,
- J.Denier, C. Dreyer, Ph.Ghosez, M.Giantomassi, Y.Gillet, O.Gingras,
- D.R.Hamann, G.Hautier, F.Jollet, G. Jomard,
- A.Martin, 
- H.P.C. Miranda, F.Naccarato, G.Petretto, N.A. Pike, V.Planes,
- S.Prokhorenko, T. Rangel, F.Ricci, G.-M.Rignanese, M.Royo, M.Stengel, M.Torrent,
- M.J.van Setten, B.Van Troeye, M.J.Verstraete, J.Wiktor, J.W.Zwanziger, and X.Gonze.
- Comment: a global overview of ABINIT, with focus on selected capabilities .
- Note that a version of this paper, that is not formatted for J. Chem. Phys 
- is available at https://www.abinit.org/sites/default/files/ABINIT20_JPC.pdf .
- The licence allows the authors to put it on the Web.
- DOI and bibtex: see https://docs.abinit.org/theory/bibliography/#romero2020
-
- [5] Recent developments in the ABINIT software package.
- Computer Phys. Comm. 205, 106 (2016).
- X.Gonze, F.Jollet, F.Abreu Araujo, D.Adams, B.Amadon, T.Applencourt,
- C.Audouze, J.-M.Beuken, J.Bieder, A.Bokhanchuk, E.Bousquet, F.Bruneval
- D.Caliste, M.Cote, F.Dahm, F.Da Pieve, M.Delaveau, M.Di Gennaro,
- B.Dorado, C.Espejo, G.Geneste, L.Genovese, A.Gerossier, M.Giantomassi,
- Y.Gillet, D.R.Hamann, L.He, G.Jomard, J.Laflamme Janssen, S.Le Roux,
- A.Levitt, A.Lherbier, F.Liu, I.Lukacevic, A.Martin, C.Martins,
- M.J.T.Oliveira, S.Ponce, Y.Pouillon, T.Rangel, G.-M.Rignanese,
- A.H.Romero, B.Rousseau, O.Rubel, A.A.Shukri, M.Stankovski, M.Torrent,
- M.J.Van Setten, B.Van Troeye, M.J.Verstraete, D.Waroquier, J.Wiktor,
- B.Xu, A.Zhou, J.W.Zwanziger.
- Comment: the fourth generic paper describing the ABINIT project.
- Note that a version of this paper, that is not formatted for Computer Phys. Comm. 
- is available at https://www.abinit.org/sites/default/files/ABINIT16.pdf .
- The licence allows the authors to put it on the Web.
- DOI and bibtex: see https://docs.abinit.org/theory/bibliography/#gonze2016
-
- Proc.   0 individual time (sec): cpu=       7604.5  wall=       7636.0

================================================================================

 Calculation completed.
.Delivered   0 WARNINGs and  33 COMMENTs to log file.
+Overall time at end (sec) : cpu=      45668.6  wall=      45815.5
