
.Version 9.2.2 of ABINIT 
.(MPI version, prepared for a x86_64_linux_gnu9.3 computer) 

.Copyright (C) 1998-2020 ABINIT group . 
 ABINIT comes with ABSOLUTELY NO WARRANTY.
 It is free software, and you are welcome to redistribute it
 under certain conditions (GNU General Public License,
 see ~abinit/COPYING or http://www.gnu.org/copyleft/gpl.txt).

 ABINIT is a project of the Universite Catholique de Louvain,
 Corning Inc. and other collaborators, see ~abinit/doc/developers/contributors.txt .
 Please read https://docs.abinit.org/theory/acknowledgments for suggested
 acknowledgments of the ABINIT effort.
 For more information, see https://www.abinit.org .

.Starting date : Sun 27 Nov 2022.
- ( at 23h21 )
  
- input  file    -> Cs2TiI6.in
- output file    -> Cs2TiI6.out
- root for input  files -> Cs2TiI6i
- root for output files -> Cs2TiI6o

- inpspheads : Reading pseudopotential header in XML form from 
-   ../../../Psps_for_tests/ATOMICDATA/Cs.GGA_PBE-JTH.xml
- inpspheads : Reading pseudopotential header in XML form from 
-   ../../../Psps_for_tests/ATOMICDATA/Br.GGA_PBE-JTH.xml
- inpspheads : Reading pseudopotential header in XML form from 
-   ../../../Psps_for_tests/ATOMICDATA/Zr.GGA_PBE-JTH.xml

 DATASET   19 : space group Fm -3 m (#225); Bravais cF (face-center cubic)
================================================================================
 Values of the parameters that define the memory need for DATASET 19.
     intxc =       0    ionmov =       0      iscf =      17    lmnmax =      18
     lnmax =       6     mgfft =      50  mpssoang =       3    mqgrid =    3180
     natom =       9  nloc_mem =       2    nspden =       1   nspinor =       1
    nsppol =       1      nsym =      48    n1xccc =       1    ntypat =       3
    occopt =       1   xclevel =       2
-    mband =          42        mffmem =           1         mkmem =          12
       mpw =        5573          nfft =      125000          nkpt =          72
Pmy_natom=         2
 PAW method is used; the additional fine FFT grid is defined by:
   mgfftf=        80    nfftf =    512000
================================================================================
P This job should need less than                     193.684 Mbytes of memory.
  Rough estimation (10% accuracy) of disk space for files :
_ WF disk file :    257.155 Mbytes ; DEN or POT disk file :      3.908 Mbytes.
================================================================================


 DATASET   20 : space group Fm -3 m (#225); Bravais cF (face-center cubic)
================================================================================
 Values of the parameters that define the memory need for DATASET 20.
     intxc =       0    ionmov =       0      iscf =      17    lmnmax =      18
     lnmax =       6     mgfft =      50  mpssoang =       3    mqgrid =    3179
     natom =       9  nloc_mem =       2    nspden =       1   nspinor =       1
    nsppol =       1      nsym =      48    n1xccc =       1    ntypat =       3
    occopt =       1   xclevel =       2
-    mband =          42        mffmem =           1         mkmem =          12
       mpw =        5564          nfft =      125000          nkpt =          72
Pmy_natom=         2
 PAW method is used; the additional fine FFT grid is defined by:
   mgfftf=        80    nfftf =    512000
================================================================================
P This job should need less than                     193.611 Mbytes of memory.
  Rough estimation (10% accuracy) of disk space for files :
_ WF disk file :    256.739 Mbytes ; DEN or POT disk file :      3.908 Mbytes.
================================================================================

--------------------------------------------------------------------------------
------------- Echo of variables that govern the present computation ------------
--------------------------------------------------------------------------------
-
- outvars: echo of selected default values                                      
-   iomode0 =  0 , fftalg0 =112 , wfoptalg0 = 10
-
- outvars: echo of global parameters not present in the input file              
-  max_nthreads =    0
-
 -outvars: echo values of preprocessed input variables --------
            acell19    1.3678991486E+01  1.3678991486E+01  1.3678991486E+01 Bohr
            acell20    1.3672086392E+01  1.3672086392E+01  1.3672086392E+01 Bohr
              amu      1.32905430E+02  7.99040000E+01  9.12240000E+01
           diemac      1.20000000E+01
             ecut      1.60000000E+01 Hartree
-          fftalg         112
           istwfk        2    0    0    0    0    0    3    0    0    0
                         0    0    0    0    0    0    0    0    0    0
                         0    0    0    0    0    0    0    0    0    0
                         0    0    0    0    0    0    0    0    0    0
                         0    0    7    0    0    0    0    0    0    0
                       outvar_i_n : Printing only first  50 k-points.
              ixc     -101130
           jdtset       19   20
              kpt      0.00000000E+00  0.00000000E+00  0.00000000E+00
                       8.33333333E-02  0.00000000E+00  0.00000000E+00
                       1.66666667E-01  0.00000000E+00  0.00000000E+00
                       2.50000000E-01  0.00000000E+00  0.00000000E+00
                       3.33333333E-01  0.00000000E+00  0.00000000E+00
                       4.16666667E-01  0.00000000E+00  0.00000000E+00
                       5.00000000E-01  0.00000000E+00  0.00000000E+00
                       8.33333333E-02  8.33333333E-02  0.00000000E+00
                       1.66666667E-01  8.33333333E-02  0.00000000E+00
                       2.50000000E-01  8.33333333E-02  0.00000000E+00
                       3.33333333E-01  8.33333333E-02  0.00000000E+00
                       4.16666667E-01  8.33333333E-02  0.00000000E+00
                       5.00000000E-01  8.33333333E-02  0.00000000E+00
                      -4.16666667E-01  8.33333333E-02  0.00000000E+00
                      -3.33333333E-01  8.33333333E-02  0.00000000E+00
                      -2.50000000E-01  8.33333333E-02  0.00000000E+00
                      -1.66666667E-01  8.33333333E-02  0.00000000E+00
                      -8.33333333E-02  8.33333333E-02  0.00000000E+00
                       1.66666667E-01  1.66666667E-01  0.00000000E+00
                       2.50000000E-01  1.66666667E-01  0.00000000E+00
                       3.33333333E-01  1.66666667E-01  0.00000000E+00
                       4.16666667E-01  1.66666667E-01  0.00000000E+00
                       5.00000000E-01  1.66666667E-01  0.00000000E+00
                      -4.16666667E-01  1.66666667E-01  0.00000000E+00
                      -3.33333333E-01  1.66666667E-01  0.00000000E+00
                      -2.50000000E-01  1.66666667E-01  0.00000000E+00
                      -1.66666667E-01  1.66666667E-01  0.00000000E+00
                       2.50000000E-01  2.50000000E-01  0.00000000E+00
                       3.33333333E-01  2.50000000E-01  0.00000000E+00
                       4.16666667E-01  2.50000000E-01  0.00000000E+00
                       5.00000000E-01  2.50000000E-01  0.00000000E+00
                      -4.16666667E-01  2.50000000E-01  0.00000000E+00
                      -3.33333333E-01  2.50000000E-01  0.00000000E+00
                      -2.50000000E-01  2.50000000E-01  0.00000000E+00
                       3.33333333E-01  3.33333333E-01  0.00000000E+00
                       4.16666667E-01  3.33333333E-01  0.00000000E+00
                       5.00000000E-01  3.33333333E-01  0.00000000E+00
                      -4.16666667E-01  3.33333333E-01  0.00000000E+00
                      -3.33333333E-01  3.33333333E-01  0.00000000E+00
                       4.16666667E-01  4.16666667E-01  0.00000000E+00
                       5.00000000E-01  4.16666667E-01  0.00000000E+00
                      -4.16666667E-01  4.16666667E-01  0.00000000E+00
                       5.00000000E-01  5.00000000E-01  0.00000000E+00
                       2.50000000E-01  1.66666667E-01  8.33333333E-02
                       3.33333333E-01  1.66666667E-01  8.33333333E-02
                       4.16666667E-01  1.66666667E-01  8.33333333E-02
                       5.00000000E-01  1.66666667E-01  8.33333333E-02
                      -4.16666667E-01  1.66666667E-01  8.33333333E-02
                       3.33333333E-01  2.50000000E-01  8.33333333E-02
                       4.16666667E-01  2.50000000E-01  8.33333333E-02
                       outvar_i_n : Printing only first  50 k-points.
         kptrlatt       12    0    0      0   12    0      0    0   12
          kptrlen19    1.64147898E+02
          kptrlen20    1.64065037E+02
P           mkmem          12
            natom           9
            nband          42
           ndtset           2
            ngfft          50      50      50
          ngfftdg          80      80      80
             nkpt          72
            nstep        2500
             nsym          48
           ntypat           3
              occ      2.000000  2.000000  2.000000  2.000000  2.000000  2.000000
                       2.000000  2.000000  2.000000  2.000000  2.000000  2.000000
                       2.000000  2.000000  2.000000  2.000000  2.000000  2.000000
                       2.000000  2.000000  2.000000  2.000000  2.000000  2.000000
                       2.000000  2.000000  2.000000  2.000000  2.000000  2.000000
                       2.000000  2.000000  2.000000  2.000000  2.000000  2.000000
                       0.000000  0.000000  0.000000  0.000000  0.000000  0.000000
        pawecutdg      4.00000000E+01 Hartree
            prtwf           0
            rprim      0.0000000000E+00  7.0710678119E-01  7.0710678119E-01
                       7.0710678119E-01  0.0000000000E+00  7.0710678119E-01
                       7.0710678119E-01  7.0710678119E-01  0.0000000000E+00
          spgroup         225
           symrel      1  0  0   0  1  0   0  0  1      -1  0  0   0 -1  0   0  0 -1
                       0 -1  1   0 -1  0   1 -1  0       0  1 -1   0  1  0  -1  1  0
                      -1  0  0  -1  0  1  -1  1  0       1  0  0   1  0 -1   1 -1  0
                       0  1 -1   1  0 -1   0  0 -1       0 -1  1  -1  0  1   0  0  1
                      -1  0  0  -1  1  0  -1  0  1       1  0  0   1 -1  0   1  0 -1
                       0 -1  1   1 -1  0   0 -1  0       0  1 -1  -1  1  0   0  1  0
                       1  0  0   0  0  1   0  1  0      -1  0  0   0  0 -1   0 -1  0
                       0  1 -1   0  0 -1   1  0 -1       0 -1  1   0  0  1  -1  0  1
                      -1  0  1  -1  1  0  -1  0  0       1  0 -1   1 -1  0   1  0  0
                       0 -1  0   1 -1  0   0 -1  1       0  1  0  -1  1  0   0  1 -1
                       1  0 -1   0  0 -1   0  1 -1      -1  0  1   0  0  1   0 -1  1
                       0  1  0   0  0  1   1  0  0       0 -1  0   0  0 -1  -1  0  0
                       1  0 -1   0  1 -1   0  0 -1      -1  0  1   0 -1  1   0  0  1
                       0 -1  0   0 -1  1   1 -1  0       0  1  0   0  1 -1  -1  1  0
                      -1  0  1  -1  0  0  -1  1  0       1  0 -1   1  0  0   1 -1  0
                       0  1  0   1  0  0   0  0  1       0 -1  0  -1  0  0   0  0 -1
                       0  0 -1   0  1 -1   1  0 -1       0  0  1   0 -1  1  -1  0  1
                       1 -1  0   0 -1  1   0 -1  0      -1  1  0   0  1 -1   0  1  0
                       0  0  1   1  0  0   0  1  0       0  0 -1  -1  0  0   0 -1  0
                      -1  1  0  -1  0  0  -1  0  1       1 -1  0   1  0  0   1  0 -1
                       0  0  1   0  1  0   1  0  0       0  0 -1   0 -1  0  -1  0  0
                       1 -1  0   0 -1  0   0 -1  1      -1  1  0   0  1  0   0  1 -1
                       0  0 -1   1  0 -1   0  1 -1       0  0  1  -1  0  1   0 -1  1
                      -1  1  0  -1  0  1  -1  0  0       1 -1  0   1  0 -1   1  0  0
           toldfe      1.00000000E-08 Hartree
            typat      1  1  2  2  2  2  2  2  3
           useylm           1
              wtk        0.00058    0.00463    0.00463    0.00463    0.00463    0.00463
                         0.00231    0.00347    0.01389    0.01389    0.01389    0.01389
                         0.01389    0.01389    0.01389    0.01389    0.01389    0.00694
                         0.00347    0.01389    0.01389    0.01389    0.01389    0.01389
                         0.01389    0.01389    0.00694    0.00347    0.01389    0.01389
                         0.01389    0.01389    0.01389    0.00694    0.00347    0.01389
                         0.01389    0.01389    0.00694    0.00347    0.01389    0.00694
                         0.00174    0.01389    0.02778    0.02778    0.02778    0.01389
                         0.01389    0.02778
                       outvars : Printing only first  50 k-points.
           xangst19    2.5592352964E+00  2.5592352964E+00  2.5592352964E+00
                       7.6777058892E+00  7.6777058892E+00  7.6777058892E+00
                       5.1184705928E+00  5.1184705928E+00  2.6000722846E+00
                       5.1184705928E+00  5.1184705928E+00  7.6368689009E+00
                       7.6368689009E+00  5.1184705928E+00  5.1184705928E+00
                       5.1184705928E+00  7.6368689009E+00  5.1184705928E+00
                       5.1184705928E+00  2.6000722846E+00  5.1184705928E+00
                       2.6000722846E+00  5.1184705928E+00  5.1184705928E+00
                       4.8013708578E-20  3.7388033733E-20 -5.1844667296E-20
           xangst20    2.5579434058E+00  2.5579434058E+00  2.5579434058E+00
                       7.6738302174E+00  7.6738302174E+00  7.6738302174E+00
                       5.1158868116E+00  5.1158868116E+00  2.5996011730E+00
                       5.1158868116E+00  5.1158868116E+00  7.6321724502E+00
                       7.6321724502E+00  5.1158868116E+00  5.1158868116E+00
                       5.1158868116E+00  7.6321724502E+00  5.1158868116E+00
                       5.1158868116E+00  2.5996011730E+00  5.1158868116E+00
                       2.5996011730E+00  5.1158868116E+00  5.1158868116E+00
                       6.3687934778E-20  2.9846819075E-20 -5.0299643732E-20
            xcart19    4.8362538198E+00  4.8362538198E+00  4.8362538198E+00
                       1.4508761459E+01  1.4508761459E+01  1.4508761459E+01
                       9.6725076396E+00  9.6725076396E+00  4.9134245437E+00
                       9.6725076396E+00  9.6725076396E+00  1.4431590736E+01
                       1.4431590736E+01  9.6725076396E+00  9.6725076396E+00
                       9.6725076396E+00  1.4431590736E+01  9.6725076396E+00
                       9.6725076396E+00  4.9134245437E+00  9.6725076396E+00
                       4.9134245437E+00  9.6725076396E+00  9.6725076396E+00
                       9.0732759837E-20  7.0653144402E-20 -9.7972222640E-20
            xcart20    4.8338125004E+00  4.8338125004E+00  4.8338125004E+00
                       1.4501437501E+01  1.4501437501E+01  1.4501437501E+01
                       9.6676250008E+00  9.6676250008E+00  4.9125342718E+00
                       9.6676250008E+00  9.6676250008E+00  1.4422715730E+01
                       1.4422715730E+01  9.6676250008E+00  9.6676250008E+00
                       9.6676250008E+00  1.4422715730E+01  9.6676250008E+00
                       9.6676250008E+00  4.9125342718E+00  9.6676250008E+00
                       4.9125342718E+00  9.6676250008E+00  9.6676250008E+00
                       1.2035275470E-19  5.6402313989E-20 -9.5052551235E-20
             xred19    2.5000000000E-01  2.5000000000E-01  2.5000000000E-01
                       7.5000000000E-01  7.5000000000E-01  7.5000000000E-01
                       2.5398917875E-01  2.5398917875E-01  7.4601082125E-01
                       7.4601082125E-01  7.4601082125E-01  2.5398917875E-01
                       2.5398917875E-01  7.4601082125E-01  7.4601082125E-01
                       7.4601082125E-01  2.5398917875E-01  7.4601082125E-01
                       2.5398917875E-01  7.4601082125E-01  2.5398917875E-01
                       7.4601082125E-01  2.5398917875E-01  2.5398917875E-01
                      -6.1024422246E-21 -4.0264949953E-21  1.3406974517E-20
             xred20    2.5000000000E-01  2.5000000000E-01  2.5000000000E-01
                       7.5000000000E-01  7.5000000000E-01  7.5000000000E-01
                       2.5407141213E-01  2.5407141213E-01  7.4592858787E-01
                       7.4592858787E-01  7.4592858787E-01  2.5407141213E-01
                       2.5407141213E-01  7.4592858787E-01  7.4592858787E-01
                       7.4592858787E-01  2.5407141213E-01  7.4592858787E-01
                       2.5407141213E-01  7.4592858787E-01  2.5407141213E-01
                       7.4592858787E-01  2.5407141213E-01  2.5407141213E-01
                      -8.2234774276E-21 -1.6085703843E-21  1.4057621179E-20
            znucl       55.00000   35.00000   40.00000

================================================================================

 chkinp: Checking input parameters for consistency, jdtset=  19.

 chkinp: Checking input parameters for consistency, jdtset=  20.

================================================================================
== DATASET 19 ==================================================================
-   mpi_nproc: 6, omp_nthreads: -1 (-1 if OMP is not activated)


--- !DatasetInfo
iteration_state: {dtset: 19, }
dimensions: {natom: 9, nkpt: 72, mband: 42, nsppol: 1, nspinor: 1, nspden: 1, mpw: 5573, }
cutoff_energies: {ecut:  16.0, pawecutdg:  40.0, }
electrons: {nelect:   7.20000000E+01, charge:   0.00000000E+00, occopt:   1.00000000E+00, tsmear:   1.00000000E-02, }
meta: {optdriver: 0, ionmov: 0, optcell: 0, iscf: 17, paral_kgb: 0, }
...

 Real(R)+Recip(G) space primitive vectors, cartesian coordinates (Bohr,Bohr^-1):
 R(1)=  0.0000000  9.6725076  9.6725076  G(1)= -0.0516929  0.0516929  0.0516929
 R(2)=  9.6725076  0.0000000  9.6725076  G(2)=  0.0516929 -0.0516929  0.0516929
 R(3)=  9.6725076  9.6725076  0.0000000  G(3)=  0.0516929  0.0516929 -0.0516929
 Unit cell volume ucvol=  1.8098694E+03 bohr^3
 Angles (23,13,12)=  6.00000000E+01  6.00000000E+01  6.00000000E+01 degrees

 Coarse grid specifications (used for wave-functions):

 getcut: wavevector=  0.0000  0.0000  0.0000  ngfft=  50  50  50
         ecut(hartree)=     16.000   => boxcut(ratio)=   2.03079

 Fine grid specifications (used for densities):

 getcut: wavevector=  0.0000  0.0000  0.0000  ngfft=  80  80  80
         ecut(hartree)=     40.000   => boxcut(ratio)=   2.05419

--- Pseudopotential description ------------------------------------------------
- pspini: atom type   1  psp file is ../../../Psps_for_tests/ATOMICDATA/Cs.GGA_PBE-JTH.xml
- pspatm: opening atomic psp file    ../../../Psps_for_tests/ATOMICDATA/Cs.GGA_PBE-JTH.xml
- pspatm : Reading pseudopotential header in XML form from ../../../Psps_for_tests/ATOMICDATA/Cs.GGA_PBE-JTH.xml
 Pseudopotential format is: paw10
 basis_size (lnmax)=  6 (lmn_size= 18), orbitals=   0   0   1   1   2   2
 Spheres core radius: rc_sph= 2.20660278
 1 radial meshes are used:
  - mesh 1: r(i)=AA*[exp(BB*(i-1))-1], size=1500 , AA= 0.15922E-03 BB= 0.87573E-02
 Shapefunction is SIN type: shapef(r)=[sin(pi*r/rshp)/(pi*r/rshp)]**2
 Radius for shape functions =  2.00394208
 mmax= 1500
 Radial grid used for partial waves is grid 1
 Radial grid used for projectors is grid 1
 Radial grid used for (t)core density is grid 1
 Radial grid used for Vloc is grid 1
 Radial grid used for pseudo valence density is grid 1
 Mesh size for Vloc has been set to 1341 to avoid numerical noise.
 Compensation charge density is not taken into account in XC energy/potential
 pspatm: atomic psp has been read  and splines computed

- pspini: atom type   2  psp file is ../../../Psps_for_tests/ATOMICDATA/Br.GGA_PBE-JTH.xml
- pspatm: opening atomic psp file    ../../../Psps_for_tests/ATOMICDATA/Br.GGA_PBE-JTH.xml
- pspatm : Reading pseudopotential header in XML form from ../../../Psps_for_tests/ATOMICDATA/Br.GGA_PBE-JTH.xml
 Pseudopotential format is: paw10
 basis_size (lnmax)=  4 (lmn_size=  8), orbitals=   0   0   1   1
 Spheres core radius: rc_sph= 2.20000000
 1 radial meshes are used:
  - mesh 1: r(i)=AA*[exp(BB*(i-1))-1], size= 927 , AA= 0.40483E-03 BB= 0.14169E-01
 Shapefunction is BESSEL type: shapef(r,l)=aa(1,l)*jl(q(1,l)*r)+aa(2,l)*jl(q(2,l)*r)
 Radius for shape functions =  2.02066386
 mmax=  927
 Radial grid used for partial waves is grid 1
 Radial grid used for projectors is grid 1
 Radial grid used for (t)core density is grid 1
 Radial grid used for Vloc is grid 1
 Radial grid used for pseudo valence density is grid 1
 Mesh size for Vloc has been set to  763 to avoid numerical noise.
 Compensation charge density is not taken into account in XC energy/potential
 pspatm: atomic psp has been read  and splines computed

- pspini: atom type   3  psp file is ../../../Psps_for_tests/ATOMICDATA/Zr.GGA_PBE-JTH.xml
- pspatm: opening atomic psp file    ../../../Psps_for_tests/ATOMICDATA/Zr.GGA_PBE-JTH.xml
- pspatm : Reading pseudopotential header in XML form from ../../../Psps_for_tests/ATOMICDATA/Zr.GGA_PBE-JTH.xml
 Pseudopotential format is: paw10
 basis_size (lnmax)=  6 (lmn_size= 18), orbitals=   0   0   1   1   2   2
 Spheres core radius: rc_sph= 2.21000000
 1 radial meshes are used:
  - mesh 1: r(i)=AA*[exp(BB*(i-1))-1], size= 941 , AA= 0.35256E-03 BB= 0.14102E-01
 Shapefunction is BESSEL type: shapef(r,l)=aa(1,l)*jl(q(1,l)*r)+aa(2,l)*jl(q(2,l)*r)
 Radius for shape functions =  2.21000000
 mmax=  941
 Radial grid used for partial waves is grid 1
 Radial grid used for projectors is grid 1
 Radial grid used for (t)core density is grid 1
 Radial grid used for Vloc is grid 1
 Radial grid used for pseudo valence density is grid 1
 Mesh size for Vloc has been set to  777 to avoid numerical noise.
 Compensation charge density is not taken into account in XC energy/potential
 pspatm: atomic psp has been read  and splines computed

   2.16235664E+04                                ecore*ucvol(ha*bohr**3)
--------------------------------------------------------------------------------

_setup2: Arith. and geom. avg. npw (full set) are    5531.466    5531.458

================================================================================

--- !BeginCycle
iteration_state: {dtset: 19, }
solver: {iscf: 17, nstep: 2500, nline: 4, wfoptalg: 10, }
tolerances: {toldfe: 1.00E-08, }
...

     iter   Etot(hartree)      deltaE(h)  residm     nres2
 ETOT  1  -170.35493223540    -1.704E+02 2.795E-01 1.629E+01
 ETOT  2  -170.54449852854    -1.896E-01 2.403E-02 3.773E+00
 ETOT  3  -170.54191516081     2.583E-03 3.313E-03 8.147E-01
 ETOT  4  -170.54245476501    -5.396E-04 3.169E-03 2.978E-02
 ETOT  5  -170.54231686756     1.379E-04 1.541E-03 3.882E-03
 ETOT  6  -170.54234698055    -3.011E-05 1.329E-03 1.658E-04
 ETOT  7  -170.54234778995    -8.094E-07 3.495E-04 3.987E-05
 ETOT  8  -170.54234875922    -9.693E-07 4.664E-04 7.565E-06
 ETOT  9  -170.54234878066    -2.144E-08 1.488E-04 7.482E-07
 ETOT 10  -170.54234879122    -1.056E-08 1.603E-04 8.057E-08
 ETOT 11  -170.54234879208    -8.640E-10 7.184E-05 1.684E-08
 ETOT 12  -170.54234879236    -2.814E-10 8.773E-05 1.444E-09

 At SCF step   12, etot is converged : 
  for the second time, diff in etot=  2.814E-10 < toldfe=  1.000E-08

 Cartesian components of stress tensor (hartree/bohr^3)
  sigma(1 1)= -1.86538391E-04  sigma(3 2)=  0.00000000E+00
  sigma(2 2)= -1.86538391E-04  sigma(3 1)=  0.00000000E+00
  sigma(3 3)= -1.86538391E-04  sigma(2 1)=  0.00000000E+00


--- !ResultsGS
iteration_state: {dtset: 19, }
comment   : Summary of ground state results
lattice_vectors:
- [  0.0000000,   9.6725076,   9.6725076, ]
- [  9.6725076,   0.0000000,   9.6725076, ]
- [  9.6725076,   9.6725076,   0.0000000, ]
lattice_lengths: [  13.67899,   13.67899,   13.67899, ]
lattice_angles: [ 60.000,  60.000,  60.000, ] # degrees, (23, 13, 12)
lattice_volume:   1.8098694E+03
convergence: {deltae: -2.814E-10, res2:  1.444E-09, residm:  8.773E-05, diffor: null, }
etotal    :  -1.70542349E+02
entropy   :   0.00000000E+00
fermie    :   1.14047850E-02
cartesian_stress_tensor: # hartree/bohr^3
- [ -1.86538391E-04,   0.00000000E+00,   0.00000000E+00, ]
- [  0.00000000E+00,  -1.86538391E-04,   0.00000000E+00, ]
- [  0.00000000E+00,   0.00000000E+00,  -1.86538391E-04, ]
pressure_GPa:   5.4881E+00
xred      :
- [  2.5000E-01,   2.5000E-01,   2.5000E-01, Cs]
- [  7.5000E-01,   7.5000E-01,   7.5000E-01, Cs]
- [  2.5399E-01,   2.5399E-01,   7.4601E-01, Br]
- [  7.4601E-01,   7.4601E-01,   2.5399E-01, Br]
- [  2.5399E-01,   7.4601E-01,   7.4601E-01, Br]
- [  7.4601E-01,   2.5399E-01,   7.4601E-01, Br]
- [  2.5399E-01,   7.4601E-01,   2.5399E-01, Br]
- [  7.4601E-01,   2.5399E-01,   2.5399E-01, Br]
- [ -6.1024E-21,  -4.0265E-21,   1.3407E-20, Zr]
cartesian_forces: # hartree/bohr
- [ -1.39190649E-29,   7.00957564E-25,  -9.73012113E-24, ]
- [  1.04392986E-29,   7.00954084E-25,  -9.73014549E-24, ]
- [  4.29244554E-23,  -4.22235013E-23,   1.01823342E-06, ]
- [ -4.29244554E-23,   4.36254094E-23,  -1.01823342E-06, ]
- [ -1.01823342E-06,  -8.05616433E-23,   7.15324658E-23, ]
- [ -8.12625973E-23,  -1.01823342E-06,   7.15324658E-23, ]
- [  8.12625973E-23,   1.01823342E-06,  -9.09927289E-23, ]
- [  1.01823342E-06,  -5.60763267E-24,  -3.42154481E-24, ]
- [ -0.00000000E+00,   7.00954084E-25,  -9.73013157E-24, ]
force_length_stats: {min:   9.75533693E-24, max:   1.01823342E-06, mean:   6.78822282E-07, }
...

 Integrated electronic density in atomic spheres:
 ------------------------------------------------
 Atom  Sphere_radius  Integrated_density
    1        2.20660          5.37147094
    2        2.20660          5.37147094
    3        2.20000          4.96510318
    4        2.20000          4.96510318
    5        2.20000          4.96510318
    6        2.20000          4.96510318
    7        2.20000          4.96510318
    8        2.20000          4.96510318
    9        2.21000          8.88421617

 PAW TEST:
 ==== Compensation charge inside spheres ============
 The following values must be close to each other ...
 Compensation charge over spherical meshes =     -4.899143422213667
 Compensation charge over fine fft grid    =     -4.899136749510412

 ==== Results concerning PAW augmentation regions ====

 Total pseudopotential strength Dij (hartree):
 Atom #  1
   0.40571  -0.13454   0.00000   0.00000   0.00000   0.00000   0.00000   0.00000   0.00000   0.00000   0.00000   0.00000 ...
  -0.13454   0.04029   0.00000   0.00000   0.00000   0.00000   0.00000   0.00000   0.00000   0.00000   0.00000   0.00000 ...
   0.00000   0.00000  -0.08931   0.00000   0.00000  -0.16915   0.00000   0.00000   0.00000   0.00000   0.00000  -0.00000 ...
   0.00000   0.00000   0.00000  -0.08931   0.00000   0.00000  -0.16915   0.00000  -0.00000   0.00000   0.00000   0.00000 ...
   0.00000   0.00000   0.00000   0.00000  -0.08931   0.00000   0.00000  -0.16915   0.00000  -0.00000   0.00000   0.00000 ...
   0.00000   0.00000  -0.16915   0.00000   0.00000   0.39362   0.00000   0.00000   0.00000   0.00000   0.00000   0.00000 ...
   0.00000   0.00000   0.00000  -0.16915   0.00000   0.00000   0.39362   0.00000   0.00000   0.00000   0.00000   0.00000 ...
   0.00000   0.00000   0.00000   0.00000  -0.16915   0.00000   0.00000   0.39362   0.00000   0.00000   0.00000   0.00000 ...
   0.00000   0.00000   0.00000  -0.00000   0.00000   0.00000   0.00000   0.00000   0.00583   0.00000   0.00000   0.00000 ...
   0.00000   0.00000   0.00000   0.00000  -0.00000   0.00000   0.00000   0.00000   0.00000   0.00583   0.00000   0.00000 ...
   0.00000   0.00000   0.00000   0.00000   0.00000   0.00000   0.00000   0.00000   0.00000   0.00000   0.00583   0.00000 ...
   0.00000   0.00000  -0.00000   0.00000   0.00000   0.00000   0.00000   0.00000   0.00000   0.00000   0.00000   0.00583 ...
   ...  only 12  components have been written...
 Atom #  9
   3.03671  -0.88370   0.00000   0.00000   0.00000   0.00000   0.00000   0.00000   0.00000   0.00000   0.00000   0.00000 ...
  -0.88370   0.26387   0.00000   0.00000   0.00000   0.00000   0.00000   0.00000   0.00000   0.00000   0.00000   0.00000 ...
   0.00000   0.00000   0.28235   0.00000   0.00000  -0.05791   0.00000   0.00000   0.00000   0.00000   0.00000   0.00000 ...
   0.00000   0.00000   0.00000   0.28235   0.00000   0.00000  -0.05791   0.00000   0.00000   0.00000   0.00000   0.00000 ...
   0.00000   0.00000   0.00000   0.00000   0.28235   0.00000   0.00000  -0.05791   0.00000   0.00000   0.00000   0.00000 ...
   0.00000   0.00000  -0.05791   0.00000   0.00000   0.01571   0.00000   0.00000   0.00000   0.00000   0.00000   0.00000 ...
   0.00000   0.00000   0.00000  -0.05791   0.00000   0.00000   0.01571   0.00000   0.00000   0.00000   0.00000   0.00000 ...
   0.00000   0.00000   0.00000   0.00000  -0.05791   0.00000   0.00000   0.01571   0.00000   0.00000   0.00000   0.00000 ...
   0.00000   0.00000   0.00000   0.00000   0.00000   0.00000   0.00000   0.00000   0.00080   0.00000   0.00000   0.00000 ...
   0.00000   0.00000   0.00000   0.00000   0.00000   0.00000   0.00000   0.00000   0.00000   0.00080   0.00000   0.00000 ...
   0.00000   0.00000   0.00000   0.00000   0.00000   0.00000   0.00000   0.00000   0.00000   0.00000   0.00088   0.00000 ...
   0.00000   0.00000   0.00000   0.00000   0.00000   0.00000   0.00000   0.00000   0.00000   0.00000   0.00000   0.00080 ...
   ...  only 12  components have been written...


 Augmentation waves occupancies Rhoij:
 Atom #  1
   2.00033  -0.00867   0.00000   0.00000   0.00000   0.00000   0.00000   0.00000   0.00000   0.00000   0.00000   0.00000 ...
  -0.00867   0.22597   0.00000   0.00000   0.00000   0.00000   0.00000   0.00000   0.00000   0.00000   0.00000   0.00000 ...
   0.00000   0.00000   2.01036   0.00000   0.00000  -0.00474   0.00000   0.00000   0.00000   0.00000   0.00000  -0.00243 ...
   0.00000   0.00000   0.00000   2.01036   0.00000   0.00000  -0.00474   0.00000  -0.00243   0.00000   0.00000   0.00000 ...
   0.00000   0.00000   0.00000   0.00000   2.01036   0.00000   0.00000  -0.00474   0.00000  -0.00243   0.00000   0.00000 ...
   0.00000   0.00000  -0.00474   0.00000   0.00000   0.00018   0.00000   0.00000   0.00000   0.00000   0.00000  -0.00001 ...
   0.00000   0.00000   0.00000  -0.00474   0.00000   0.00000   0.00018   0.00000  -0.00001   0.00000   0.00000   0.00000 ...
   0.00000   0.00000   0.00000   0.00000  -0.00474   0.00000   0.00000   0.00018   0.00000  -0.00001   0.00000   0.00000 ...
   0.00000   0.00000   0.00000  -0.00243   0.00000   0.00000  -0.00001   0.00000   0.08785   0.00000   0.00000   0.00000 ...
   0.00000   0.00000   0.00000   0.00000  -0.00243   0.00000   0.00000  -0.00001   0.00000   0.08785   0.00000   0.00000 ...
   0.00000   0.00000   0.00000   0.00000   0.00000   0.00000   0.00000   0.00000   0.00000   0.00000   0.05724   0.00000 ...
   0.00000   0.00000  -0.00243   0.00000   0.00000  -0.00001   0.00000   0.00000   0.00000   0.00000   0.00000   0.08785 ...
   ...  only 12  components have been written...
 Atom #  9
   1.99405  -0.06300   0.00000   0.00000   0.00000   0.00000   0.00000   0.00000   0.00000   0.00000   0.00000   0.00000 ...
  -0.06300   1.09503   0.00000   0.00000   0.00000   0.00000   0.00000   0.00000   0.00000   0.00000   0.00000   0.00000 ...
   0.00000   0.00000   1.96966   0.00000   0.00000  -0.18545   0.00000   0.00000   0.00000   0.00000   0.00000   0.00000 ...
   0.00000   0.00000   0.00000   1.96966   0.00000   0.00000  -0.18545   0.00000   0.00000   0.00000   0.00000   0.00000 ...
   0.00000   0.00000   0.00000   0.00000   1.96966   0.00000   0.00000  -0.18545   0.00000   0.00000   0.00000   0.00000 ...
   0.00000   0.00000  -0.18545   0.00000   0.00000   1.77850   0.00000   0.00000   0.00000   0.00000   0.00000   0.00000 ...
   0.00000   0.00000   0.00000  -0.18545   0.00000   0.00000   1.77850   0.00000   0.00000   0.00000   0.00000   0.00000 ...
   0.00000   0.00000   0.00000   0.00000  -0.18545   0.00000   0.00000   1.77850   0.00000   0.00000   0.00000   0.00000 ...
   0.00000   0.00000   0.00000   0.00000   0.00000   0.00000   0.00000   0.00000   0.54176   0.00000   0.00000   0.00000 ...
   0.00000   0.00000   0.00000   0.00000   0.00000   0.00000   0.00000   0.00000   0.00000   0.54176   0.00000   0.00000 ...
   0.00000   0.00000   0.00000   0.00000   0.00000   0.00000   0.00000   0.00000   0.00000   0.00000   1.55191   0.00000 ...
   0.00000   0.00000   0.00000   0.00000   0.00000   0.00000   0.00000   0.00000   0.00000   0.00000   0.00000   0.54176 ...
   ...  only 12  components have been written...


================================================================================

 ----iterations are completed or convergence reached----

 Mean square residual over all n,k,spin=   39.838E-08; max=  87.727E-06
 reduced coordinates (array xred) for    9 atoms
       0.250000000000      0.250000000000      0.250000000000
       0.750000000000      0.750000000000      0.750000000000
       0.253989178750      0.253989178750      0.746010821250
       0.746010821250      0.746010821250      0.253989178750
       0.253989178750      0.746010821250      0.746010821250
       0.746010821250      0.253989178750      0.746010821250
       0.253989178750      0.746010821250      0.253989178750
       0.746010821250      0.253989178750      0.253989178750
      -0.000000000000     -0.000000000000      0.000000000000
 rms dE/dt=  6.5659E-06; max dE/dt=  9.8489E-06; dE/dt below (all hartree)
    1      -0.000000000000      0.000000000000      0.000000000000
    2       0.000000000000      0.000000000000     -0.000000000000
    3      -0.000009848871     -0.000009848871      0.000000000000
    4       0.000009848871      0.000009848871      0.000000000000
    5      -0.000000000000      0.000009848871      0.000009848871
    6       0.000009848871      0.000000000000      0.000009848871
    7      -0.000009848871      0.000000000000     -0.000009848871
    8       0.000000000000     -0.000009848871     -0.000009848871
    9       0.000000000000      0.000000000000      0.000000000000

 cartesian coordinates (angstrom) at end:
    1      2.55923529639207     2.55923529639207     2.55923529639207
    2      7.67770588917622     7.67770588917622     7.67770588917622
    3      5.11847059278415     5.11847059278415     2.60007228463454
    4      5.11847059278415     5.11847059278415     7.63686890093375
    5      7.63686890093375     5.11847059278415     5.11847059278415
    6      5.11847059278415     7.63686890093375     5.11847059278415
    7      5.11847059278415     2.60007228463454     5.11847059278415
    8      2.60007228463454     5.11847059278415     5.11847059278415
    9      0.00000000000000     0.00000000000000    -0.00000000000000

 cartesian forces (hartree/bohr) at end:
    1     -0.00000000000000     0.00000000000000    -0.00000000000000
    2      0.00000000000000     0.00000000000000    -0.00000000000000
    3      0.00000000000000    -0.00000000000000     0.00000101823342
    4     -0.00000000000000     0.00000000000000    -0.00000101823342
    5     -0.00000101823342    -0.00000000000000     0.00000000000000
    6     -0.00000000000000    -0.00000101823342     0.00000000000000
    7      0.00000000000000     0.00000101823342    -0.00000000000000
    8      0.00000101823342    -0.00000000000000    -0.00000000000000
    9     -0.00000000000000     0.00000000000000    -0.00000000000000
 frms,max,avg= 4.7999984E-07 1.0182334E-06   0.000E+00  0.000E+00  0.000E+00 h/b

 cartesian forces (eV/Angstrom) at end:
    1     -0.00000000000000     0.00000000000000    -0.00000000000000
    2      0.00000000000000     0.00000000000000    -0.00000000000000
    3      0.00000000000000    -0.00000000000000     0.00005235966340
    4     -0.00000000000000     0.00000000000000    -0.00005235966340
    5     -0.00005235966340    -0.00000000000000     0.00000000000000
    6     -0.00000000000000    -0.00005235966340     0.00000000000000
    7      0.00000000000000     0.00005235966340    -0.00000000000000
    8      0.00005235966340    -0.00000000000000    -0.00000000000000
    9     -0.00000000000000     0.00000000000000    -0.00000000000000
 frms,max,avg= 2.4682582E-05 5.2359663E-05   0.000E+00  0.000E+00  0.000E+00 e/A
 length scales= 13.678991486000 13.678991486000 13.678991486000 bohr
              =  7.238610530888  7.238610530888  7.238610530888 angstroms
 prteigrs : about to open file Cs2TiI6o_DS19_EIG
 Fermi (or HOMO) energy (hartree) =   0.01140   Average Vxc (hartree)=  -0.33785
 Eigenvalues (hartree) for nkpt=  72  k points:
 kpt#   1, nband= 42, wtk=  0.00058, kpt=  0.0000  0.0000  0.0000 (reduced coord)
  -1.77892   -0.97164   -0.97164   -0.97164   -0.70309   -0.70182   -0.50095   -0.47707
  -0.47707   -0.47707   -0.47482   -0.47482   -0.23411   -0.23411   -0.23411   -0.22516
  -0.22516   -0.22516   -0.13719   -0.07628   -0.07628   -0.07628   -0.07210   -0.07210
  -0.07210   -0.06608   -0.06608   -0.02508   -0.02508   -0.02508    0.00734    0.00734
   0.00734    0.01140    0.01140    0.01140    0.10522    0.10522    0.10522    0.20403
   0.20403    0.21295
 prteigrs : prtvol=0 or 1, do not print more k-points.


--- !EnergyTerms
iteration_state     : {dtset: 19, }
comment             : Components of total free energy in Hartree
kinetic             :  5.19942251110557E+01
hartree             :  3.05166078848812E+01
xc                  : -6.78556926648261E+01
Ewald energy        : -1.37086979851775E+02
psp_core            :  1.19475837958097E+01
local_psp           : -1.01635178685238E+02
spherical_terms     :  4.15770812524232E+01
total_energy        : -1.70542353157670E+02
total_energy_eV     : -4.64069343616104E+03
...


--- !EnergyTermsDC
iteration_state     : {dtset: 19, }
comment             : '"Double-counting" decomposition of free energy'
band_energy         : -2.24185167537707E+01
Ewald energy        : -1.37086979851775E+02
psp_core            :  1.19475837958097E+01
xc_dc               : -5.34981069311443E+01
spherical_terms     :  3.05136709485190E+01
total_energy_dc     : -1.70542348792362E+02
total_energy_dc_eV  : -4.64069331737496E+03
...


 Cartesian components of stress tensor (hartree/bohr^3)
  sigma(1 1)= -1.86538391E-04  sigma(3 2)=  0.00000000E+00
  sigma(2 2)= -1.86538391E-04  sigma(3 1)=  0.00000000E+00
  sigma(3 3)= -1.86538391E-04  sigma(2 1)=  0.00000000E+00

-Cartesian components of stress tensor (GPa)         [Pressure=  5.4881E+00 GPa]
- sigma(1 1)= -5.48814801E+00  sigma(3 2)=  0.00000000E+00
- sigma(2 2)= -5.48814801E+00  sigma(3 1)=  0.00000000E+00
- sigma(3 3)= -5.48814801E+00  sigma(2 1)=  0.00000000E+00

================================================================================
== DATASET 20 ==================================================================
-   mpi_nproc: 6, omp_nthreads: -1 (-1 if OMP is not activated)


--- !DatasetInfo
iteration_state: {dtset: 20, }
dimensions: {natom: 9, nkpt: 72, mband: 42, nsppol: 1, nspinor: 1, nspden: 1, mpw: 5564, }
cutoff_energies: {ecut:  16.0, pawecutdg:  40.0, }
electrons: {nelect:   7.20000000E+01, charge:   0.00000000E+00, occopt:   1.00000000E+00, tsmear:   1.00000000E-02, }
meta: {optdriver: 0, ionmov: 0, optcell: 0, iscf: 17, paral_kgb: 0, }
...

 Real(R)+Recip(G) space primitive vectors, cartesian coordinates (Bohr,Bohr^-1):
 R(1)=  0.0000000  9.6676250  9.6676250  G(1)= -0.0517190  0.0517190  0.0517190
 R(2)=  9.6676250  0.0000000  9.6676250  G(2)=  0.0517190 -0.0517190  0.0517190
 R(3)=  9.6676250  9.6676250  0.0000000  G(3)=  0.0517190  0.0517190 -0.0517190
 Unit cell volume ucvol=  1.8071300E+03 bohr^3
 Angles (23,13,12)=  6.00000000E+01  6.00000000E+01  6.00000000E+01 degrees

 Coarse grid specifications (used for wave-functions):

 getcut: wavevector=  0.0000  0.0000  0.0000  ngfft=  50  50  50
         ecut(hartree)=     16.000   => boxcut(ratio)=   2.03181

 Fine grid specifications (used for densities):

 getcut: wavevector=  0.0000  0.0000  0.0000  ngfft=  80  80  80
         ecut(hartree)=     40.000   => boxcut(ratio)=   2.05523

--- Pseudopotential description ------------------------------------------------
- pspini: atom type   1  psp file is ../../../Psps_for_tests/ATOMICDATA/Cs.GGA_PBE-JTH.xml
- pspatm: opening atomic psp file    ../../../Psps_for_tests/ATOMICDATA/Cs.GGA_PBE-JTH.xml
- pspatm : Reading pseudopotential header in XML form from ../../../Psps_for_tests/ATOMICDATA/Cs.GGA_PBE-JTH.xml
 Pseudopotential format is: paw10
 basis_size (lnmax)=  6 (lmn_size= 18), orbitals=   0   0   1   1   2   2
 Spheres core radius: rc_sph= 2.20660278
 1 radial meshes are used:
  - mesh 1: r(i)=AA*[exp(BB*(i-1))-1], size=1500 , AA= 0.15922E-03 BB= 0.87573E-02
 Shapefunction is SIN type: shapef(r)=[sin(pi*r/rshp)/(pi*r/rshp)]**2
 Radius for shape functions =  2.00394208
 mmax= 1500
 Radial grid used for partial waves is grid 1
 Radial grid used for projectors is grid 1
 Radial grid used for (t)core density is grid 1
 Radial grid used for Vloc is grid 1
 Radial grid used for pseudo valence density is grid 1
 Mesh size for Vloc has been set to 1341 to avoid numerical noise.
 Compensation charge density is not taken into account in XC energy/potential
 pspatm: atomic psp has been read  and splines computed

- pspini: atom type   2  psp file is ../../../Psps_for_tests/ATOMICDATA/Br.GGA_PBE-JTH.xml
- pspatm: opening atomic psp file    ../../../Psps_for_tests/ATOMICDATA/Br.GGA_PBE-JTH.xml
- pspatm : Reading pseudopotential header in XML form from ../../../Psps_for_tests/ATOMICDATA/Br.GGA_PBE-JTH.xml
 Pseudopotential format is: paw10
 basis_size (lnmax)=  4 (lmn_size=  8), orbitals=   0   0   1   1
 Spheres core radius: rc_sph= 2.20000000
 1 radial meshes are used:
  - mesh 1: r(i)=AA*[exp(BB*(i-1))-1], size= 927 , AA= 0.40483E-03 BB= 0.14169E-01
 Shapefunction is BESSEL type: shapef(r,l)=aa(1,l)*jl(q(1,l)*r)+aa(2,l)*jl(q(2,l)*r)
 Radius for shape functions =  2.02066386
 mmax=  927
 Radial grid used for partial waves is grid 1
 Radial grid used for projectors is grid 1
 Radial grid used for (t)core density is grid 1
 Radial grid used for Vloc is grid 1
 Radial grid used for pseudo valence density is grid 1
 Mesh size for Vloc has been set to  763 to avoid numerical noise.
 Compensation charge density is not taken into account in XC energy/potential
 pspatm: atomic psp has been read  and splines computed

- pspini: atom type   3  psp file is ../../../Psps_for_tests/ATOMICDATA/Zr.GGA_PBE-JTH.xml
- pspatm: opening atomic psp file    ../../../Psps_for_tests/ATOMICDATA/Zr.GGA_PBE-JTH.xml
- pspatm : Reading pseudopotential header in XML form from ../../../Psps_for_tests/ATOMICDATA/Zr.GGA_PBE-JTH.xml
 Pseudopotential format is: paw10
 basis_size (lnmax)=  6 (lmn_size= 18), orbitals=   0   0   1   1   2   2
 Spheres core radius: rc_sph= 2.21000000
 1 radial meshes are used:
  - mesh 1: r(i)=AA*[exp(BB*(i-1))-1], size= 941 , AA= 0.35256E-03 BB= 0.14102E-01
 Shapefunction is BESSEL type: shapef(r,l)=aa(1,l)*jl(q(1,l)*r)+aa(2,l)*jl(q(2,l)*r)
 Radius for shape functions =  2.21000000
 mmax=  941
 Radial grid used for partial waves is grid 1
 Radial grid used for projectors is grid 1
 Radial grid used for (t)core density is grid 1
 Radial grid used for Vloc is grid 1
 Radial grid used for pseudo valence density is grid 1
 Mesh size for Vloc has been set to  777 to avoid numerical noise.
 Compensation charge density is not taken into account in XC energy/potential
 pspatm: atomic psp has been read  and splines computed

--------------------------------------------------------------------------------

_setup2: Arith. and geom. avg. npw (full set) are    5524.299    5524.293

================================================================================

--- !BeginCycle
iteration_state: {dtset: 20, }
solver: {iscf: 17, nstep: 2500, nline: 4, wfoptalg: 10, }
tolerances: {toldfe: 1.00E-08, }
...

     iter   Etot(hartree)      deltaE(h)  residm     nres2
 ETOT  1  -170.34982952685    -1.703E+02 2.455E-01 1.630E+01
 ETOT  2  -170.54395652852    -1.941E-01 1.857E-02 3.804E+00
 ETOT  3  -170.54140090485     2.556E-03 2.867E-03 8.298E-01
 ETOT  4  -170.54192933789    -5.284E-04 1.838E-03 2.990E-02
 ETOT  5  -170.54179267755     1.367E-04 5.855E-04 3.950E-03
 ETOT  6  -170.54182252450    -2.985E-05 1.338E-03 1.664E-04
 ETOT  7  -170.54182328254    -7.580E-07 2.462E-04 4.130E-05
 ETOT  8  -170.54182427345    -9.909E-07 6.094E-04 8.191E-06
 ETOT  9  -170.54182429460    -2.116E-08 2.051E-04 8.319E-07
 ETOT 10  -170.54182430567    -1.107E-08 5.466E-04 8.859E-08
 ETOT 11  -170.54182430657    -8.968E-10 1.731E-04 1.834E-08
 ETOT 12  -170.54182430684    -2.767E-10 3.038E-04 1.582E-09

 At SCF step   12, etot is converged : 
  for the second time, diff in etot=  2.767E-10 < toldfe=  1.000E-08

 Cartesian components of stress tensor (hartree/bohr^3)
  sigma(1 1)= -1.88595544E-04  sigma(3 2)=  0.00000000E+00
  sigma(2 2)= -1.88595544E-04  sigma(3 1)=  0.00000000E+00
  sigma(3 3)= -1.88595544E-04  sigma(2 1)=  0.00000000E+00


--- !ResultsGS
iteration_state: {dtset: 20, }
comment   : Summary of ground state results
lattice_vectors:
- [  0.0000000,   9.6676250,   9.6676250, ]
- [  9.6676250,   0.0000000,   9.6676250, ]
- [  9.6676250,   9.6676250,   0.0000000, ]
lattice_lengths: [  13.67209,   13.67209,   13.67209, ]
lattice_angles: [ 60.000,  60.000,  60.000, ] # degrees, (23, 13, 12)
lattice_volume:   1.8071300E+03
convergence: {deltae: -2.767E-10, res2:  1.582E-09, residm:  3.038E-04, diffor: null, }
etotal    :  -1.70541824E+02
entropy   :   0.00000000E+00
fermie    :   1.18291843E-02
cartesian_stress_tensor: # hartree/bohr^3
- [ -1.88595544E-04,   0.00000000E+00,   0.00000000E+00, ]
- [  0.00000000E+00,  -1.88595544E-04,   0.00000000E+00, ]
- [  0.00000000E+00,   0.00000000E+00,  -1.88595544E-04, ]
pressure_GPa:   5.5487E+00
xred      :
- [  2.5000E-01,   2.5000E-01,   2.5000E-01, Cs]
- [  7.5000E-01,   7.5000E-01,   7.5000E-01, Cs]
- [  2.5407E-01,   2.5407E-01,   7.4593E-01, Br]
- [  7.4593E-01,   7.4593E-01,   2.5407E-01, Br]
- [  2.5407E-01,   7.4593E-01,   7.4593E-01, Br]
- [  7.4593E-01,   2.5407E-01,   7.4593E-01, Br]
- [  2.5407E-01,   7.4593E-01,   2.5407E-01, Br]
- [  7.4593E-01,   2.5407E-01,   2.5407E-01, Br]
- [ -8.2235E-21,  -1.6086E-21,   1.4058E-20, Zr]
cartesian_forces: # hartree/bohr
- [  2.35286912E-23,   1.95763181E-23,  -1.94700933E-23, ]
- [  2.35286895E-23,   1.95763163E-23,  -1.94700846E-23, ]
- [ -1.38680179E-23,   5.33223850E-23,   1.21823122E-06, ]
- [  6.09254039E-23,  -1.41697524E-23,  -1.21823122E-06, ]
- [ -1.21823122E-06,   2.05323394E-23,  -2.04261146E-23, ]
- [  7.55727152E-23,  -1.21823122E-06,  -7.15141137E-23, ]
- [ -2.85153292E-23,   1.21823122E-06,   3.25739306E-23, ]
- [  1.21823122E-06,  -1.56610531E-22,   1.56716755E-22, ]
- [  2.35286930E-23,   1.95763163E-23,  -1.94700915E-23, ]
force_length_stats: {min:   3.62755508E-23, max:   1.21823122E-06, mean:   8.12154146E-07, }
...

 Integrated electronic density in atomic spheres:
 ------------------------------------------------
 Atom  Sphere_radius  Integrated_density
    1        2.20660          5.36726286
    2        2.20660          5.36726286
    3        2.20000          4.96768280
    4        2.20000          4.96768280
    5        2.20000          4.96768280
    6        2.20000          4.96768280
    7        2.20000          4.96768280
    8        2.20000          4.96768280
    9        2.21000          8.88195663

 PAW TEST:
 ==== Compensation charge inside spheres ============
 The following values must be close to each other ...
 Compensation charge over spherical meshes =     -4.899245674196957
 Compensation charge over fine fft grid    =     -4.899239290897738

 ==== Results concerning PAW augmentation regions ====

 Total pseudopotential strength Dij (hartree):
 Atom #  1
   0.40560  -0.13451   0.00000   0.00000   0.00000   0.00000   0.00000   0.00000   0.00000   0.00000   0.00000   0.00000 ...
  -0.13451   0.04028   0.00000   0.00000   0.00000   0.00000   0.00000   0.00000   0.00000   0.00000   0.00000   0.00000 ...
   0.00000   0.00000  -0.08929   0.00000   0.00000  -0.16916   0.00000   0.00000   0.00000   0.00000   0.00000  -0.00000 ...
   0.00000   0.00000   0.00000  -0.08929   0.00000   0.00000  -0.16916   0.00000  -0.00000   0.00000   0.00000   0.00000 ...
   0.00000   0.00000   0.00000   0.00000  -0.08929   0.00000   0.00000  -0.16916   0.00000  -0.00000   0.00000   0.00000 ...
   0.00000   0.00000  -0.16916   0.00000   0.00000   0.39359   0.00000   0.00000   0.00000   0.00000   0.00000   0.00000 ...
   0.00000   0.00000   0.00000  -0.16916   0.00000   0.00000   0.39359   0.00000   0.00000   0.00000   0.00000   0.00000 ...
   0.00000   0.00000   0.00000   0.00000  -0.16916   0.00000   0.00000   0.39359   0.00000   0.00000   0.00000   0.00000 ...
   0.00000   0.00000   0.00000  -0.00000   0.00000   0.00000   0.00000   0.00000   0.00583   0.00000   0.00000   0.00000 ...
   0.00000   0.00000   0.00000   0.00000  -0.00000   0.00000   0.00000   0.00000   0.00000   0.00583   0.00000   0.00000 ...
   0.00000   0.00000   0.00000   0.00000   0.00000   0.00000   0.00000   0.00000   0.00000   0.00000   0.00583   0.00000 ...
   0.00000   0.00000  -0.00000   0.00000   0.00000   0.00000   0.00000   0.00000   0.00000   0.00000   0.00000   0.00583 ...
   ...  only 12  components have been written...
 Atom #  9
   3.03652  -0.88364   0.00000   0.00000   0.00000   0.00000   0.00000   0.00000   0.00000   0.00000   0.00000   0.00000 ...
  -0.88364   0.26386   0.00000   0.00000   0.00000   0.00000   0.00000   0.00000   0.00000   0.00000   0.00000   0.00000 ...
   0.00000   0.00000   0.28241   0.00000   0.00000  -0.05792   0.00000   0.00000   0.00000   0.00000   0.00000   0.00000 ...
   0.00000   0.00000   0.00000   0.28241   0.00000   0.00000  -0.05792   0.00000   0.00000   0.00000   0.00000   0.00000 ...
   0.00000   0.00000   0.00000   0.00000   0.28241   0.00000   0.00000  -0.05792   0.00000   0.00000   0.00000   0.00000 ...
   0.00000   0.00000  -0.05792   0.00000   0.00000   0.01572   0.00000   0.00000   0.00000   0.00000   0.00000   0.00000 ...
   0.00000   0.00000   0.00000  -0.05792   0.00000   0.00000   0.01572   0.00000   0.00000   0.00000   0.00000   0.00000 ...
   0.00000   0.00000   0.00000   0.00000  -0.05792   0.00000   0.00000   0.01572   0.00000   0.00000   0.00000   0.00000 ...
   0.00000   0.00000   0.00000   0.00000   0.00000   0.00000   0.00000   0.00000   0.00087   0.00000   0.00000   0.00000 ...
   0.00000   0.00000   0.00000   0.00000   0.00000   0.00000   0.00000   0.00000   0.00000   0.00087   0.00000   0.00000 ...
   0.00000   0.00000   0.00000   0.00000   0.00000   0.00000   0.00000   0.00000   0.00000   0.00000   0.00094   0.00000 ...
   0.00000   0.00000   0.00000   0.00000   0.00000   0.00000   0.00000   0.00000   0.00000   0.00000   0.00000   0.00087 ...
   ...  only 12  components have been written...


 Augmentation waves occupancies Rhoij:
 Atom #  1
   2.00036  -0.00860   0.00000   0.00000   0.00000   0.00000   0.00000   0.00000   0.00000   0.00000   0.00000   0.00000 ...
  -0.00860   0.22677   0.00000   0.00000   0.00000   0.00000   0.00000   0.00000   0.00000   0.00000   0.00000   0.00000 ...
   0.00000   0.00000   2.01037   0.00000   0.00000  -0.00474   0.00000   0.00000   0.00000   0.00000   0.00000  -0.00245 ...
   0.00000   0.00000   0.00000   2.01037   0.00000   0.00000  -0.00474   0.00000  -0.00245   0.00000   0.00000   0.00000 ...
   0.00000   0.00000   0.00000   0.00000   2.01037   0.00000   0.00000  -0.00474   0.00000  -0.00245   0.00000   0.00000 ...
   0.00000   0.00000  -0.00474   0.00000   0.00000   0.00018   0.00000   0.00000   0.00000   0.00000   0.00000  -0.00001 ...
   0.00000   0.00000   0.00000  -0.00474   0.00000   0.00000   0.00018   0.00000  -0.00001   0.00000   0.00000   0.00000 ...
   0.00000   0.00000   0.00000   0.00000  -0.00474   0.00000   0.00000   0.00018   0.00000  -0.00001   0.00000   0.00000 ...
   0.00000   0.00000   0.00000  -0.00245   0.00000   0.00000  -0.00001   0.00000   0.08827   0.00000   0.00000   0.00000 ...
   0.00000   0.00000   0.00000   0.00000  -0.00245   0.00000   0.00000  -0.00001   0.00000   0.08827   0.00000   0.00000 ...
   0.00000   0.00000   0.00000   0.00000   0.00000   0.00000   0.00000   0.00000   0.00000   0.00000   0.05753   0.00000 ...
   0.00000   0.00000  -0.00245   0.00000   0.00000  -0.00001   0.00000   0.00000   0.00000   0.00000   0.00000   0.08827 ...
   ...  only 12  components have been written...
 Atom #  9
   1.99406  -0.06293   0.00000   0.00000   0.00000   0.00000   0.00000   0.00000   0.00000   0.00000   0.00000   0.00000 ...
  -0.06293   1.09542   0.00000   0.00000   0.00000   0.00000   0.00000   0.00000   0.00000   0.00000   0.00000   0.00000 ...
   0.00000   0.00000   1.96971   0.00000   0.00000  -0.18519   0.00000   0.00000   0.00000   0.00000   0.00000   0.00000 ...
   0.00000   0.00000   0.00000   1.96971   0.00000   0.00000  -0.18519   0.00000   0.00000   0.00000   0.00000   0.00000 ...
   0.00000   0.00000   0.00000   0.00000   1.96971   0.00000   0.00000  -0.18519   0.00000   0.00000   0.00000   0.00000 ...
   0.00000   0.00000  -0.18519   0.00000   0.00000   1.77992   0.00000   0.00000   0.00000   0.00000   0.00000   0.00000 ...
   0.00000   0.00000   0.00000  -0.18519   0.00000   0.00000   1.77992   0.00000   0.00000   0.00000   0.00000   0.00000 ...
   0.00000   0.00000   0.00000   0.00000  -0.18519   0.00000   0.00000   1.77992   0.00000   0.00000   0.00000   0.00000 ...
   0.00000   0.00000   0.00000   0.00000   0.00000   0.00000   0.00000   0.00000   0.54247   0.00000   0.00000   0.00000 ...
   0.00000   0.00000   0.00000   0.00000   0.00000   0.00000   0.00000   0.00000   0.00000   0.54247   0.00000   0.00000 ...
   0.00000   0.00000   0.00000   0.00000   0.00000   0.00000   0.00000   0.00000   0.00000   0.00000   1.55348   0.00000 ...
   0.00000   0.00000   0.00000   0.00000   0.00000   0.00000   0.00000   0.00000   0.00000   0.00000   0.00000   0.54247 ...
   ...  only 12  components have been written...


================================================================================

 ----iterations are completed or convergence reached----

 Mean square residual over all n,k,spin=   52.806E-08; max=  30.385E-05
 reduced coordinates (array xred) for    9 atoms
       0.250000000000      0.250000000000      0.250000000000
       0.750000000000      0.750000000000      0.750000000000
       0.254071412130      0.254071412130      0.745928587870
       0.745928587870      0.745928587870      0.254071412130
       0.254071412130      0.745928587870      0.745928587870
       0.745928587870      0.254071412130      0.745928587870
       0.254071412130      0.745928587870      0.254071412130
       0.745928587870      0.254071412130      0.254071412130
      -0.000000000000     -0.000000000000      0.000000000000
 rms dE/dt=  7.8516E-06; max dE/dt=  1.1777E-05; dE/dt below (all hartree)
    1       0.000000000000      0.000000000000      0.000000000000
    2      -0.000000000000     -0.000000000000      0.000000000000
    3      -0.000011777403     -0.000011777403      0.000000000000
    4       0.000011777403      0.000011777403     -0.000000000000
    5       0.000000000000      0.000011777403      0.000011777403
    6       0.000011777403      0.000000000000      0.000011777403
    7      -0.000011777403      0.000000000000     -0.000011777403
    8      -0.000000000000     -0.000011777403     -0.000011777403
    9       0.000000000000      0.000000000000      0.000000000000

 cartesian coordinates (angstrom) at end:
    1      2.55794340580878     2.55794340580878     2.55794340580878
    2      7.67383021742635     7.67383021742635     7.67383021742635
    3      5.11588681161756     5.11588681161756     2.59960117304984
    4      5.11588681161756     5.11588681161756     7.63217245018529
    5      7.63217245018529     5.11588681161756     5.11588681161756
    6      5.11588681161756     7.63217245018529     5.11588681161756
    7      5.11588681161756     2.59960117304984     5.11588681161756
    8      2.59960117304983     5.11588681161756     5.11588681161756
    9      0.00000000000000     0.00000000000000    -0.00000000000000

 cartesian forces (hartree/bohr) at end:
    1      0.00000000000000     0.00000000000000    -0.00000000000000
    2      0.00000000000000     0.00000000000000    -0.00000000000000
    3     -0.00000000000000     0.00000000000000     0.00000121823122
    4      0.00000000000000    -0.00000000000000    -0.00000121823122
    5     -0.00000121823122     0.00000000000000    -0.00000000000000
    6      0.00000000000000    -0.00000121823122    -0.00000000000000
    7     -0.00000000000000     0.00000121823122     0.00000000000000
    8      0.00000121823122    -0.00000000000000     0.00000000000000
    9      0.00000000000000     0.00000000000000    -0.00000000000000
 frms,max,avg= 5.7427970E-07 1.2182312E-06   0.000E+00  0.000E+00  0.000E+00 h/b

 cartesian forces (eV/Angstrom) at end:
    1      0.00000000000000     0.00000000000000    -0.00000000000000
    2      0.00000000000000     0.00000000000000    -0.00000000000000
    3     -0.00000000000000     0.00000000000000     0.00006264396271
    4      0.00000000000000    -0.00000000000000    -0.00006264396271
    5     -0.00006264396271     0.00000000000000    -0.00000000000000
    6      0.00000000000000    -0.00006264396271    -0.00000000000000
    7     -0.00000000000000     0.00006264396271     0.00000000000000
    8      0.00006264396271    -0.00000000000000     0.00000000000000
    9      0.00000000000000     0.00000000000000    -0.00000000000000
 frms,max,avg= 2.9530647E-05 6.2643963E-05   0.000E+00  0.000E+00  0.000E+00 e/A
 length scales= 13.672086392000 13.672086392000 13.672086392000 bohr
              =  7.234956512520  7.234956512520  7.234956512520 angstroms
 prteigrs : about to open file Cs2TiI6o_DS20_EIG
 Fermi (or HOMO) energy (hartree) =   0.01183   Average Vxc (hartree)=  -0.33814
 Eigenvalues (hartree) for nkpt=  72  k points:
 kpt#   1, nband= 42, wtk=  0.00058, kpt=  0.0000  0.0000  0.0000 (reduced coord)
  -1.77846   -0.97120   -0.97120   -0.97120   -0.70267   -0.70139   -0.50072   -0.47677
  -0.47677   -0.47677   -0.47450   -0.47450   -0.23380   -0.23380   -0.23380   -0.22480
  -0.22480   -0.22480   -0.13705   -0.07601   -0.07601   -0.07601   -0.07175   -0.07175
  -0.07175   -0.06571   -0.06571   -0.02475   -0.02475   -0.02475    0.00780    0.00780
   0.00780    0.01183    0.01183    0.01183    0.10556    0.10556    0.10556    0.20432
   0.20432    0.21353
 prteigrs : prtvol=0 or 1, do not print more k-points.


--- !EnergyTerms
iteration_state     : {dtset: 20, }
comment             : Components of total free energy in Hartree
kinetic             :  5.19989597338688E+01
hartree             :  3.04666590811665E+01
xc                  : -6.78577811078996E+01
Ewald energy        : -1.37179843787440E+02
psp_core            :  1.19656953393051E+01
local_psp           : -1.01512888449980E+02
spherical_terms     :  4.15773714164404E+01
total_energy        : -1.70541827774539E+02
total_energy_eV     : -4.64067913975899E+03
...


--- !EnergyTermsDC
iteration_state     : {dtset: 20, }
comment             : '"Double-counting" decomposition of free energy'
band_energy         : -2.23939435903281E+01
Ewald energy        : -1.37179843787440E+02
psp_core            :  1.19656953393051E+01
xc_dc               : -5.34474187666266E+01
spherical_terms     :  3.05136864982476E+01
total_energy_dc     : -1.70541824306842E+02
total_energy_dc_eV  : -4.64067904539816E+03
...


 Cartesian components of stress tensor (hartree/bohr^3)
  sigma(1 1)= -1.88595544E-04  sigma(3 2)=  0.00000000E+00
  sigma(2 2)= -1.88595544E-04  sigma(3 1)=  0.00000000E+00
  sigma(3 3)= -1.88595544E-04  sigma(2 1)=  0.00000000E+00

-Cartesian components of stress tensor (GPa)         [Pressure=  5.5487E+00 GPa]
- sigma(1 1)= -5.54867155E+00  sigma(3 2)=  0.00000000E+00
- sigma(2 2)= -5.54867155E+00  sigma(3 1)=  0.00000000E+00
- sigma(3 3)= -5.54867155E+00  sigma(2 1)=  0.00000000E+00

== END DATASET(S) ==============================================================
================================================================================
  
 -outvars: echo values of variables after computation  --------
            acell19    1.3678991486E+01  1.3678991486E+01  1.3678991486E+01 Bohr
            acell20    1.3672086392E+01  1.3672086392E+01  1.3672086392E+01 Bohr
              amu      1.32905430E+02  7.99040000E+01  9.12240000E+01
           diemac      1.20000000E+01
             ecut      1.60000000E+01 Hartree
           etotal19   -1.7054234879E+02
           etotal20   -1.7054182431E+02
            fcart19   -1.3919064856E-29  7.0095756389E-25 -9.7301211278E-24
                       1.0439298642E-29  7.0095408413E-25 -9.7301454862E-24
                       4.2924455363E-23 -4.2223501279E-23  1.0182334225E-06
                      -4.2924455363E-23  4.3625409447E-23 -1.0182334225E-06
                      -1.0182334225E-06 -8.0561643263E-23  7.1532465780E-23
                      -8.1262597347E-23 -1.0182334225E-06  7.1532465780E-23
                       8.1262597347E-23  1.0182334225E-06 -9.0992728914E-23
                       1.0182334225E-06 -5.6076326730E-24 -3.4215448100E-24
                      -0.0000000000E+00  7.0095408413E-25 -9.7301315671E-24
            fcart20    2.3528691239E-23  1.9576318077E-23 -1.9470093291E-23
                       2.3528689498E-23  1.9576316336E-23 -1.9470084587E-23
                      -1.3868017895E-23  5.3322385045E-23  1.2182312187E-06
                       6.0925403854E-23 -1.4169752373E-23 -1.2182312187E-06
                      -1.2182312187E-06  2.0532339410E-23 -2.0426114624E-23
                       7.5572715161E-23 -1.2182312187E-06 -7.1514113732E-23
                      -2.8515329203E-23  1.2182312187E-06  3.2573930632E-23
                       1.2182312187E-06 -1.5661053069E-22  1.5671675547E-22
                       2.3528692979E-23  1.9576316336E-23 -1.9470091550E-23
-          fftalg         112
           istwfk        2    0    0    0    0    0    3    0    0    0
                         0    0    0    0    0    0    0    0    0    0
                         0    0    0    0    0    0    0    0    0    0
                         0    0    0    0    0    0    0    0    0    0
                         0    0    7    0    0    0    0    0    0    0
                       outvar_i_n : Printing only first  50 k-points.
              ixc     -101130
           jdtset       19   20
              kpt      0.00000000E+00  0.00000000E+00  0.00000000E+00
                       8.33333333E-02  0.00000000E+00  0.00000000E+00
                       1.66666667E-01  0.00000000E+00  0.00000000E+00
                       2.50000000E-01  0.00000000E+00  0.00000000E+00
                       3.33333333E-01  0.00000000E+00  0.00000000E+00
                       4.16666667E-01  0.00000000E+00  0.00000000E+00
                       5.00000000E-01  0.00000000E+00  0.00000000E+00
                       8.33333333E-02  8.33333333E-02  0.00000000E+00
                       1.66666667E-01  8.33333333E-02  0.00000000E+00
                       2.50000000E-01  8.33333333E-02  0.00000000E+00
                       3.33333333E-01  8.33333333E-02  0.00000000E+00
                       4.16666667E-01  8.33333333E-02  0.00000000E+00
                       5.00000000E-01  8.33333333E-02  0.00000000E+00
                      -4.16666667E-01  8.33333333E-02  0.00000000E+00
                      -3.33333333E-01  8.33333333E-02  0.00000000E+00
                      -2.50000000E-01  8.33333333E-02  0.00000000E+00
                      -1.66666667E-01  8.33333333E-02  0.00000000E+00
                      -8.33333333E-02  8.33333333E-02  0.00000000E+00
                       1.66666667E-01  1.66666667E-01  0.00000000E+00
                       2.50000000E-01  1.66666667E-01  0.00000000E+00
                       3.33333333E-01  1.66666667E-01  0.00000000E+00
                       4.16666667E-01  1.66666667E-01  0.00000000E+00
                       5.00000000E-01  1.66666667E-01  0.00000000E+00
                      -4.16666667E-01  1.66666667E-01  0.00000000E+00
                      -3.33333333E-01  1.66666667E-01  0.00000000E+00
                      -2.50000000E-01  1.66666667E-01  0.00000000E+00
                      -1.66666667E-01  1.66666667E-01  0.00000000E+00
                       2.50000000E-01  2.50000000E-01  0.00000000E+00
                       3.33333333E-01  2.50000000E-01  0.00000000E+00
                       4.16666667E-01  2.50000000E-01  0.00000000E+00
                       5.00000000E-01  2.50000000E-01  0.00000000E+00
                      -4.16666667E-01  2.50000000E-01  0.00000000E+00
                      -3.33333333E-01  2.50000000E-01  0.00000000E+00
                      -2.50000000E-01  2.50000000E-01  0.00000000E+00
                       3.33333333E-01  3.33333333E-01  0.00000000E+00
                       4.16666667E-01  3.33333333E-01  0.00000000E+00
                       5.00000000E-01  3.33333333E-01  0.00000000E+00
                      -4.16666667E-01  3.33333333E-01  0.00000000E+00
                      -3.33333333E-01  3.33333333E-01  0.00000000E+00
                       4.16666667E-01  4.16666667E-01  0.00000000E+00
                       5.00000000E-01  4.16666667E-01  0.00000000E+00
                      -4.16666667E-01  4.16666667E-01  0.00000000E+00
                       5.00000000E-01  5.00000000E-01  0.00000000E+00
                       2.50000000E-01  1.66666667E-01  8.33333333E-02
                       3.33333333E-01  1.66666667E-01  8.33333333E-02
                       4.16666667E-01  1.66666667E-01  8.33333333E-02
                       5.00000000E-01  1.66666667E-01  8.33333333E-02
                      -4.16666667E-01  1.66666667E-01  8.33333333E-02
                       3.33333333E-01  2.50000000E-01  8.33333333E-02
                       4.16666667E-01  2.50000000E-01  8.33333333E-02
                       outvar_i_n : Printing only first  50 k-points.
         kptrlatt       12    0    0      0   12    0      0    0   12
          kptrlen19    1.64147898E+02
          kptrlen20    1.64065037E+02
P           mkmem          12
            natom           9
            nband          42
           ndtset           2
            ngfft          50      50      50
          ngfftdg          80      80      80
             nkpt          72
            nstep        2500
             nsym          48
           ntypat           3
              occ      2.000000  2.000000  2.000000  2.000000  2.000000  2.000000
                       2.000000  2.000000  2.000000  2.000000  2.000000  2.000000
                       2.000000  2.000000  2.000000  2.000000  2.000000  2.000000
                       2.000000  2.000000  2.000000  2.000000  2.000000  2.000000
                       2.000000  2.000000  2.000000  2.000000  2.000000  2.000000
                       2.000000  2.000000  2.000000  2.000000  2.000000  2.000000
                       0.000000  0.000000  0.000000  0.000000  0.000000  0.000000
        pawecutdg      4.00000000E+01 Hartree
            prtwf           0
            rprim      0.0000000000E+00  7.0710678119E-01  7.0710678119E-01
                       7.0710678119E-01  0.0000000000E+00  7.0710678119E-01
                       7.0710678119E-01  7.0710678119E-01  0.0000000000E+00
          spgroup         225
           strten19   -1.8653839093E-04 -1.8653839093E-04 -1.8653839093E-04
                       0.0000000000E+00  0.0000000000E+00  0.0000000000E+00
           strten20   -1.8859554429E-04 -1.8859554429E-04 -1.8859554429E-04
                       0.0000000000E+00  0.0000000000E+00  0.0000000000E+00
           symrel      1  0  0   0  1  0   0  0  1      -1  0  0   0 -1  0   0  0 -1
                       0 -1  1   0 -1  0   1 -1  0       0  1 -1   0  1  0  -1  1  0
                      -1  0  0  -1  0  1  -1  1  0       1  0  0   1  0 -1   1 -1  0
                       0  1 -1   1  0 -1   0  0 -1       0 -1  1  -1  0  1   0  0  1
                      -1  0  0  -1  1  0  -1  0  1       1  0  0   1 -1  0   1  0 -1
                       0 -1  1   1 -1  0   0 -1  0       0  1 -1  -1  1  0   0  1  0
                       1  0  0   0  0  1   0  1  0      -1  0  0   0  0 -1   0 -1  0
                       0  1 -1   0  0 -1   1  0 -1       0 -1  1   0  0  1  -1  0  1
                      -1  0  1  -1  1  0  -1  0  0       1  0 -1   1 -1  0   1  0  0
                       0 -1  0   1 -1  0   0 -1  1       0  1  0  -1  1  0   0  1 -1
                       1  0 -1   0  0 -1   0  1 -1      -1  0  1   0  0  1   0 -1  1
                       0  1  0   0  0  1   1  0  0       0 -1  0   0  0 -1  -1  0  0
                       1  0 -1   0  1 -1   0  0 -1      -1  0  1   0 -1  1   0  0  1
                       0 -1  0   0 -1  1   1 -1  0       0  1  0   0  1 -1  -1  1  0
                      -1  0  1  -1  0  0  -1  1  0       1  0 -1   1  0  0   1 -1  0
                       0  1  0   1  0  0   0  0  1       0 -1  0  -1  0  0   0  0 -1
                       0  0 -1   0  1 -1   1  0 -1       0  0  1   0 -1  1  -1  0  1
                       1 -1  0   0 -1  1   0 -1  0      -1  1  0   0  1 -1   0  1  0
                       0  0  1   1  0  0   0  1  0       0  0 -1  -1  0  0   0 -1  0
                      -1  1  0  -1  0  0  -1  0  1       1 -1  0   1  0  0   1  0 -1
                       0  0  1   0  1  0   1  0  0       0  0 -1   0 -1  0  -1  0  0
                       1 -1  0   0 -1  0   0 -1  1      -1  1  0   0  1  0   0  1 -1
                       0  0 -1   1  0 -1   0  1 -1       0  0  1  -1  0  1   0 -1  1
                      -1  1  0  -1  0  1  -1  0  0       1 -1  0   1  0 -1   1  0  0
           toldfe      1.00000000E-08 Hartree
            typat      1  1  2  2  2  2  2  2  3
           useylm           1
              wtk        0.00058    0.00463    0.00463    0.00463    0.00463    0.00463
                         0.00231    0.00347    0.01389    0.01389    0.01389    0.01389
                         0.01389    0.01389    0.01389    0.01389    0.01389    0.00694
                         0.00347    0.01389    0.01389    0.01389    0.01389    0.01389
                         0.01389    0.01389    0.00694    0.00347    0.01389    0.01389
                         0.01389    0.01389    0.01389    0.00694    0.00347    0.01389
                         0.01389    0.01389    0.00694    0.00347    0.01389    0.00694
                         0.00174    0.01389    0.02778    0.02778    0.02778    0.01389
                         0.01389    0.02778
                       outvars : Printing only first  50 k-points.
           xangst19    2.5592352964E+00  2.5592352964E+00  2.5592352964E+00
                       7.6777058892E+00  7.6777058892E+00  7.6777058892E+00
                       5.1184705928E+00  5.1184705928E+00  2.6000722846E+00
                       5.1184705928E+00  5.1184705928E+00  7.6368689009E+00
                       7.6368689009E+00  5.1184705928E+00  5.1184705928E+00
                       5.1184705928E+00  7.6368689009E+00  5.1184705928E+00
                       5.1184705928E+00  2.6000722846E+00  5.1184705928E+00
                       2.6000722846E+00  5.1184705928E+00  5.1184705928E+00
                       4.8013708578E-20  3.7388033733E-20 -5.1844667296E-20
           xangst20    2.5579434058E+00  2.5579434058E+00  2.5579434058E+00
                       7.6738302174E+00  7.6738302174E+00  7.6738302174E+00
                       5.1158868116E+00  5.1158868116E+00  2.5996011730E+00
                       5.1158868116E+00  5.1158868116E+00  7.6321724502E+00
                       7.6321724502E+00  5.1158868116E+00  5.1158868116E+00
                       5.1158868116E+00  7.6321724502E+00  5.1158868116E+00
                       5.1158868116E+00  2.5996011730E+00  5.1158868116E+00
                       2.5996011730E+00  5.1158868116E+00  5.1158868116E+00
                       6.3687934778E-20  2.9846819075E-20 -5.0299643732E-20
            xcart19    4.8362538198E+00  4.8362538198E+00  4.8362538198E+00
                       1.4508761459E+01  1.4508761459E+01  1.4508761459E+01
                       9.6725076396E+00  9.6725076396E+00  4.9134245437E+00
                       9.6725076396E+00  9.6725076396E+00  1.4431590736E+01
                       1.4431590736E+01  9.6725076396E+00  9.6725076396E+00
                       9.6725076396E+00  1.4431590736E+01  9.6725076396E+00
                       9.6725076396E+00  4.9134245437E+00  9.6725076396E+00
                       4.9134245437E+00  9.6725076396E+00  9.6725076396E+00
                       9.0732759837E-20  7.0653144402E-20 -9.7972222640E-20
            xcart20    4.8338125004E+00  4.8338125004E+00  4.8338125004E+00
                       1.4501437501E+01  1.4501437501E+01  1.4501437501E+01
                       9.6676250008E+00  9.6676250008E+00  4.9125342718E+00
                       9.6676250008E+00  9.6676250008E+00  1.4422715730E+01
                       1.4422715730E+01  9.6676250008E+00  9.6676250008E+00
                       9.6676250008E+00  1.4422715730E+01  9.6676250008E+00
                       9.6676250008E+00  4.9125342718E+00  9.6676250008E+00
                       4.9125342718E+00  9.6676250008E+00  9.6676250008E+00
                       1.2035275470E-19  5.6402313989E-20 -9.5052551235E-20
             xred19    2.5000000000E-01  2.5000000000E-01  2.5000000000E-01
                       7.5000000000E-01  7.5000000000E-01  7.5000000000E-01
                       2.5398917875E-01  2.5398917875E-01  7.4601082125E-01
                       7.4601082125E-01  7.4601082125E-01  2.5398917875E-01
                       2.5398917875E-01  7.4601082125E-01  7.4601082125E-01
                       7.4601082125E-01  2.5398917875E-01  7.4601082125E-01
                       2.5398917875E-01  7.4601082125E-01  2.5398917875E-01
                       7.4601082125E-01  2.5398917875E-01  2.5398917875E-01
                      -6.1024422246E-21 -4.0264949953E-21  1.3406974517E-20
             xred20    2.5000000000E-01  2.5000000000E-01  2.5000000000E-01
                       7.5000000000E-01  7.5000000000E-01  7.5000000000E-01
                       2.5407141213E-01  2.5407141213E-01  7.4592858787E-01
                       7.4592858787E-01  7.4592858787E-01  2.5407141213E-01
                       2.5407141213E-01  7.4592858787E-01  7.4592858787E-01
                       7.4592858787E-01  2.5407141213E-01  7.4592858787E-01
                       2.5407141213E-01  7.4592858787E-01  2.5407141213E-01
                       7.4592858787E-01  2.5407141213E-01  2.5407141213E-01
                      -8.2234774276E-21 -1.6085703843E-21  1.4057621179E-20
            znucl       55.00000   35.00000   40.00000

================================================================================


- Timing analysis has been suppressed with timopt=0



================================================================================

 Suggested references for the acknowledgment of ABINIT usage.

 The users of ABINIT have little formal obligations with respect to the ABINIT group
 (those specified in the GNU General Public License, http://www.gnu.org/copyleft/gpl.txt).
 However, it is common practice in the scientific literature,
 to acknowledge the efforts of people that have made the research possible.
 In this spirit, please find below suggested citations of work written by ABINIT developers,
 corresponding to implementations inside of ABINIT that you have used in the present run.
 Note also that it will be of great value to readers of publications presenting these results,
 to read papers enabling them to understand the theoretical formalism and details
 of the ABINIT implementation.
 For information on why they are suggested, see also https://docs.abinit.org/theory/acknowledgments.
-
- [1] Implementation of the Projector Augmented-Wave Method in the ABINIT code.
- M. Torrent, F. Jollet, F. Bottin, G. Zerah, and X. Gonze Comput. Mat. Science 42, 337, (2008).
- Comment: PAW calculations. Strong suggestion to cite this paper.
- DOI and bibtex: see https://docs.abinit.org/theory/bibliography/#torrent2008
-
- [2] Libxc: A library of exchange and correlation functionals for density functional theory.
- M.A.L. Marques, M.J.T. Oliveira, T. Burnus, Computer Physics Communications 183, 2227 (2012).
- Comment: to be cited when LibXC is used (negative value of ixc)
- Strong suggestion to cite this paper.
- DOI and bibtex: see https://docs.abinit.org/theory/bibliography/#marques2012
-
- [3] The Abinit project: Impact, environment and recent developments.
- Computer Phys. Comm. 248, 107042 (2020).
- X.Gonze, B. Amadon, G. Antonius, F.Arnardi, L.Baguet, J.-M.Beuken,
- J.Bieder, F.Bottin, J.Bouchet, E.Bousquet, N.Brouwer, F.Bruneval,
- G.Brunin, T.Cavignac, J.-B. Charraud, Wei Chen, M.Cote, S.Cottenier,
- J.Denier, G.Geneste, Ph.Ghosez, M.Giantomassi, Y.Gillet, O.Gingras,
- D.R.Hamann, G.Hautier, Xu He, N.Helbig, N.Holzwarth, Y.Jia, F.Jollet,
- W.Lafargue-Dit-Hauret, K.Lejaeghere, M.A.L.Marques, A.Martin, C.Martins,
- H.P.C. Miranda, F.Naccarato, K. Persson, G.Petretto, V.Planes, Y.Pouillon,
- S.Prokhorenko, F.Ricci, G.-M.Rignanese, A.H.Romero, M.M.Schmitt, M.Torrent,
- M.J.van Setten, B.Van Troeye, M.J.Verstraete, G.Zerah and J.W.Zwanzig
- Comment: the fifth generic paper describing the ABINIT project.
- Note that a version of this paper, that is not formatted for Computer Phys. Comm. 
- is available at https://www.abinit.org/sites/default/files/ABINIT20.pdf .
- The licence allows the authors to put it on the Web.
- DOI and bibtex: see https://docs.abinit.org/theory/bibliography/#gonze2020
-
- [4] ABINIT: Overview, and focus on selected capabilities
- J. Chem. Phys. 152, 124102 (2020).
- A. Romero, D.C. Allan, B. Amadon, G. Antonius, T. Applencourt, L.Baguet,
- J.Bieder, F.Bottin, J.Bouchet, E.Bousquet, F.Bruneval,
- G.Brunin, D.Caliste, M.Cote,
- J.Denier, C. Dreyer, Ph.Ghosez, M.Giantomassi, Y.Gillet, O.Gingras,
- D.R.Hamann, G.Hautier, F.Jollet, G. Jomard,
- A.Martin, 
- H.P.C. Miranda, F.Naccarato, G.Petretto, N.A. Pike, V.Planes,
- S.Prokhorenko, T. Rangel, F.Ricci, G.-M.Rignanese, M.Royo, M.Stengel, M.Torrent,
- M.J.van Setten, B.Van Troeye, M.J.Verstraete, J.Wiktor, J.W.Zwanziger, and X.Gonze.
- Comment: a global overview of ABINIT, with focus on selected capabilities .
- Note that a version of this paper, that is not formatted for J. Chem. Phys 
- is available at https://www.abinit.org/sites/default/files/ABINIT20_JPC.pdf .
- The licence allows the authors to put it on the Web.
- DOI and bibtex: see https://docs.abinit.org/theory/bibliography/#romero2020
-
- [5] Recent developments in the ABINIT software package.
- Computer Phys. Comm. 205, 106 (2016).
- X.Gonze, F.Jollet, F.Abreu Araujo, D.Adams, B.Amadon, T.Applencourt,
- C.Audouze, J.-M.Beuken, J.Bieder, A.Bokhanchuk, E.Bousquet, F.Bruneval
- D.Caliste, M.Cote, F.Dahm, F.Da Pieve, M.Delaveau, M.Di Gennaro,
- B.Dorado, C.Espejo, G.Geneste, L.Genovese, A.Gerossier, M.Giantomassi,
- Y.Gillet, D.R.Hamann, L.He, G.Jomard, J.Laflamme Janssen, S.Le Roux,
- A.Levitt, A.Lherbier, F.Liu, I.Lukacevic, A.Martin, C.Martins,
- M.J.T.Oliveira, S.Ponce, Y.Pouillon, T.Rangel, G.-M.Rignanese,
- A.H.Romero, B.Rousseau, O.Rubel, A.A.Shukri, M.Stankovski, M.Torrent,
- M.J.Van Setten, B.Van Troeye, M.J.Verstraete, D.Waroquier, J.Wiktor,
- B.Xu, A.Zhou, J.W.Zwanziger.
- Comment: the fourth generic paper describing the ABINIT project.
- Note that a version of this paper, that is not formatted for Computer Phys. Comm. 
- is available at https://www.abinit.org/sites/default/files/ABINIT16.pdf .
- The licence allows the authors to put it on the Web.
- DOI and bibtex: see https://docs.abinit.org/theory/bibliography/#gonze2016
-
- Proc.   0 individual time (sec): cpu=        449.5  wall=        449.5

================================================================================

 Calculation completed.
.Delivered   0 WARNINGs and   0 COMMENTs to log file.
+Overall time at end (sec) : cpu=       2696.6  wall=       2696.7
