
.Version 9.2.2 of ABINIT 
.(MPI version, prepared for a x86_64_linux_gnu9.3 computer) 

.Copyright (C) 1998-2020 ABINIT group . 
 ABINIT comes with ABSOLUTELY NO WARRANTY.
 It is free software, and you are welcome to redistribute it
 under certain conditions (GNU General Public License,
 see ~abinit/COPYING or http://www.gnu.org/copyleft/gpl.txt).

 ABINIT is a project of the Universite Catholique de Louvain,
 Corning Inc. and other collaborators, see ~abinit/doc/developers/contributors.txt .
 Please read https://docs.abinit.org/theory/acknowledgments for suggested
 acknowledgments of the ABINIT effort.
 For more information, see https://www.abinit.org .

.Starting date : Mon  3 Oct 2022.
- ( at 16h00 )
  
- input  file    -> Cs2TiI6.in
- output file    -> Cs2TiI6.out
- root for input  files -> Cs2TiI6i
- root for output files -> Cs2TiI6o

- inpspheads : Reading pseudopotential header in XML form from 
-   ../../../Psps_for_tests/ATOMICDATA/Cs.GGA_PBE-JTH.xml
- inpspheads : Reading pseudopotential header in XML form from 
-   ../../../Psps_for_tests/ATOMICDATA/Br.GGA_PBE-JTH.xml
- inpspheads : Reading pseudopotential header in XML form from 
-   ../../../Psps_for_tests/ATOMICDATA/Hf.GGA_PBE-JTH.xml

 Symmetries : space group Fm -3 m (#225); Bravais cF (face-center cubic)
================================================================================
 Values of the parameters that define the memory need of the present run
     intxc =       0    ionmov =       0      iscf =      17    lmnmax =      18
     lnmax =       6     mgfft =      54  mpssoang =       3    mqgrid =    3486
     natom =       9  nloc_mem =       2    nspden =       1   nspinor =       1
    nsppol =       1      nsym =      48    n1xccc =       1    ntypat =       3
    occopt =       1   xclevel =       2
-    mband =          42        mffmem =           1         mkmem =          12
       mpw =        7331          nfft =      157464          nkpt =          72
Pmy_natom=         2
 PAW method is used; the additional fine FFT grid is defined by:
   mgfftf=        90    nfftf =    729000
================================================================================
P This job should need less than                     264.642 Mbytes of memory.
  Rough estimation (10% accuracy) of disk space for files :
_ WF disk file :    338.273 Mbytes ; DEN or POT disk file :      5.564 Mbytes.
================================================================================

--------------------------------------------------------------------------------
------------- Echo of variables that govern the present computation ------------
--------------------------------------------------------------------------------
-
- outvars: echo of selected default values                                      
-   iomode0 =  0 , fftalg0 =112 , wfoptalg0 = 10
-
- outvars: echo of global parameters not present in the input file              
-  max_nthreads =    0
-
 -outvars: echo values of preprocessed input variables --------
            acell      1.4994857538E+01  1.4994857538E+01  1.4994857538E+01 Bohr
              amu      1.32905430E+02  7.99040000E+01  1.78490000E+02
           diemac      1.20000000E+01
             ecut      1.60000000E+01 Hartree
-          fftalg         112
           istwfk        2    0    0    0    0    0    3    0    0    0
                         0    0    0    0    0    0    0    0    0    0
                         0    0    0    0    0    0    0    0    0    0
                         0    0    0    0    0    0    0    0    0    0
                         0    0    7    0    0    0    0    0    0    0
                       outvar_i_n : Printing only first  50 k-points.
              ixc     -101130
              kpt      0.00000000E+00  0.00000000E+00  0.00000000E+00
                       8.33333333E-02  0.00000000E+00  0.00000000E+00
                       1.66666667E-01  0.00000000E+00  0.00000000E+00
                       2.50000000E-01  0.00000000E+00  0.00000000E+00
                       3.33333333E-01  0.00000000E+00  0.00000000E+00
                       4.16666667E-01  0.00000000E+00  0.00000000E+00
                       5.00000000E-01  0.00000000E+00  0.00000000E+00
                       8.33333333E-02  8.33333333E-02  0.00000000E+00
                       1.66666667E-01  8.33333333E-02  0.00000000E+00
                       2.50000000E-01  8.33333333E-02  0.00000000E+00
                       3.33333333E-01  8.33333333E-02  0.00000000E+00
                       4.16666667E-01  8.33333333E-02  0.00000000E+00
                       5.00000000E-01  8.33333333E-02  0.00000000E+00
                      -4.16666667E-01  8.33333333E-02  0.00000000E+00
                      -3.33333333E-01  8.33333333E-02  0.00000000E+00
                      -2.50000000E-01  8.33333333E-02  0.00000000E+00
                      -1.66666667E-01  8.33333333E-02  0.00000000E+00
                      -8.33333333E-02  8.33333333E-02  0.00000000E+00
                       1.66666667E-01  1.66666667E-01  0.00000000E+00
                       2.50000000E-01  1.66666667E-01  0.00000000E+00
                       3.33333333E-01  1.66666667E-01  0.00000000E+00
                       4.16666667E-01  1.66666667E-01  0.00000000E+00
                       5.00000000E-01  1.66666667E-01  0.00000000E+00
                      -4.16666667E-01  1.66666667E-01  0.00000000E+00
                      -3.33333333E-01  1.66666667E-01  0.00000000E+00
                      -2.50000000E-01  1.66666667E-01  0.00000000E+00
                      -1.66666667E-01  1.66666667E-01  0.00000000E+00
                       2.50000000E-01  2.50000000E-01  0.00000000E+00
                       3.33333333E-01  2.50000000E-01  0.00000000E+00
                       4.16666667E-01  2.50000000E-01  0.00000000E+00
                       5.00000000E-01  2.50000000E-01  0.00000000E+00
                      -4.16666667E-01  2.50000000E-01  0.00000000E+00
                      -3.33333333E-01  2.50000000E-01  0.00000000E+00
                      -2.50000000E-01  2.50000000E-01  0.00000000E+00
                       3.33333333E-01  3.33333333E-01  0.00000000E+00
                       4.16666667E-01  3.33333333E-01  0.00000000E+00
                       5.00000000E-01  3.33333333E-01  0.00000000E+00
                      -4.16666667E-01  3.33333333E-01  0.00000000E+00
                      -3.33333333E-01  3.33333333E-01  0.00000000E+00
                       4.16666667E-01  4.16666667E-01  0.00000000E+00
                       5.00000000E-01  4.16666667E-01  0.00000000E+00
                      -4.16666667E-01  4.16666667E-01  0.00000000E+00
                       5.00000000E-01  5.00000000E-01  0.00000000E+00
                       2.50000000E-01  1.66666667E-01  8.33333333E-02
                       3.33333333E-01  1.66666667E-01  8.33333333E-02
                       4.16666667E-01  1.66666667E-01  8.33333333E-02
                       5.00000000E-01  1.66666667E-01  8.33333333E-02
                      -4.16666667E-01  1.66666667E-01  8.33333333E-02
                       3.33333333E-01  2.50000000E-01  8.33333333E-02
                       4.16666667E-01  2.50000000E-01  8.33333333E-02
                       outvar_i_n : Printing only first  50 k-points.
         kptrlatt       12    0    0      0   12    0      0    0   12
          kptrlen      1.79938290E+02
P           mkmem          12
            natom           9
            nband          42
            ngfft          54      54      54
          ngfftdg          90      90      90
             nkpt          72
            nstep        2500
             nsym          48
           ntypat           3
              occ      2.000000  2.000000  2.000000  2.000000  2.000000  2.000000
                       2.000000  2.000000  2.000000  2.000000  2.000000  2.000000
                       2.000000  2.000000  2.000000  2.000000  2.000000  2.000000
                       2.000000  2.000000  2.000000  2.000000  2.000000  2.000000
                       2.000000  2.000000  2.000000  2.000000  2.000000  2.000000
                       2.000000  2.000000  2.000000  2.000000  2.000000  2.000000
                       0.000000  0.000000  0.000000  0.000000  0.000000  0.000000
        pawecutdg      4.00000000E+01 Hartree
            prtwf           0
            rprim      0.0000000000E+00  7.0710678119E-01  7.0710678119E-01
                       7.0710678119E-01  0.0000000000E+00  7.0710678119E-01
                       7.0710678119E-01  7.0710678119E-01  0.0000000000E+00
          spgroup         225
           symrel      1  0  0   0  1  0   0  0  1      -1  0  0   0 -1  0   0  0 -1
                       0 -1  1   0 -1  0   1 -1  0       0  1 -1   0  1  0  -1  1  0
                      -1  0  0  -1  0  1  -1  1  0       1  0  0   1  0 -1   1 -1  0
                       0  1 -1   1  0 -1   0  0 -1       0 -1  1  -1  0  1   0  0  1
                      -1  0  0  -1  1  0  -1  0  1       1  0  0   1 -1  0   1  0 -1
                       0 -1  1   1 -1  0   0 -1  0       0  1 -1  -1  1  0   0  1  0
                       1  0  0   0  0  1   0  1  0      -1  0  0   0  0 -1   0 -1  0
                       0  1 -1   0  0 -1   1  0 -1       0 -1  1   0  0  1  -1  0  1
                      -1  0  1  -1  1  0  -1  0  0       1  0 -1   1 -1  0   1  0  0
                       0 -1  0   1 -1  0   0 -1  1       0  1  0  -1  1  0   0  1 -1
                       1  0 -1   0  0 -1   0  1 -1      -1  0  1   0  0  1   0 -1  1
                       0  1  0   0  0  1   1  0  0       0 -1  0   0  0 -1  -1  0  0
                       1  0 -1   0  1 -1   0  0 -1      -1  0  1   0 -1  1   0  0  1
                       0 -1  0   0 -1  1   1 -1  0       0  1  0   0  1 -1  -1  1  0
                      -1  0  1  -1  0  0  -1  1  0       1  0 -1   1  0  0   1 -1  0
                       0  1  0   1  0  0   0  0  1       0 -1  0  -1  0  0   0  0 -1
                       0  0 -1   0  1 -1   1  0 -1       0  0  1   0 -1  1  -1  0  1
                       1 -1  0   0 -1  1   0 -1  0      -1  1  0   0  1 -1   0  1  0
                       0  0  1   1  0  0   0  1  0       0  0 -1  -1  0  0   0 -1  0
                      -1  1  0  -1  0  0  -1  0  1       1 -1  0   1  0  0   1  0 -1
                       0  0  1   0  1  0   1  0  0       0  0 -1   0 -1  0  -1  0  0
                       1 -1  0   0 -1  0   0 -1  1      -1  1  0   0  1  0   0  1 -1
                       0  0 -1   1  0 -1   0  1 -1       0  0  1  -1  0  1   0 -1  1
                      -1  1  0  -1  0  1  -1  0  0       1 -1  0   1  0 -1   1  0  0
           toldfe      1.00000000E-08 Hartree
            typat      1  1  2  2  2  2  2  2  3
           useylm           1
              wtk        0.00058    0.00463    0.00463    0.00463    0.00463    0.00463
                         0.00231    0.00347    0.01389    0.01389    0.01389    0.01389
                         0.01389    0.01389    0.01389    0.01389    0.01389    0.00694
                         0.00347    0.01389    0.01389    0.01389    0.01389    0.01389
                         0.01389    0.01389    0.00694    0.00347    0.01389    0.01389
                         0.01389    0.01389    0.01389    0.00694    0.00347    0.01389
                         0.01389    0.01389    0.00694    0.00347    0.01389    0.00694
                         0.00174    0.01389    0.02778    0.02778    0.02778    0.01389
                         0.01389    0.02778
                       outvars : Printing only first  50 k-points.
           xangst      2.8054238293E+00  2.8054238293E+00  2.8054238293E+00
                       8.4162714879E+00  8.4162714879E+00  8.4162714879E+00
                       5.6108476586E+00  8.5928239515E+00  5.6108476586E+00
                       5.6108476586E+00  5.6108476586E+00  2.6288713657E+00
                       5.6108476586E+00  5.6108476586E+00  8.5928239515E+00
                       5.6108476586E+00  2.6288713657E+00  5.6108476586E+00
                       8.5928239515E+00  5.6108476586E+00  5.6108476586E+00
                       2.6288713657E+00  5.6108476586E+00  5.6108476586E+00
                       1.5933648973E-18 -5.9722236928E-19  1.8004174815E-18
            xcart      5.3014827240E+00  5.3014827240E+00  5.3014827240E+00
                       1.5904448172E+01  1.5904448172E+01  1.5904448172E+01
                       1.0602965448E+01  1.6238083976E+01  1.0602965448E+01
                       1.0602965448E+01  1.0602965448E+01  4.9678469197E+00
                       1.0602965448E+01  1.0602965448E+01  1.6238083976E+01
                       1.0602965448E+01  4.9678469197E+00  1.0602965448E+01
                       1.6238083976E+01  1.0602965448E+01  1.0602965448E+01
                       4.9678469197E+00  1.0602965448E+01  1.0602965448E+01
                       3.0110232856E-18 -1.1285867184E-18  3.4022959649E-18
             xred      2.5000000000E-01  2.5000000000E-01  2.5000000000E-01
                       7.5000000000E-01  7.5000000000E-01  7.5000000000E-01
                       7.6573313645E-01  2.3426686355E-01  7.6573313645E-01
                       2.3426686355E-01  2.3426686355E-01  7.6573313645E-01
                       7.6573313645E-01  7.6573313645E-01  2.3426686355E-01
                       2.3426686355E-01  7.6573313645E-01  2.3426686355E-01
                       2.3426686355E-01  7.6573313645E-01  7.6573313645E-01
                       7.6573313645E-01  2.3426686355E-01  2.3426686355E-01
                      -3.4769237090E-20  3.5565078495E-19 -7.1671430278E-20
            znucl       55.00000   35.00000   72.00000

================================================================================

 chkinp: Checking input parameters for consistency.

================================================================================
== DATASET  1 ==================================================================
-   mpi_nproc: 6, omp_nthreads: -1 (-1 if OMP is not activated)


--- !DatasetInfo
iteration_state: {dtset: 1, }
dimensions: {natom: 9, nkpt: 72, mband: 42, nsppol: 1, nspinor: 1, nspden: 1, mpw: 7331, }
cutoff_energies: {ecut:  16.0, pawecutdg:  40.0, }
electrons: {nelect:   7.20000000E+01, charge:   0.00000000E+00, occopt:   1.00000000E+00, tsmear:   1.00000000E-02, }
meta: {optdriver: 0, ionmov: 0, optcell: 0, iscf: 17, paral_kgb: 0, }
...

 Real(R)+Recip(G) space primitive vectors, cartesian coordinates (Bohr,Bohr^-1):
 R(1)=  0.0000000 10.6029654 10.6029654  G(1)= -0.0471566  0.0471566  0.0471566
 R(2)= 10.6029654  0.0000000 10.6029654  G(2)=  0.0471566 -0.0471566  0.0471566
 R(3)= 10.6029654 10.6029654  0.0000000  G(3)=  0.0471566  0.0471566 -0.0471566
 Unit cell volume ucvol=  2.3840317E+03 bohr^3
 Angles (23,13,12)=  6.00000000E+01  6.00000000E+01  6.00000000E+01 degrees

 Coarse grid specifications (used for wave-functions):

 getcut: wavevector=  0.0000  0.0000  0.0000  ngfft=  54  54  54
         ecut(hartree)=     16.000   => boxcut(ratio)=   2.00067

 Fine grid specifications (used for densities):

 getcut: wavevector=  0.0000  0.0000  0.0000  ngfft=  90  90  90
         ecut(hartree)=     40.000   => boxcut(ratio)=   2.10843

--- Pseudopotential description ------------------------------------------------
- pspini: atom type   1  psp file is ../../../Psps_for_tests/ATOMICDATA/Cs.GGA_PBE-JTH.xml
- pspatm: opening atomic psp file    ../../../Psps_for_tests/ATOMICDATA/Cs.GGA_PBE-JTH.xml
- pspatm : Reading pseudopotential header in XML form from ../../../Psps_for_tests/ATOMICDATA/Cs.GGA_PBE-JTH.xml
 Pseudopotential format is: paw10
 basis_size (lnmax)=  6 (lmn_size= 18), orbitals=   0   0   1   1   2   2
 Spheres core radius: rc_sph= 2.20660278
 1 radial meshes are used:
  - mesh 1: r(i)=AA*[exp(BB*(i-1))-1], size=1500 , AA= 0.15922E-03 BB= 0.87573E-02
 Shapefunction is SIN type: shapef(r)=[sin(pi*r/rshp)/(pi*r/rshp)]**2
 Radius for shape functions =  2.00394208
 mmax= 1500
 Radial grid used for partial waves is grid 1
 Radial grid used for projectors is grid 1
 Radial grid used for (t)core density is grid 1
 Radial grid used for Vloc is grid 1
 Radial grid used for pseudo valence density is grid 1
 Mesh size for Vloc has been set to 1341 to avoid numerical noise.
 Compensation charge density is not taken into account in XC energy/potential
 pspatm: atomic psp has been read  and splines computed

- pspini: atom type   2  psp file is ../../../Psps_for_tests/ATOMICDATA/Br.GGA_PBE-JTH.xml
- pspatm: opening atomic psp file    ../../../Psps_for_tests/ATOMICDATA/Br.GGA_PBE-JTH.xml
- pspatm : Reading pseudopotential header in XML form from ../../../Psps_for_tests/ATOMICDATA/Br.GGA_PBE-JTH.xml
 Pseudopotential format is: paw10
 basis_size (lnmax)=  4 (lmn_size=  8), orbitals=   0   0   1   1
 Spheres core radius: rc_sph= 2.20000000
 1 radial meshes are used:
  - mesh 1: r(i)=AA*[exp(BB*(i-1))-1], size= 927 , AA= 0.40483E-03 BB= 0.14169E-01
 Shapefunction is BESSEL type: shapef(r,l)=aa(1,l)*jl(q(1,l)*r)+aa(2,l)*jl(q(2,l)*r)
 Radius for shape functions =  2.02066386
 mmax=  927
 Radial grid used for partial waves is grid 1
 Radial grid used for projectors is grid 1
 Radial grid used for (t)core density is grid 1
 Radial grid used for Vloc is grid 1
 Radial grid used for pseudo valence density is grid 1
 Mesh size for Vloc has been set to  763 to avoid numerical noise.
 Compensation charge density is not taken into account in XC energy/potential
 pspatm: atomic psp has been read  and splines computed

- pspini: atom type   3  psp file is ../../../Psps_for_tests/ATOMICDATA/Hf.GGA_PBE-JTH.xml
- pspatm: opening atomic psp file    ../../../Psps_for_tests/ATOMICDATA/Hf.GGA_PBE-JTH.xml
- pspatm : Reading pseudopotential header in XML form from ../../../Psps_for_tests/ATOMICDATA/Hf.GGA_PBE-JTH.xml
 Pseudopotential format is: paw10
 basis_size (lnmax)=  6 (lmn_size= 18), orbitals=   0   0   1   1   2   2
 Spheres core radius: rc_sph= 2.41000000
 1 radial meshes are used:
  - mesh 1: r(i)=AA*[exp(BB*(i-1))-1], size= 972 , AA= 0.19796E-03 BB= 0.14253E-01
 Shapefunction is SIN type: shapef(r)=[sin(pi*r/rshp)/(pi*r/rshp)]**2
 Radius for shape functions =  2.41000000
 mmax=  972
 Radial grid used for partial waves is grid 1
 Radial grid used for projectors is grid 1
 Radial grid used for (t)core density is grid 1
 Radial grid used for Vloc is grid 1
 Radial grid used for pseudo valence density is grid 1
 Mesh size for Vloc has been set to  809 to avoid numerical noise.
 Compensation charge density is not taken into account in XC energy/potential
 pspatm: atomic psp has been read  and splines computed

   2.70510764E+04                                ecore*ucvol(ha*bohr**3)
--------------------------------------------------------------------------------

_setup2: Arith. and geom. avg. npw (full set) are    7286.862    7286.847

================================================================================

--- !BeginCycle
iteration_state: {dtset: 1, }
solver: {iscf: 17, nstep: 2500, nline: 4, wfoptalg: 10, }
tolerances: {toldfe: 1.00E-08, }
...

     iter   Etot(hartree)      deltaE(h)  residm     nres2
 ETOT  1  -170.88837646104    -1.709E+02 9.629E+00 4.948E+00
 ETOT  2  -173.13031746545    -2.242E+00 2.353E-02 4.065E+00
 ETOT  3  -173.10965689506     2.066E-02 1.693E-02 7.464E-01
 ETOT  4  -173.10890994449     7.470E-04 8.965E-03 1.217E-01
 ETOT  5  -173.10904998872    -1.400E-04 4.696E-03 1.368E-02
 ETOT  6  -173.10914750537    -9.752E-05 2.474E-03 1.325E-03
 ETOT  7  -173.10916436925    -1.686E-05 2.286E-03 2.202E-04
 ETOT  8  -173.10916663906    -2.270E-06 2.344E-03 5.758E-06
 ETOT  9  -173.10916674213    -1.031E-07 2.144E-03 1.228E-06
 ETOT 10  -173.10916674261    -4.834E-10 2.124E-03 1.787E-07
 ETOT 11  -173.10916674268    -6.938E-11 1.122E-03 3.109E-08

 At SCF step   11, etot is converged : 
  for the second time, diff in etot=  6.938E-11 < toldfe=  1.000E-08

 Cartesian components of stress tensor (hartree/bohr^3)
  sigma(1 1)=  4.07321274E-06  sigma(3 2)=  0.00000000E+00
  sigma(2 2)=  4.07321274E-06  sigma(3 1)=  0.00000000E+00
  sigma(3 3)=  4.07321274E-06  sigma(2 1)=  0.00000000E+00


--- !ResultsGS
iteration_state: {dtset: 1, }
comment   : Summary of ground state results
lattice_vectors:
- [  0.0000000,  10.6029654,  10.6029654, ]
- [ 10.6029654,   0.0000000,  10.6029654, ]
- [ 10.6029654,  10.6029654,   0.0000000, ]
lattice_lengths: [  14.99486,   14.99486,   14.99486, ]
lattice_angles: [ 60.000,  60.000,  60.000, ] # degrees, (23, 13, 12)
lattice_volume:   2.3840317E+03
convergence: {deltae: -6.938E-11, res2:  3.109E-08, residm:  1.122E-03, diffor: null, }
etotal    :  -1.73109167E+02
entropy   :   0.00000000E+00
fermie    :  -8.20178539E-02
cartesian_stress_tensor: # hartree/bohr^3
- [  4.07321274E-06,   0.00000000E+00,   0.00000000E+00, ]
- [  0.00000000E+00,   4.07321274E-06,   0.00000000E+00, ]
- [  0.00000000E+00,   0.00000000E+00,   4.07321274E-06, ]
pressure_GPa:  -1.1984E-01
xred      :
- [  2.5000E-01,   2.5000E-01,   2.5000E-01, Cs]
- [  7.5000E-01,   7.5000E-01,   7.5000E-01, Cs]
- [  7.6573E-01,   2.3427E-01,   7.6573E-01, Br]
- [  2.3427E-01,   2.3427E-01,   7.6573E-01, Br]
- [  7.6573E-01,   7.6573E-01,   2.3427E-01, Br]
- [  2.3427E-01,   7.6573E-01,   2.3427E-01, Br]
- [  2.3427E-01,   7.6573E-01,   7.6573E-01, Br]
- [  7.6573E-01,   2.3427E-01,   2.3427E-01, Br]
- [ -3.4769E-20,   3.5565E-19,  -7.1671E-20, Hf]
cartesian_forces: # hartree/bohr
- [  1.26285238E-44,  -1.88229664E-22,  -2.16766047E-22, ]
- [  1.42848050E-28,  -1.88229737E-22,  -2.16765987E-22, ]
- [  2.56830814E-22,  -7.78586714E-06,  -4.73597115E-22, ]
- [  2.43516410E-22,  -4.58374761E-22,   7.78586714E-06, ]
- [ -8.82607768E-22,   7.21007030E-22,  -7.78586714E-06, ]
- [ -2.56830814E-22,   7.78586714E-06,   4.00645127E-23, ]
- [ -7.78586714E-06,   6.86012698E-23,  -4.73597115E-22, ]
- [  7.78586714E-06,  -4.45060357E-22,   4.00645127E-23, ]
- [ -0.00000000E+00,  -1.88229544E-22,  -2.16766301E-22, ]
force_length_stats: {min:   2.87085224E-22, max:   7.78586714E-06, mean:   5.19057809E-06, }
...

 Integrated electronic density in atomic spheres:
 ------------------------------------------------
 Atom  Sphere_radius  Integrated_density
    1        2.20660          5.37066435
    2        2.20660          5.37066435
    3        2.20000          4.93482766
    4        2.20000          4.93482766
    5        2.20000          4.93482766
    6        2.20000          4.93482766
    7        2.20000          4.93482766
    8        2.20000          4.93482766
    9        2.41000          9.28168961

 PAW TEST:
 ==== Compensation charge inside spheres ============
 The following values must be close to each other ...
 Compensation charge over spherical meshes =     -0.267664939806270
 Compensation charge over fine fft grid    =     -0.267666610331534

 ==== Results concerning PAW augmentation regions ====

 Total pseudopotential strength Dij (hartree):
 Atom #  1
   0.43181  -0.14304   0.00000   0.00000   0.00000   0.00000   0.00000   0.00000   0.00000   0.00000   0.00000   0.00000 ...
  -0.14304   0.04304   0.00000   0.00000   0.00000   0.00000   0.00000   0.00000   0.00000   0.00000   0.00000   0.00000 ...
   0.00000   0.00000  -0.09256   0.00000   0.00000  -0.16715   0.00000   0.00000   0.00000   0.00000   0.00000  -0.00000 ...
   0.00000   0.00000   0.00000  -0.09256   0.00000   0.00000  -0.16715   0.00000  -0.00000   0.00000   0.00000   0.00000 ...
   0.00000   0.00000   0.00000   0.00000  -0.09256   0.00000   0.00000  -0.16715   0.00000  -0.00000   0.00000   0.00000 ...
   0.00000   0.00000  -0.16715   0.00000   0.00000   0.40142   0.00000   0.00000   0.00000   0.00000   0.00000   0.00000 ...
   0.00000   0.00000   0.00000  -0.16715   0.00000   0.00000   0.40142   0.00000   0.00000   0.00000   0.00000   0.00000 ...
   0.00000   0.00000   0.00000   0.00000  -0.16715   0.00000   0.00000   0.40142   0.00000   0.00000   0.00000   0.00000 ...
   0.00000   0.00000   0.00000  -0.00000   0.00000   0.00000   0.00000   0.00000   0.00537   0.00000   0.00000   0.00000 ...
   0.00000   0.00000   0.00000   0.00000  -0.00000   0.00000   0.00000   0.00000   0.00000   0.00537   0.00000   0.00000 ...
   0.00000   0.00000   0.00000   0.00000   0.00000   0.00000   0.00000   0.00000   0.00000   0.00000   0.00537   0.00000 ...
   0.00000   0.00000  -0.00000   0.00000   0.00000   0.00000   0.00000   0.00000   0.00000   0.00000   0.00000   0.00537 ...
   ...  only 12  components have been written...
 Atom #  9
  -3.50605   0.42383   0.00000   0.00000   0.00000   0.00000   0.00000   0.00000   0.00000   0.00000   0.00000   0.00000 ...
   0.42383   0.00368   0.00000   0.00000   0.00000   0.00000   0.00000   0.00000   0.00000   0.00000   0.00000   0.00000 ...
   0.00000   0.00000  -1.43557   0.00000   0.00000   0.11929   0.00000   0.00000   0.00000   0.00000   0.00000   0.00000 ...
   0.00000   0.00000   0.00000  -1.43557   0.00000   0.00000   0.11929   0.00000   0.00000   0.00000   0.00000   0.00000 ...
   0.00000   0.00000   0.00000   0.00000  -1.43557   0.00000   0.00000   0.11929   0.00000   0.00000   0.00000   0.00000 ...
   0.00000   0.00000   0.11929   0.00000   0.00000   0.01405   0.00000   0.00000   0.00000   0.00000   0.00000   0.00000 ...
   0.00000   0.00000   0.00000   0.11929   0.00000   0.00000   0.01405   0.00000   0.00000   0.00000   0.00000   0.00000 ...
   0.00000   0.00000   0.00000   0.00000   0.11929   0.00000   0.00000   0.01405   0.00000   0.00000   0.00000   0.00000 ...
   0.00000   0.00000   0.00000   0.00000   0.00000   0.00000   0.00000   0.00000  -0.39011   0.00000   0.00000   0.00000 ...
   0.00000   0.00000   0.00000   0.00000   0.00000   0.00000   0.00000   0.00000   0.00000  -0.39011   0.00000   0.00000 ...
   0.00000   0.00000   0.00000   0.00000   0.00000   0.00000   0.00000   0.00000   0.00000   0.00000  -0.38944   0.00000 ...
   0.00000   0.00000   0.00000   0.00000   0.00000   0.00000   0.00000   0.00000   0.00000   0.00000   0.00000  -0.39011 ...
   ...  only 12  components have been written...


 Augmentation waves occupancies Rhoij:
 Atom #  1
   1.99732  -0.01581   0.00000   0.00000   0.00000   0.00000   0.00000   0.00000   0.00000   0.00000   0.00000   0.00000 ...
  -0.01581   0.11372   0.00000   0.00000   0.00000   0.00000   0.00000   0.00000   0.00000   0.00000   0.00000   0.00000 ...
   0.00000   0.00000   2.00971   0.00000   0.00000  -0.00496   0.00000   0.00000   0.00000   0.00000   0.00000   0.00173 ...
   0.00000   0.00000   0.00000   2.00971   0.00000   0.00000  -0.00496   0.00000   0.00173   0.00000   0.00000   0.00000 ...
   0.00000   0.00000   0.00000   0.00000   2.00971   0.00000   0.00000  -0.00496   0.00000   0.00173   0.00000   0.00000 ...
   0.00000   0.00000  -0.00496   0.00000   0.00000   0.00008   0.00000   0.00000   0.00000   0.00000   0.00000  -0.00011 ...
   0.00000   0.00000   0.00000  -0.00496   0.00000   0.00000   0.00008   0.00000  -0.00011   0.00000   0.00000   0.00000 ...
   0.00000   0.00000   0.00000   0.00000  -0.00496   0.00000   0.00000   0.00008   0.00000  -0.00011   0.00000   0.00000 ...
   0.00000   0.00000   0.00000   0.00173   0.00000   0.00000  -0.00011   0.00000   0.03528   0.00000   0.00000   0.00000 ...
   0.00000   0.00000   0.00000   0.00000   0.00173   0.00000   0.00000  -0.00011   0.00000   0.03528   0.00000   0.00000 ...
   0.00000   0.00000   0.00000   0.00000   0.00000   0.00000   0.00000   0.00000   0.00000   0.00000   0.02219   0.00000 ...
   0.00000   0.00000   0.00173   0.00000   0.00000  -0.00011   0.00000   0.00000   0.00000   0.00000   0.00000   0.03528 ...
   ...  only 12  components have been written...
 Atom #  9
   1.99774  -0.02305   0.00000   0.00000   0.00000   0.00000   0.00000   0.00000   0.00000   0.00000   0.00000   0.00000 ...
  -0.02305   0.99817   0.00000   0.00000   0.00000   0.00000   0.00000   0.00000   0.00000   0.00000   0.00000   0.00000 ...
   0.00000   0.00000   1.99182   0.00000   0.00000  -0.07158   0.00000   0.00000   0.00000   0.00000   0.00000   0.00000 ...
   0.00000   0.00000   0.00000   1.99182   0.00000   0.00000  -0.07158   0.00000   0.00000   0.00000   0.00000   0.00000 ...
   0.00000   0.00000   0.00000   0.00000   1.99182   0.00000   0.00000  -0.07158   0.00000   0.00000   0.00000   0.00000 ...
   0.00000   0.00000  -0.07158   0.00000   0.00000   1.29462   0.00000   0.00000   0.00000   0.00000   0.00000   0.00000 ...
   0.00000   0.00000   0.00000  -0.07158   0.00000   0.00000   1.29462   0.00000   0.00000   0.00000   0.00000   0.00000 ...
   0.00000   0.00000   0.00000   0.00000  -0.07158   0.00000   0.00000   1.29462   0.00000   0.00000   0.00000   0.00000 ...
   0.00000   0.00000   0.00000   0.00000   0.00000   0.00000   0.00000   0.00000   0.47780   0.00000   0.00000   0.00000 ...
   0.00000   0.00000   0.00000   0.00000   0.00000   0.00000   0.00000   0.00000   0.00000   0.47780   0.00000   0.00000 ...
   0.00000   0.00000   0.00000   0.00000   0.00000   0.00000   0.00000   0.00000   0.00000   0.00000   1.46992   0.00000 ...
   0.00000   0.00000   0.00000   0.00000   0.00000   0.00000   0.00000   0.00000   0.00000   0.00000   0.00000   0.47780 ...
   ...  only 12  components have been written...


================================================================================

 ----iterations are completed or convergence reached----

 Mean square residual over all n,k,spin=   43.254E-07; max=  11.221E-04
 reduced coordinates (array xred) for    9 atoms
       0.250000000000      0.250000000000      0.250000000000
       0.750000000000      0.750000000000      0.750000000000
       0.765733136450      0.234266863550      0.765733136450
       0.234266863550      0.234266863550      0.765733136450
       0.765733136450      0.765733136450      0.234266863550
       0.234266863550      0.765733136450      0.234266863550
       0.234266863550      0.765733136450      0.765733136450
       0.765733136450      0.234266863550      0.234266863550
      -0.000000000000      0.000000000000     -0.000000000000
 rms dE/dt=  5.5036E-05; max dE/dt=  8.2553E-05; dE/dt below (all hartree)
    1      -0.000000000000     -0.000000000000      0.000000000000
    2      -0.000000000000     -0.000000000000      0.000000000000
    3       0.000082553280      0.000000000000      0.000082553280
    4      -0.000082553280     -0.000082553280      0.000000000000
    5       0.000082553280      0.000082553280     -0.000000000000
    6      -0.000082553280      0.000000000000     -0.000082553280
    7       0.000000000000      0.000082553280      0.000082553280
    8      -0.000000000000     -0.000082553280     -0.000082553280
    9       0.000000000000      0.000000000000      0.000000000000

 cartesian coordinates (angstrom) at end:
    1      2.80542382930030     2.80542382930030     2.80542382930030
    2      8.41627148790091     8.41627148790091     8.41627148790091
    3      5.61084765860061     8.59282395152676     5.61084765860061
    4      5.61084765860061     5.61084765860061     2.62887136567445
    5      5.61084765860061     5.61084765860061     8.59282395152676
    6      5.61084765860061     2.62887136567445     5.61084765860061
    7      8.59282395152676     5.61084765860061     5.61084765860061
    8      2.62887136567445     5.61084765860061     5.61084765860061
    9      0.00000000000000    -0.00000000000000     0.00000000000000

 cartesian forces (hartree/bohr) at end:
    1      0.00000000000000    -0.00000000000000    -0.00000000000000
    2      0.00000000000000    -0.00000000000000    -0.00000000000000
    3      0.00000000000000    -0.00000778586714    -0.00000000000000
    4      0.00000000000000    -0.00000000000000     0.00000778586714
    5     -0.00000000000000     0.00000000000000    -0.00000778586714
    6     -0.00000000000000     0.00000778586714     0.00000000000000
    7     -0.00000778586714     0.00000000000000    -0.00000000000000
    8      0.00000778586714    -0.00000000000000     0.00000000000000
    9     -0.00000000000000    -0.00000000000000    -0.00000000000000
 frms,max,avg= 3.6702930E-06 7.7858671E-06   0.000E+00  0.000E+00  0.000E+00 h/b

 cartesian forces (eV/Angstrom) at end:
    1      0.00000000000000    -0.00000000000000    -0.00000000000000
    2      0.00000000000000    -0.00000000000000    -0.00000000000000
    3      0.00000000000000    -0.00040036535220    -0.00000000000000
    4      0.00000000000000    -0.00000000000000     0.00040036535220
    5     -0.00000000000000     0.00000000000000    -0.00040036535220
    6     -0.00000000000000     0.00040036535220     0.00000000000000
    7     -0.00040036535220     0.00000000000000    -0.00000000000000
    8      0.00040036535220    -0.00000000000000     0.00000000000000
    9     -0.00000000000000    -0.00000000000000    -0.00000000000000
 frms,max,avg= 1.8873404E-04 4.0036535E-04   0.000E+00  0.000E+00  0.000E+00 e/A
 length scales= 14.994857538000 14.994857538000 14.994857538000 bohr
              =  7.934936855164  7.934936855164  7.934936855164 angstroms
 prteigrs : about to open file Cs2TiI6o_EIG
 Fermi (or HOMO) energy (hartree) =  -0.08202   Average Vxc (hartree)=  -0.28688
 Eigenvalues (hartree) for nkpt=  72  k points:
 kpt#   1, nband= 42, wtk=  0.00058, kpt=  0.0000  0.0000  0.0000 (reduced coord)
  -2.35443   -1.19852   -1.19852   -1.19852   -0.80556   -0.80533   -0.57399   -0.55642
  -0.55642   -0.55642   -0.55633   -0.55633   -0.32356   -0.32356   -0.32356   -0.32096
  -0.32096   -0.32096   -0.20941   -0.15413   -0.15413   -0.15413   -0.15327   -0.15327
  -0.15210   -0.15210   -0.15210   -0.10654   -0.10654   -0.10654   -0.09102   -0.09102
  -0.09102   -0.08202   -0.08202   -0.08202    0.04140    0.04140    0.04140    0.09134
   0.12731    0.12732
 prteigrs : prtvol=0 or 1, do not print more k-points.


--- !EnergyTerms
iteration_state     : {dtset: 1, }
comment             : Components of total free energy in Hartree
kinetic             :  4.44235317537402E+01
hartree             :  4.13027630964060E+01
xc                  : -6.94083363574401E+01
Ewald energy        : -1.18267527867227E+02
psp_core            :  1.13467769312277E+01
local_psp           : -9.42304765161237E+01
spherical_terms     :  1.17240580092451E+01
total_energy        : -1.73109210950172E+02
total_energy_eV     : -4.71054118886685E+03
...


--- !EnergyTermsDC
iteration_state     : {dtset: 1, }
comment             : '"Double-counting" decomposition of free energy'
band_energy         : -3.03545561784669E+01
Ewald energy        : -1.18267527867227E+02
psp_core            :  1.13467769312277E+01
xc_dc               : -7.00586363126831E+01
spherical_terms     :  3.42247766844713E+01
total_energy_dc     : -1.73109166742678E+02
total_energy_dc_eV  : -4.71053998591976E+03
...


 Cartesian components of stress tensor (hartree/bohr^3)
  sigma(1 1)=  4.07321274E-06  sigma(3 2)=  0.00000000E+00
  sigma(2 2)=  4.07321274E-06  sigma(3 1)=  0.00000000E+00
  sigma(3 3)=  4.07321274E-06  sigma(2 1)=  0.00000000E+00

-Cartesian components of stress tensor (GPa)         [Pressure= -1.1984E-01 GPa]
- sigma(1 1)=  1.19838036E-01  sigma(3 2)=  0.00000000E+00
- sigma(2 2)=  1.19838036E-01  sigma(3 1)=  0.00000000E+00
- sigma(3 3)=  1.19838036E-01  sigma(2 1)=  0.00000000E+00

== END DATASET(S) ==============================================================
================================================================================
  
 -outvars: echo values of variables after computation  --------
            acell      1.4994857538E+01  1.4994857538E+01  1.4994857538E+01 Bohr
              amu      1.32905430E+02  7.99040000E+01  1.78490000E+02
           diemac      1.20000000E+01
             ecut      1.60000000E+01 Hartree
           etotal     -1.7310916674E+02
            fcart      1.2628523812E-44 -1.8822966446E-22 -2.1676604695E-22
                       1.4284804996E-28 -1.8822973747E-22 -2.1676598664E-22
                       2.5683081363E-22 -7.7858671423E-06 -4.7359711453E-22
                       2.4351641036E-22 -4.5837476074E-22  7.7858671423E-06
                      -8.8260776750E-22  7.2100703022E-22 -7.7858671423E-06
                      -2.5683081363E-22  7.7858671423E-06  4.0064512725E-23
                      -7.7858671423E-06  6.8601269795E-23 -4.7359711453E-22
                       7.7858671423E-06 -4.4506035746E-22  4.0064512725E-23
                      -0.0000000000E+00 -1.8822954383E-22 -2.1676630090E-22
-          fftalg         112
           istwfk        2    0    0    0    0    0    3    0    0    0
                         0    0    0    0    0    0    0    0    0    0
                         0    0    0    0    0    0    0    0    0    0
                         0    0    0    0    0    0    0    0    0    0
                         0    0    7    0    0    0    0    0    0    0
                       outvar_i_n : Printing only first  50 k-points.
              ixc     -101130
              kpt      0.00000000E+00  0.00000000E+00  0.00000000E+00
                       8.33333333E-02  0.00000000E+00  0.00000000E+00
                       1.66666667E-01  0.00000000E+00  0.00000000E+00
                       2.50000000E-01  0.00000000E+00  0.00000000E+00
                       3.33333333E-01  0.00000000E+00  0.00000000E+00
                       4.16666667E-01  0.00000000E+00  0.00000000E+00
                       5.00000000E-01  0.00000000E+00  0.00000000E+00
                       8.33333333E-02  8.33333333E-02  0.00000000E+00
                       1.66666667E-01  8.33333333E-02  0.00000000E+00
                       2.50000000E-01  8.33333333E-02  0.00000000E+00
                       3.33333333E-01  8.33333333E-02  0.00000000E+00
                       4.16666667E-01  8.33333333E-02  0.00000000E+00
                       5.00000000E-01  8.33333333E-02  0.00000000E+00
                      -4.16666667E-01  8.33333333E-02  0.00000000E+00
                      -3.33333333E-01  8.33333333E-02  0.00000000E+00
                      -2.50000000E-01  8.33333333E-02  0.00000000E+00
                      -1.66666667E-01  8.33333333E-02  0.00000000E+00
                      -8.33333333E-02  8.33333333E-02  0.00000000E+00
                       1.66666667E-01  1.66666667E-01  0.00000000E+00
                       2.50000000E-01  1.66666667E-01  0.00000000E+00
                       3.33333333E-01  1.66666667E-01  0.00000000E+00
                       4.16666667E-01  1.66666667E-01  0.00000000E+00
                       5.00000000E-01  1.66666667E-01  0.00000000E+00
                      -4.16666667E-01  1.66666667E-01  0.00000000E+00
                      -3.33333333E-01  1.66666667E-01  0.00000000E+00
                      -2.50000000E-01  1.66666667E-01  0.00000000E+00
                      -1.66666667E-01  1.66666667E-01  0.00000000E+00
                       2.50000000E-01  2.50000000E-01  0.00000000E+00
                       3.33333333E-01  2.50000000E-01  0.00000000E+00
                       4.16666667E-01  2.50000000E-01  0.00000000E+00
                       5.00000000E-01  2.50000000E-01  0.00000000E+00
                      -4.16666667E-01  2.50000000E-01  0.00000000E+00
                      -3.33333333E-01  2.50000000E-01  0.00000000E+00
                      -2.50000000E-01  2.50000000E-01  0.00000000E+00
                       3.33333333E-01  3.33333333E-01  0.00000000E+00
                       4.16666667E-01  3.33333333E-01  0.00000000E+00
                       5.00000000E-01  3.33333333E-01  0.00000000E+00
                      -4.16666667E-01  3.33333333E-01  0.00000000E+00
                      -3.33333333E-01  3.33333333E-01  0.00000000E+00
                       4.16666667E-01  4.16666667E-01  0.00000000E+00
                       5.00000000E-01  4.16666667E-01  0.00000000E+00
                      -4.16666667E-01  4.16666667E-01  0.00000000E+00
                       5.00000000E-01  5.00000000E-01  0.00000000E+00
                       2.50000000E-01  1.66666667E-01  8.33333333E-02
                       3.33333333E-01  1.66666667E-01  8.33333333E-02
                       4.16666667E-01  1.66666667E-01  8.33333333E-02
                       5.00000000E-01  1.66666667E-01  8.33333333E-02
                      -4.16666667E-01  1.66666667E-01  8.33333333E-02
                       3.33333333E-01  2.50000000E-01  8.33333333E-02
                       4.16666667E-01  2.50000000E-01  8.33333333E-02
                       outvar_i_n : Printing only first  50 k-points.
         kptrlatt       12    0    0      0   12    0      0    0   12
          kptrlen      1.79938290E+02
P           mkmem          12
            natom           9
            nband          42
            ngfft          54      54      54
          ngfftdg          90      90      90
             nkpt          72
            nstep        2500
             nsym          48
           ntypat           3
              occ      2.000000  2.000000  2.000000  2.000000  2.000000  2.000000
                       2.000000  2.000000  2.000000  2.000000  2.000000  2.000000
                       2.000000  2.000000  2.000000  2.000000  2.000000  2.000000
                       2.000000  2.000000  2.000000  2.000000  2.000000  2.000000
                       2.000000  2.000000  2.000000  2.000000  2.000000  2.000000
                       2.000000  2.000000  2.000000  2.000000  2.000000  2.000000
                       0.000000  0.000000  0.000000  0.000000  0.000000  0.000000
        pawecutdg      4.00000000E+01 Hartree
            prtwf           0
            rprim      0.0000000000E+00  7.0710678119E-01  7.0710678119E-01
                       7.0710678119E-01  0.0000000000E+00  7.0710678119E-01
                       7.0710678119E-01  7.0710678119E-01  0.0000000000E+00
          spgroup         225
           strten      4.0732127423E-06  4.0732127423E-06  4.0732127423E-06
                       0.0000000000E+00  0.0000000000E+00  0.0000000000E+00
           symrel      1  0  0   0  1  0   0  0  1      -1  0  0   0 -1  0   0  0 -1
                       0 -1  1   0 -1  0   1 -1  0       0  1 -1   0  1  0  -1  1  0
                      -1  0  0  -1  0  1  -1  1  0       1  0  0   1  0 -1   1 -1  0
                       0  1 -1   1  0 -1   0  0 -1       0 -1  1  -1  0  1   0  0  1
                      -1  0  0  -1  1  0  -1  0  1       1  0  0   1 -1  0   1  0 -1
                       0 -1  1   1 -1  0   0 -1  0       0  1 -1  -1  1  0   0  1  0
                       1  0  0   0  0  1   0  1  0      -1  0  0   0  0 -1   0 -1  0
                       0  1 -1   0  0 -1   1  0 -1       0 -1  1   0  0  1  -1  0  1
                      -1  0  1  -1  1  0  -1  0  0       1  0 -1   1 -1  0   1  0  0
                       0 -1  0   1 -1  0   0 -1  1       0  1  0  -1  1  0   0  1 -1
                       1  0 -1   0  0 -1   0  1 -1      -1  0  1   0  0  1   0 -1  1
                       0  1  0   0  0  1   1  0  0       0 -1  0   0  0 -1  -1  0  0
                       1  0 -1   0  1 -1   0  0 -1      -1  0  1   0 -1  1   0  0  1
                       0 -1  0   0 -1  1   1 -1  0       0  1  0   0  1 -1  -1  1  0
                      -1  0  1  -1  0  0  -1  1  0       1  0 -1   1  0  0   1 -1  0
                       0  1  0   1  0  0   0  0  1       0 -1  0  -1  0  0   0  0 -1
                       0  0 -1   0  1 -1   1  0 -1       0  0  1   0 -1  1  -1  0  1
                       1 -1  0   0 -1  1   0 -1  0      -1  1  0   0  1 -1   0  1  0
                       0  0  1   1  0  0   0  1  0       0  0 -1  -1  0  0   0 -1  0
                      -1  1  0  -1  0  0  -1  0  1       1 -1  0   1  0  0   1  0 -1
                       0  0  1   0  1  0   1  0  0       0  0 -1   0 -1  0  -1  0  0
                       1 -1  0   0 -1  0   0 -1  1      -1  1  0   0  1  0   0  1 -1
                       0  0 -1   1  0 -1   0  1 -1       0  0  1  -1  0  1   0 -1  1
                      -1  1  0  -1  0  1  -1  0  0       1 -1  0   1  0 -1   1  0  0
           toldfe      1.00000000E-08 Hartree
            typat      1  1  2  2  2  2  2  2  3
           useylm           1
              wtk        0.00058    0.00463    0.00463    0.00463    0.00463    0.00463
                         0.00231    0.00347    0.01389    0.01389    0.01389    0.01389
                         0.01389    0.01389    0.01389    0.01389    0.01389    0.00694
                         0.00347    0.01389    0.01389    0.01389    0.01389    0.01389
                         0.01389    0.01389    0.00694    0.00347    0.01389    0.01389
                         0.01389    0.01389    0.01389    0.00694    0.00347    0.01389
                         0.01389    0.01389    0.00694    0.00347    0.01389    0.00694
                         0.00174    0.01389    0.02778    0.02778    0.02778    0.01389
                         0.01389    0.02778
                       outvars : Printing only first  50 k-points.
           xangst      2.8054238293E+00  2.8054238293E+00  2.8054238293E+00
                       8.4162714879E+00  8.4162714879E+00  8.4162714879E+00
                       5.6108476586E+00  8.5928239515E+00  5.6108476586E+00
                       5.6108476586E+00  5.6108476586E+00  2.6288713657E+00
                       5.6108476586E+00  5.6108476586E+00  8.5928239515E+00
                       5.6108476586E+00  2.6288713657E+00  5.6108476586E+00
                       8.5928239515E+00  5.6108476586E+00  5.6108476586E+00
                       2.6288713657E+00  5.6108476586E+00  5.6108476586E+00
                       1.5933648973E-18 -5.9722236928E-19  1.8004174815E-18
            xcart      5.3014827240E+00  5.3014827240E+00  5.3014827240E+00
                       1.5904448172E+01  1.5904448172E+01  1.5904448172E+01
                       1.0602965448E+01  1.6238083976E+01  1.0602965448E+01
                       1.0602965448E+01  1.0602965448E+01  4.9678469197E+00
                       1.0602965448E+01  1.0602965448E+01  1.6238083976E+01
                       1.0602965448E+01  4.9678469197E+00  1.0602965448E+01
                       1.6238083976E+01  1.0602965448E+01  1.0602965448E+01
                       4.9678469197E+00  1.0602965448E+01  1.0602965448E+01
                       3.0110232856E-18 -1.1285867184E-18  3.4022959649E-18
             xred      2.5000000000E-01  2.5000000000E-01  2.5000000000E-01
                       7.5000000000E-01  7.5000000000E-01  7.5000000000E-01
                       7.6573313645E-01  2.3426686355E-01  7.6573313645E-01
                       2.3426686355E-01  2.3426686355E-01  7.6573313645E-01
                       7.6573313645E-01  7.6573313645E-01  2.3426686355E-01
                       2.3426686355E-01  7.6573313645E-01  2.3426686355E-01
                       2.3426686355E-01  7.6573313645E-01  7.6573313645E-01
                       7.6573313645E-01  2.3426686355E-01  2.3426686355E-01
                      -3.4769237090E-20  3.5565078495E-19 -7.1671430278E-20
            znucl       55.00000   35.00000   72.00000

================================================================================


- Timing analysis has been suppressed with timopt=0



================================================================================

 Suggested references for the acknowledgment of ABINIT usage.

 The users of ABINIT have little formal obligations with respect to the ABINIT group
 (those specified in the GNU General Public License, http://www.gnu.org/copyleft/gpl.txt).
 However, it is common practice in the scientific literature,
 to acknowledge the efforts of people that have made the research possible.
 In this spirit, please find below suggested citations of work written by ABINIT developers,
 corresponding to implementations inside of ABINIT that you have used in the present run.
 Note also that it will be of great value to readers of publications presenting these results,
 to read papers enabling them to understand the theoretical formalism and details
 of the ABINIT implementation.
 For information on why they are suggested, see also https://docs.abinit.org/theory/acknowledgments.
-
- [1] Implementation of the Projector Augmented-Wave Method in the ABINIT code.
- M. Torrent, F. Jollet, F. Bottin, G. Zerah, and X. Gonze Comput. Mat. Science 42, 337, (2008).
- Comment: PAW calculations. Strong suggestion to cite this paper.
- DOI and bibtex: see https://docs.abinit.org/theory/bibliography/#torrent2008
-
- [2] Libxc: A library of exchange and correlation functionals for density functional theory.
- M.A.L. Marques, M.J.T. Oliveira, T. Burnus, Computer Physics Communications 183, 2227 (2012).
- Comment: to be cited when LibXC is used (negative value of ixc)
- Strong suggestion to cite this paper.
- DOI and bibtex: see https://docs.abinit.org/theory/bibliography/#marques2012
-
- [3] The Abinit project: Impact, environment and recent developments.
- Computer Phys. Comm. 248, 107042 (2020).
- X.Gonze, B. Amadon, G. Antonius, F.Arnardi, L.Baguet, J.-M.Beuken,
- J.Bieder, F.Bottin, J.Bouchet, E.Bousquet, N.Brouwer, F.Bruneval,
- G.Brunin, T.Cavignac, J.-B. Charraud, Wei Chen, M.Cote, S.Cottenier,
- J.Denier, G.Geneste, Ph.Ghosez, M.Giantomassi, Y.Gillet, O.Gingras,
- D.R.Hamann, G.Hautier, Xu He, N.Helbig, N.Holzwarth, Y.Jia, F.Jollet,
- W.Lafargue-Dit-Hauret, K.Lejaeghere, M.A.L.Marques, A.Martin, C.Martins,
- H.P.C. Miranda, F.Naccarato, K. Persson, G.Petretto, V.Planes, Y.Pouillon,
- S.Prokhorenko, F.Ricci, G.-M.Rignanese, A.H.Romero, M.M.Schmitt, M.Torrent,
- M.J.van Setten, B.Van Troeye, M.J.Verstraete, G.Zerah and J.W.Zwanzig
- Comment: the fifth generic paper describing the ABINIT project.
- Note that a version of this paper, that is not formatted for Computer Phys. Comm. 
- is available at https://www.abinit.org/sites/default/files/ABINIT20.pdf .
- The licence allows the authors to put it on the Web.
- DOI and bibtex: see https://docs.abinit.org/theory/bibliography/#gonze2020
-
- [4] ABINIT: Overview, and focus on selected capabilities
- J. Chem. Phys. 152, 124102 (2020).
- A. Romero, D.C. Allan, B. Amadon, G. Antonius, T. Applencourt, L.Baguet,
- J.Bieder, F.Bottin, J.Bouchet, E.Bousquet, F.Bruneval,
- G.Brunin, D.Caliste, M.Cote,
- J.Denier, C. Dreyer, Ph.Ghosez, M.Giantomassi, Y.Gillet, O.Gingras,
- D.R.Hamann, G.Hautier, F.Jollet, G. Jomard,
- A.Martin, 
- H.P.C. Miranda, F.Naccarato, G.Petretto, N.A. Pike, V.Planes,
- S.Prokhorenko, T. Rangel, F.Ricci, G.-M.Rignanese, M.Royo, M.Stengel, M.Torrent,
- M.J.van Setten, B.Van Troeye, M.J.Verstraete, J.Wiktor, J.W.Zwanziger, and X.Gonze.
- Comment: a global overview of ABINIT, with focus on selected capabilities .
- Note that a version of this paper, that is not formatted for J. Chem. Phys 
- is available at https://www.abinit.org/sites/default/files/ABINIT20_JPC.pdf .
- The licence allows the authors to put it on the Web.
- DOI and bibtex: see https://docs.abinit.org/theory/bibliography/#romero2020
-
- [5] Recent developments in the ABINIT software package.
- Computer Phys. Comm. 205, 106 (2016).
- X.Gonze, F.Jollet, F.Abreu Araujo, D.Adams, B.Amadon, T.Applencourt,
- C.Audouze, J.-M.Beuken, J.Bieder, A.Bokhanchuk, E.Bousquet, F.Bruneval
- D.Caliste, M.Cote, F.Dahm, F.Da Pieve, M.Delaveau, M.Di Gennaro,
- B.Dorado, C.Espejo, G.Geneste, L.Genovese, A.Gerossier, M.Giantomassi,
- Y.Gillet, D.R.Hamann, L.He, G.Jomard, J.Laflamme Janssen, S.Le Roux,
- A.Levitt, A.Lherbier, F.Liu, I.Lukacevic, A.Martin, C.Martins,
- M.J.T.Oliveira, S.Ponce, Y.Pouillon, T.Rangel, G.-M.Rignanese,
- A.H.Romero, B.Rousseau, O.Rubel, A.A.Shukri, M.Stankovski, M.Torrent,
- M.J.Van Setten, B.Van Troeye, M.J.Verstraete, D.Waroquier, J.Wiktor,
- B.Xu, A.Zhou, J.W.Zwanziger.
- Comment: the fourth generic paper describing the ABINIT project.
- Note that a version of this paper, that is not formatted for Computer Phys. Comm. 
- is available at https://www.abinit.org/sites/default/files/ABINIT16.pdf .
- The licence allows the authors to put it on the Web.
- DOI and bibtex: see https://docs.abinit.org/theory/bibliography/#gonze2016
-
- Proc.   0 individual time (sec): cpu=        558.5  wall=        561.2

================================================================================

 Calculation completed.
.Delivered   0 WARNINGs and   0 COMMENTs to log file.
+Overall time at end (sec) : cpu=       3361.8  wall=       3367.3
