
.Version 9.2.2 of ABINIT 
.(MPI version, prepared for a x86_64_linux_gnu9.3 computer) 

.Copyright (C) 1998-2020 ABINIT group . 
 ABINIT comes with ABSOLUTELY NO WARRANTY.
 It is free software, and you are welcome to redistribute it
 under certain conditions (GNU General Public License,
 see ~abinit/COPYING or http://www.gnu.org/copyleft/gpl.txt).

 ABINIT is a project of the Universite Catholique de Louvain,
 Corning Inc. and other collaborators, see ~abinit/doc/developers/contributors.txt .
 Please read https://docs.abinit.org/theory/acknowledgments for suggested
 acknowledgments of the ABINIT effort.
 For more information, see https://www.abinit.org .

.Starting date : Wed 19 Jul 2023.
- ( at 07h45 )
  
- The starting date is more than 2 years after the initial release
- of this version of ABINIT, namely Nov 2020.
- Note that the use beyond 3 years after the release will not be supported.
- Action: please, switch to a more recent version of ABINIT.

- input  file    -> Cs2TiI6.in
- output file    -> Cs2TiI6.out
- root for input  files -> Cs2TiI6i
- root for output files -> Cs2TiI6o


 Symmetries : space group Fm -3 m (#225); Bravais cF (face-center cubic)
================================================================================
 Values of the parameters that define the memory need of the present run
     intxc =       0    ionmov =       0      iscf =      17    lmnmax =       8
     lnmax =       8     mgfft =      72  mpssoang =       4    mqgrid =    3001
     natom =       9  nloc_mem =       1    nspden =       1   nspinor =       1
    nsppol =       1      nsym =      48    n1xccc =    2501    ntypat =       3
    occopt =       1   xclevel =       2
-    mband =          42        mffmem =           1         mkmem =           1
       mpw =       12558          nfft =      373248          nkpt =           3
================================================================================
P This job should need less than                     138.469 Mbytes of memory.
  Rough estimation (10% accuracy) of disk space for files :
_ WF disk file :     24.146 Mbytes ; DEN or POT disk file :      2.850 Mbytes.
================================================================================

--------------------------------------------------------------------------------
------------- Echo of variables that govern the present computation ------------
--------------------------------------------------------------------------------
-
- outvars: echo of selected default values                                      
-   iomode0 =  0 , fftalg0 =112 , wfoptalg0 =  0
-
- outvars: echo of global parameters not present in the input file              
-  max_nthreads =    0
-
 -outvars: echo values of preprocessed input variables --------
            acell      1.6056750671E+01  1.6056750671E+01  1.6056750671E+01 Bohr
              amu      1.32905430E+02  1.26904470E+02  9.12240000E+01
           diemac      1.20000000E+01
             ecut      2.00000000E+01 Hartree
-          fftalg         112
             iscf          17
           istwfk        1    1    1
              ixc        -428
              kpt      0.00000000E+00  0.00000000E+00  0.00000000E+00
                       5.00000000E-01  0.00000000E+00  0.00000000E+00
                       5.00000000E-01  5.00000000E-01  0.00000000E+00
         kptns_hf      0.00000000E+00  0.00000000E+00  0.00000000E+00
                       5.00000000E-01  0.00000000E+00  0.00000000E+00
                       0.00000000E+00  5.00000000E-01  0.00000000E+00
                       5.00000000E-01  5.00000000E-01  0.00000000E+00
                       0.00000000E+00  0.00000000E+00  5.00000000E-01
                       5.00000000E-01  0.00000000E+00  5.00000000E-01
                       0.00000000E+00  5.00000000E-01  5.00000000E-01
                       5.00000000E-01  5.00000000E-01  5.00000000E-01
         kptrlatt        2    0    0      0    2    0      0    0    2
          kptrlen      3.21135013E+01
P           mkmem           1
            natom           9
            nband          42
          nbandhf          36
            ngfft          72      72      72
             nkpt           3
           nkpthf           8
-           npkpt           4
            nstep        2500
             nsym          48
           ntypat           3
              occ      2.000000  2.000000  2.000000  2.000000  2.000000  2.000000
                       2.000000  2.000000  2.000000  2.000000  2.000000  2.000000
                       2.000000  2.000000  2.000000  2.000000  2.000000  2.000000
                       2.000000  2.000000  2.000000  2.000000  2.000000  2.000000
                       2.000000  2.000000  2.000000  2.000000  2.000000  2.000000
                       2.000000  2.000000  2.000000  2.000000  2.000000  2.000000
                       0.000000  0.000000  0.000000  0.000000  0.000000  0.000000
            rprim      0.0000000000E+00  7.0710678119E-01  7.0710678119E-01
                       7.0710678119E-01  0.0000000000E+00  7.0710678119E-01
                       7.0710678119E-01  7.0710678119E-01  0.0000000000E+00
          spgroup         225
           symrel      1  0  0   0  1  0   0  0  1      -1  0  0   0 -1  0   0  0 -1
                       0 -1  1   0 -1  0   1 -1  0       0  1 -1   0  1  0  -1  1  0
                      -1  0  0  -1  0  1  -1  1  0       1  0  0   1  0 -1   1 -1  0
                       0  1 -1   1  0 -1   0  0 -1       0 -1  1  -1  0  1   0  0  1
                      -1  0  0  -1  1  0  -1  0  1       1  0  0   1 -1  0   1  0 -1
                       0 -1  1   1 -1  0   0 -1  0       0  1 -1  -1  1  0   0  1  0
                       1  0  0   0  0  1   0  1  0      -1  0  0   0  0 -1   0 -1  0
                       0  1 -1   0  0 -1   1  0 -1       0 -1  1   0  0  1  -1  0  1
                      -1  0  1  -1  1  0  -1  0  0       1  0 -1   1 -1  0   1  0  0
                       0 -1  0   1 -1  0   0 -1  1       0  1  0  -1  1  0   0  1 -1
                       1  0 -1   0  0 -1   0  1 -1      -1  0  1   0  0  1   0 -1  1
                       0  1  0   0  0  1   1  0  0       0 -1  0   0  0 -1  -1  0  0
                       1  0 -1   0  1 -1   0  0 -1      -1  0  1   0 -1  1   0  0  1
                       0 -1  0   0 -1  1   1 -1  0       0  1  0   0  1 -1  -1  1  0
                      -1  0  1  -1  0  0  -1  1  0       1  0 -1   1  0  0   1 -1  0
                       0  1  0   1  0  0   0  0  1       0 -1  0  -1  0  0   0  0 -1
                       0  0 -1   0  1 -1   1  0 -1       0  0  1   0 -1  1  -1  0  1
                       1 -1  0   0 -1  1   0 -1  0      -1  1  0   0  1 -1   0  1  0
                       0  0  1   1  0  0   0  1  0       0  0 -1  -1  0  0   0 -1  0
                      -1  1  0  -1  0  0  -1  0  1       1 -1  0   1  0  0   1  0 -1
                       0  0  1   0  1  0   1  0  0       0  0 -1   0 -1  0  -1  0  0
                       1 -1  0   0 -1  0   0 -1  1      -1  1  0   0  1  0   0  1 -1
                       0  0 -1   1  0 -1   0  1 -1       0  0  1  -1  0  1   0 -1  1
                      -1  1  0  -1  0  1  -1  0  0       1 -1  0   1  0 -1   1  0  0
           toldfe      1.00000000E-08 Hartree
            typat      1  1  2  2  2  2  2  2  3
          usefock           1
              wtk        0.12500    0.50000    0.37500
           xangst      3.0040959602E+00  3.0040959602E+00  3.0040959602E+00
                       9.0122878806E+00  9.0122878806E+00  9.0122878806E+00
                       6.0081919204E+00  6.0081919204E+00  2.8831675630E+00
                       6.0081919204E+00  6.0081919204E+00  9.1332162777E+00
                       9.1332162777E+00  6.0081919204E+00  6.0081919204E+00
                       6.0081919204E+00  9.1332162777E+00  6.0081919204E+00
                       6.0081919204E+00  2.8831675630E+00  6.0081919204E+00
                       2.8831675630E+00  6.0081919204E+00  6.0081919204E+00
                       3.4351441761E-22  3.0743847827E-21  8.3985010397E-21
            xcart      5.6769186417E+00  5.6769186417E+00  5.6769186417E+00
                       1.7030755925E+01  1.7030755925E+01  1.7030755925E+01
                       1.1353837283E+01  1.1353837283E+01  5.4483970893E+00
                       1.1353837283E+01  1.1353837283E+01  1.7259277477E+01
                       1.7259277477E+01  1.1353837283E+01  1.1353837283E+01
                       1.1353837283E+01  1.7259277477E+01  1.1353837283E+01
                       1.1353837283E+01  5.4483970893E+00  1.1353837283E+01
                       5.4483970893E+00  1.1353837283E+01  1.1353837283E+01
                       6.4914817199E-22  5.8097452665E-21  1.5870866892E-20
             xred      2.5000000000E-01  2.5000000000E-01  2.5000000000E-01
                       7.5000000000E-01  7.5000000000E-01  7.5000000000E-01
                       2.3993637364E-01  2.3993637364E-01  7.6006362636E-01
                       7.6006362636E-01  7.6006362636E-01  2.3993637364E-01
                       2.3993637364E-01  7.6006362636E-01  7.6006362636E-01
                       7.6006362636E-01  2.3993637364E-01  7.6006362636E-01
                       2.3993637364E-01  7.6006362636E-01  2.3993637364E-01
                       7.6006362636E-01  2.3993637364E-01  2.3993637364E-01
                       9.2618308073E-22  4.7165859128E-22 -4.1448424962E-22
            znucl       55.00000   53.00000   40.00000

================================================================================

 chkinp: Checking input parameters for consistency.

================================================================================
== DATASET  1 ==================================================================
-   mpi_nproc: 4, omp_nthreads: -1 (-1 if OMP is not activated)
-    --> not optimal distribution: autoparal keyword recommended in input file <--


--- !DatasetInfo
iteration_state: {dtset: 1, }
dimensions: {natom: 9, nkpt: 3, mband: 42, nsppol: 1, nspinor: 1, nspden: 1, mpw: 12558, }
cutoff_energies: {ecut:  20.0, pawecutdg:  -1.0, }
electrons: {nelect:   7.20000000E+01, charge:   0.00000000E+00, occopt:   1.00000000E+00, tsmear:   1.00000000E-02, }
meta: {optdriver: 0, ionmov: 0, optcell: 0, iscf: 17, paral_kgb: 0, }
...

 Real(R)+Recip(G) space primitive vectors, cartesian coordinates (Bohr,Bohr^-1):
 R(1)=  0.0000000 11.3538373 11.3538373  G(1)= -0.0440380  0.0440380  0.0440380
 R(2)= 11.3538373  0.0000000 11.3538373  G(2)=  0.0440380 -0.0440380  0.0440380
 R(3)= 11.3538373 11.3538373  0.0000000  G(3)=  0.0440380  0.0440380 -0.0440380
 Unit cell volume ucvol=  2.9272377E+03 bohr^3
 Angles (23,13,12)=  6.00000000E+01  6.00000000E+01  6.00000000E+01 degrees

 getcut: wavevector=  0.0000  0.0000  0.0000  ngfft=  72  72  72
         ecut(hartree)=     20.000   => boxcut(ratio)=   2.22738

 getcut : COMMENT -
  Note that boxcut > 2.2 ; recall that boxcut=Gcut(box)/Gcut(sphere) = 2
  is sufficient for exact treatment of convolution.
  Such a large boxcut is a waste : you could raise ecut
  e.g. ecut=   24.806153 Hartrees makes boxcut=2


--- Pseudopotential description ------------------------------------------------
- pspini: atom type   1  psp file is ../../../Psps_for_tests/ONCVPSP-PBE-PDv0.4/Cs-sp.psp8
- pspatm: opening atomic psp file    ../../../Psps_for_tests/ONCVPSP-PBE-PDv0.4/Cs-sp.psp8
- Cs    ONCVPSP-3.2.3.1  r_core=   2.27353   1.85623   2.01788   1.90105
- 55.00000   9.00000    170703                znucl, zion, pspdat
    8   32    3    4       600   0.00000      pspcod,pspxc,lmax,lloc,mmax,r2well
    5.99000000000000    5.00000000000000    0.00000000000000   rchrg,fchrg,qchrg
     nproj     2     2     2     2
     extension_switch     1
  pspatm : epsatm=   22.81663475
         --- l  ekb(1:nproj) -->
             0    6.176104    0.756334
             1    6.263084    0.786397
             2    3.737592    0.906929
             3   -9.272327   -2.535859
 pspatm: atomic psp has been read  and splines computed

- pspini: atom type   2  psp file is ../../../Psps_for_tests/ONCVPSP-PBE-PDv0.4/I.psp8
- pspatm: opening atomic psp file    ../../../Psps_for_tests/ONCVPSP-PBE-PDv0.4/I.psp8
- I     ONCVPSP-3.2.3.1  r_core=   2.02042   2.17032   2.27639
- 53.00000   7.00000    170510                znucl, zion, pspdat
    8   32    2    4       600   0.00000      pspcod,pspxc,lmax,lloc,mmax,r2well
    5.99000000000000    4.00000000000000    0.00000000000000   rchrg,fchrg,qchrg
     nproj     2     2     2
     extension_switch     1
  pspatm : epsatm=   19.17050482
         --- l  ekb(1:nproj) -->
             0    5.955518    0.916455
             1    4.011347    0.742302
             2    4.134838    0.711910
 pspatm: atomic psp has been read  and splines computed

- pspini: atom type   3  psp file is ../../../Psps_for_tests/ONCVPSP-PBE-PDv0.4/Zr-sp.psp8
- pspatm: opening atomic psp file    ../../../Psps_for_tests/ONCVPSP-PBE-PDv0.4/Zr-sp.psp8
- Zr    ONCVPSP-3.2.3.1  r_core=   1.56507   1.56507   1.51006
- 40.00000  12.00000    170510                znucl, zion, pspdat
    8   32    2    4       600   0.00000      pspcod,pspxc,lmax,lloc,mmax,r2well
    5.99000000000000    5.00000000000000    0.00000000000000   rchrg,fchrg,qchrg
     nproj     2     2     2
     extension_switch     1
  pspatm : epsatm=   18.79873988
         --- l  ekb(1:nproj) -->
             0   10.621766    0.898805
             1    5.849837    0.750341
             2    1.531478    0.503023
 pspatm: atomic psp has been read  and splines computed

   1.29207628E+04                                ecore*ucvol(ha*bohr**3)
--------------------------------------------------------------------------------

_setup2: Arith. and geom. avg. npw (full set) are   12495.625   12495.500

================================================================================

--- !BeginCycle
iteration_state: {dtset: 1, }
solver: {iscf: 17, nstep: 2500, nline: 4, wfoptalg: 0, }
tolerances: {toldfe: 1.00E-08, }
...

     iter   Etot(hartree)      deltaE(h)  residm     nres2
 ETOT  1  -170.48130137549    -1.705E+02 1.420E-02 4.361E+00
 ETOT  2  -175.39394441887    -4.913E+00 1.433E-02 2.727E+00
 ETOT  3  -175.39910297123    -5.159E-03 4.064E-03 9.562E-01
 ETOT  4  -175.38413080026     1.497E-02 2.438E-03 1.265E-01
 ETOT  5  -175.38438251940    -2.517E-04 2.231E-03 1.390E-02
 ETOT  6  -175.38470972167    -3.272E-04 1.236E-03 3.621E-03
 ETOT  7  -175.38475270014    -4.298E-05 4.068E-04 6.162E-04
 ETOT  8  -175.38475454896    -1.849E-06 9.241E-05 2.116E-04
 ETOT  9  -175.38475210251     2.446E-06 1.509E-04 2.235E-05
 ETOT 10  -175.38475239188    -2.894E-07 9.543E-05 6.870E-06
 ETOT 11  -175.38475243914    -4.725E-08 1.767E-04 7.602E-08
 ETOT 12  -175.38475245361    -1.447E-08 1.220E-04 3.233E-09
 ETOT 13  -175.38475245894    -5.335E-09 2.084E-04 2.416E-09
 ETOT 14  -175.38475245896    -2.080E-11 2.427E-04 1.662E-09

 At SCF step   14, etot is converged : 
  for the second time, diff in etot=  2.080E-11 < toldfe=  1.000E-08

 Cartesian components of stress tensor (hartree/bohr^3)
  sigma(1 1)=  4.09825702E-05  sigma(3 2)=  0.00000000E+00
  sigma(2 2)=  4.09825702E-05  sigma(3 1)=  0.00000000E+00
  sigma(3 3)=  4.09825702E-05  sigma(2 1)=  0.00000000E+00


--- !ResultsGS
iteration_state: {dtset: 1, }
comment   : Summary of ground state results
lattice_vectors:
- [  0.0000000,  11.3538373,  11.3538373, ]
- [ 11.3538373,   0.0000000,  11.3538373, ]
- [ 11.3538373,  11.3538373,   0.0000000, ]
lattice_lengths: [  16.05675,   16.05675,   16.05675, ]
lattice_angles: [ 60.000,  60.000,  60.000, ] # degrees, (23, 13, 12)
lattice_volume:   2.9272377E+03
convergence: {deltae: -2.080E-11, res2:  1.662E-09, residm:  2.427E-04, diffor: null, }
etotal    :  -1.75384752E+02
entropy   :   0.00000000E+00
fermie    :   1.26971511E-02
cartesian_stress_tensor: # hartree/bohr^3
- [  4.09825702E-05,   0.00000000E+00,   0.00000000E+00, ]
- [  0.00000000E+00,   4.09825702E-05,   0.00000000E+00, ]
- [  0.00000000E+00,   0.00000000E+00,   4.09825702E-05, ]
pressure_GPa:  -1.2057E+00
xred      :
- [  2.5000E-01,   2.5000E-01,   2.5000E-01, Cs]
- [  7.5000E-01,   7.5000E-01,   7.5000E-01, Cs]
- [  2.3994E-01,   2.3994E-01,   7.6006E-01,  I]
- [  7.6006E-01,   7.6006E-01,   2.3994E-01,  I]
- [  2.3994E-01,   7.6006E-01,   7.6006E-01,  I]
- [  7.6006E-01,   2.3994E-01,   7.6006E-01,  I]
- [  2.3994E-01,   7.6006E-01,   2.3994E-01,  I]
- [  7.6006E-01,   2.3994E-01,   2.3994E-01,  I]
- [  9.2618E-22,   4.7166E-22,  -4.1448E-22, Zr]
cartesian_forces: # hartree/bohr
- [  4.81867632E-20,  -5.14741277E-20,   4.81867632E-20, ]
- [  4.81867633E-20,  -5.14741279E-20,   4.81867632E-20, ]
- [  1.86004816E-20,  -2.18878463E-20,  -2.13450893E-03, ]
- [ -3.55907824E-19,   3.52620460E-19,   2.13450893E-03, ]
- [  2.13450893E-03,  -8.10604094E-20,   7.77730448E-20, ]
- [  1.07334882E-19,   2.13450893E-03,  -1.09613555E-20, ]
- [ -1.09613555E-20,  -2.13450893E-03,   1.07334882E-19, ]
- [ -2.13450893E-03,  -2.18878463E-20,   1.86004816E-20, ]
- [  4.81867632E-20,  -5.14741278E-20,   4.81867632E-20, ]
force_length_stats: {min:   8.54020733E-20, max:   2.13450893E-03, mean:   1.42300595E-03, }
...

 Integrated electronic density in atomic spheres:
 ------------------------------------------------
 Atom  Sphere_radius  Integrated_density
    1        2.00000          4.42299947
    2        2.00000          4.42299947
    3        2.00000          2.88199358
    4        2.00000          2.88199358
    5        2.00000          2.88199358
    6        2.00000          2.88199358
    7        2.00000          2.88199358
    8        2.00000          2.88199358
    9        2.00000          8.16016060
================================================================================

 ----iterations are completed or convergence reached----

 Mean square residual over all n,k,spin=   22.112E-07; max=  24.267E-05
 reduced coordinates (array xred) for    9 atoms
       0.250000000000      0.250000000000      0.250000000000
       0.750000000000      0.750000000000      0.750000000000
       0.239936373640      0.239936373640      0.760063626360
       0.760063626360      0.760063626360      0.239936373640
       0.239936373640      0.760063626360      0.760063626360
       0.760063626360      0.239936373640      0.760063626360
       0.239936373640      0.760063626360      0.239936373640
       0.760063626360      0.239936373640      0.239936373640
       0.000000000000      0.000000000000     -0.000000000000
 rms dE/dt=  1.6157E-02; max dE/dt=  2.4235E-02; dE/dt below (all hartree)
    1      -0.000000000000      0.000000000000     -0.000000000000
    2       0.000000000000     -0.000000000000      0.000000000000
    3       0.024234867037      0.024234867037      0.000000000000
    4      -0.024234867037     -0.024234867037      0.000000000000
    5      -0.000000000000     -0.024234867037     -0.024234867037
    6      -0.024234867037      0.000000000000     -0.024234867037
    7       0.024234867037      0.000000000000      0.024234867037
    8       0.000000000000      0.024234867037      0.024234867037
    9       0.000000000000      0.000000000000      0.000000000000

 cartesian coordinates (angstrom) at end:
    1      3.00409596019178     3.00409596019178     3.00409596019178
    2      9.01228788057534     9.01228788057533     9.01228788057534
    3      6.00819192038356     6.00819192038356     2.88316756301996
    4      6.00819192038356     6.00819192038356     9.13321627774716
    5      9.13321627774716     6.00819192038356     6.00819192038356
    6      6.00819192038356     9.13321627774716     6.00819192038356
    7      6.00819192038356     2.88316756301996     6.00819192038356
    8      2.88316756301996     6.00819192038356     6.00819192038356
    9      0.00000000000000     0.00000000000000     0.00000000000000

 cartesian forces (hartree/bohr) at end:
    1      0.00000000000000    -0.00000000000000     0.00000000000000
    2      0.00000000000000    -0.00000000000000     0.00000000000000
    3      0.00000000000000    -0.00000000000000    -0.00213450892700
    4     -0.00000000000000     0.00000000000000     0.00213450892700
    5      0.00213450892700    -0.00000000000000     0.00000000000000
    6      0.00000000000000     0.00213450892700    -0.00000000000000
    7     -0.00000000000000    -0.00213450892700     0.00000000000000
    8     -0.00213450892700    -0.00000000000000     0.00000000000000
    9      0.00000000000000    -0.00000000000000     0.00000000000000
 frms,max,avg= 1.0062172E-03 2.1345089E-03   0.000E+00  0.000E+00  0.000E+00 h/b

 cartesian forces (eV/Angstrom) at end:
    1      0.00000000000000    -0.00000000000000     0.00000000000000
    2      0.00000000000000    -0.00000000000000     0.00000000000000
    3      0.00000000000000    -0.00000000000000    -0.10976085292866
    4     -0.00000000000000     0.00000000000000     0.10976085292866
    5      0.10976085292866    -0.00000000000000     0.00000000000000
    6      0.00000000000000     0.10976085292866    -0.00000000000000
    7     -0.00000000000000    -0.10976085292866     0.00000000000000
    8     -0.10976085292866    -0.00000000000000     0.00000000000000
    9      0.00000000000000    -0.00000000000000     0.00000000000000
 frms,max,avg= 5.1741762E-02 1.0976085E-01   0.000E+00  0.000E+00  0.000E+00 e/A
 length scales= 16.056750671000 16.056750671000 16.056750671000 bohr
              =  8.496866499105  8.496866499105  8.496866499105 angstroms
 prteigrs : about to open file Cs2TiI6o_EIG
 Fermi (or HOMO) energy (hartree) =   0.01270   Average Vxc (hartree)=  -0.23702
 Eigenvalues (hartree) for nkpt=   3  k points:
 kpt#   1, nband= 42, wtk=  0.12500, kpt=  0.0000  0.0000  0.0000 (reduced coord)
  -1.93067   -1.06903   -1.06903   -1.06903   -0.79629   -0.79620   -0.44933   -0.42895
  -0.42895   -0.42895   -0.42650   -0.42650   -0.27645   -0.27645   -0.27645   -0.27503
  -0.27503   -0.27503   -0.12083   -0.07265   -0.07265   -0.07265   -0.07165   -0.07165
  -0.07165   -0.06322   -0.06322   -0.01705   -0.01705   -0.01705    0.00414    0.00414
   0.00414    0.01270    0.01270    0.01270    0.11253    0.11253    0.11253    0.18978
   0.20227    0.20318
 prteigrs : prtvol=0 or 1, do not print more k-points.


--- !EnergyTerms
iteration_state     : {dtset: 1, }
comment             : Components of total free energy in Hartree
kinetic             :  4.31751148027721E+01
hartree             :  3.58945595277757E+01
xc                  : -4.28517974798678E+01
Ewald energy        : -1.12586057847027E+02
psp_core            :  4.41397794701410E+00
local_psp           : -1.22230561983785E+02
non_local_psp+x     :  1.88000211669637E+01
total_energy        : -1.75384743866155E+02
...


--- !EnergyTermsDC
iteration_state     : {dtset: 1, }
comment             : '"Double-counting" decomposition of free energy'
band_energy         : -2.34373456312969E+01
Ewald energy        : -1.12586057847027E+02
psp_core            :  4.41397794701410E+00
xc_dc               : -4.37753269276507E+01
total_energy_dc     : -1.75384752458961E+02
...


 Cartesian components of stress tensor (hartree/bohr^3)
  sigma(1 1)=  4.09825702E-05  sigma(3 2)=  0.00000000E+00
  sigma(2 2)=  4.09825702E-05  sigma(3 1)=  0.00000000E+00
  sigma(3 3)=  4.09825702E-05  sigma(2 1)=  0.00000000E+00

-Cartesian components of stress tensor (GPa)         [Pressure= -1.2057E+00 GPa]
- sigma(1 1)=  1.20574864E+00  sigma(3 2)=  0.00000000E+00
- sigma(2 2)=  1.20574864E+00  sigma(3 1)=  0.00000000E+00
- sigma(3 3)=  1.20574864E+00  sigma(2 1)=  0.00000000E+00

== END DATASET(S) ==============================================================
================================================================================
  
 -outvars: echo values of variables after computation  --------
            acell      1.6056750671E+01  1.6056750671E+01  1.6056750671E+01 Bohr
              amu      1.32905430E+02  1.26904470E+02  9.12240000E+01
           diemac      1.20000000E+01
             ecut      2.00000000E+01 Hartree
           etotal     -1.7538475246E+02
            fcart      4.8186763198E-20 -5.1474127722E-20  4.8186763198E-20
                       4.8186763293E-20 -5.1474127912E-20  4.8186763198E-20
                       1.8600481649E-20 -2.1887846268E-20 -2.1345089270E-03
                      -3.5590782420E-19  3.5262045958E-19  2.1345089270E-03
                       2.1345089270E-03 -8.1060409414E-20  7.7773044794E-20
                       1.0733488193E-19  2.1345089270E-03 -1.0961355486E-20
                      -1.0961355486E-20 -2.1345089270E-03  1.0733488193E-19
                      -2.1345089270E-03 -2.1887846268E-20  1.8600481649E-20
                       4.8186763222E-20 -5.1474127841E-20  4.8186763222E-20
-          fftalg         112
             iscf          17
           istwfk        1    1    1
              ixc        -428
              kpt      0.00000000E+00  0.00000000E+00  0.00000000E+00
                       5.00000000E-01  0.00000000E+00  0.00000000E+00
                       5.00000000E-01  5.00000000E-01  0.00000000E+00
         kptns_hf      0.00000000E+00  0.00000000E+00  0.00000000E+00
                       5.00000000E-01  0.00000000E+00  0.00000000E+00
                       0.00000000E+00  5.00000000E-01  0.00000000E+00
                       5.00000000E-01  5.00000000E-01  0.00000000E+00
                       0.00000000E+00  0.00000000E+00  5.00000000E-01
                       5.00000000E-01  0.00000000E+00  5.00000000E-01
                       0.00000000E+00  5.00000000E-01  5.00000000E-01
                       5.00000000E-01  5.00000000E-01  5.00000000E-01
         kptrlatt        2    0    0      0    2    0      0    0    2
          kptrlen      3.21135013E+01
P           mkmem           1
            natom           9
            nband          42
          nbandhf          36
            ngfft          72      72      72
             nkpt           3
           nkpthf           8
-           npkpt           4
            nstep        2500
             nsym          48
           ntypat           3
              occ      2.000000  2.000000  2.000000  2.000000  2.000000  2.000000
                       2.000000  2.000000  2.000000  2.000000  2.000000  2.000000
                       2.000000  2.000000  2.000000  2.000000  2.000000  2.000000
                       2.000000  2.000000  2.000000  2.000000  2.000000  2.000000
                       2.000000  2.000000  2.000000  2.000000  2.000000  2.000000
                       2.000000  2.000000  2.000000  2.000000  2.000000  2.000000
                       0.000000  0.000000  0.000000  0.000000  0.000000  0.000000
            rprim      0.0000000000E+00  7.0710678119E-01  7.0710678119E-01
                       7.0710678119E-01  0.0000000000E+00  7.0710678119E-01
                       7.0710678119E-01  7.0710678119E-01  0.0000000000E+00
          spgroup         225
           strten      4.0982570179E-05  4.0982570179E-05  4.0982570179E-05
                       0.0000000000E+00  0.0000000000E+00  0.0000000000E+00
           symrel      1  0  0   0  1  0   0  0  1      -1  0  0   0 -1  0   0  0 -1
                       0 -1  1   0 -1  0   1 -1  0       0  1 -1   0  1  0  -1  1  0
                      -1  0  0  -1  0  1  -1  1  0       1  0  0   1  0 -1   1 -1  0
                       0  1 -1   1  0 -1   0  0 -1       0 -1  1  -1  0  1   0  0  1
                      -1  0  0  -1  1  0  -1  0  1       1  0  0   1 -1  0   1  0 -1
                       0 -1  1   1 -1  0   0 -1  0       0  1 -1  -1  1  0   0  1  0
                       1  0  0   0  0  1   0  1  0      -1  0  0   0  0 -1   0 -1  0
                       0  1 -1   0  0 -1   1  0 -1       0 -1  1   0  0  1  -1  0  1
                      -1  0  1  -1  1  0  -1  0  0       1  0 -1   1 -1  0   1  0  0
                       0 -1  0   1 -1  0   0 -1  1       0  1  0  -1  1  0   0  1 -1
                       1  0 -1   0  0 -1   0  1 -1      -1  0  1   0  0  1   0 -1  1
                       0  1  0   0  0  1   1  0  0       0 -1  0   0  0 -1  -1  0  0
                       1  0 -1   0  1 -1   0  0 -1      -1  0  1   0 -1  1   0  0  1
                       0 -1  0   0 -1  1   1 -1  0       0  1  0   0  1 -1  -1  1  0
                      -1  0  1  -1  0  0  -1  1  0       1  0 -1   1  0  0   1 -1  0
                       0  1  0   1  0  0   0  0  1       0 -1  0  -1  0  0   0  0 -1
                       0  0 -1   0  1 -1   1  0 -1       0  0  1   0 -1  1  -1  0  1
                       1 -1  0   0 -1  1   0 -1  0      -1  1  0   0  1 -1   0  1  0
                       0  0  1   1  0  0   0  1  0       0  0 -1  -1  0  0   0 -1  0
                      -1  1  0  -1  0  0  -1  0  1       1 -1  0   1  0  0   1  0 -1
                       0  0  1   0  1  0   1  0  0       0  0 -1   0 -1  0  -1  0  0
                       1 -1  0   0 -1  0   0 -1  1      -1  1  0   0  1  0   0  1 -1
                       0  0 -1   1  0 -1   0  1 -1       0  0  1  -1  0  1   0 -1  1
                      -1  1  0  -1  0  1  -1  0  0       1 -1  0   1  0 -1   1  0  0
           toldfe      1.00000000E-08 Hartree
            typat      1  1  2  2  2  2  2  2  3
          usefock           1
              wtk        0.12500    0.50000    0.37500
           xangst      3.0040959602E+00  3.0040959602E+00  3.0040959602E+00
                       9.0122878806E+00  9.0122878806E+00  9.0122878806E+00
                       6.0081919204E+00  6.0081919204E+00  2.8831675630E+00
                       6.0081919204E+00  6.0081919204E+00  9.1332162777E+00
                       9.1332162777E+00  6.0081919204E+00  6.0081919204E+00
                       6.0081919204E+00  9.1332162777E+00  6.0081919204E+00
                       6.0081919204E+00  2.8831675630E+00  6.0081919204E+00
                       2.8831675630E+00  6.0081919204E+00  6.0081919204E+00
                       3.4351441761E-22  3.0743847827E-21  8.3985010397E-21
            xcart      5.6769186417E+00  5.6769186417E+00  5.6769186417E+00
                       1.7030755925E+01  1.7030755925E+01  1.7030755925E+01
                       1.1353837283E+01  1.1353837283E+01  5.4483970893E+00
                       1.1353837283E+01  1.1353837283E+01  1.7259277477E+01
                       1.7259277477E+01  1.1353837283E+01  1.1353837283E+01
                       1.1353837283E+01  1.7259277477E+01  1.1353837283E+01
                       1.1353837283E+01  5.4483970893E+00  1.1353837283E+01
                       5.4483970893E+00  1.1353837283E+01  1.1353837283E+01
                       6.4914817199E-22  5.8097452665E-21  1.5870866892E-20
             xred      2.5000000000E-01  2.5000000000E-01  2.5000000000E-01
                       7.5000000000E-01  7.5000000000E-01  7.5000000000E-01
                       2.3993637364E-01  2.3993637364E-01  7.6006362636E-01
                       7.6006362636E-01  7.6006362636E-01  2.3993637364E-01
                       2.3993637364E-01  7.6006362636E-01  7.6006362636E-01
                       7.6006362636E-01  2.3993637364E-01  7.6006362636E-01
                       2.3993637364E-01  7.6006362636E-01  2.3993637364E-01
                       7.6006362636E-01  2.3993637364E-01  2.3993637364E-01
                       9.2618308073E-22  4.7165859128E-22 -4.1448424962E-22
            znucl       55.00000   53.00000   40.00000

================================================================================


- Timing analysis has been suppressed with timopt=0



================================================================================

 Suggested references for the acknowledgment of ABINIT usage.

 The users of ABINIT have little formal obligations with respect to the ABINIT group
 (those specified in the GNU General Public License, http://www.gnu.org/copyleft/gpl.txt).
 However, it is common practice in the scientific literature,
 to acknowledge the efforts of people that have made the research possible.
 In this spirit, please find below suggested citations of work written by ABINIT developers,
 corresponding to implementations inside of ABINIT that you have used in the present run.
 Note also that it will be of great value to readers of publications presenting these results,
 to read papers enabling them to understand the theoretical formalism and details
 of the ABINIT implementation.
 For information on why they are suggested, see also https://docs.abinit.org/theory/acknowledgments.
-
- [1] Libxc: A library of exchange and correlation functionals for density functional theory.
- M.A.L. Marques, M.J.T. Oliveira, T. Burnus, Computer Physics Communications 183, 2227 (2012).
- Comment: to be cited when LibXC is used (negative value of ixc)
- Strong suggestion to cite this paper.
- DOI and bibtex: see https://docs.abinit.org/theory/bibliography/#marques2012
-
- [2] The Abinit project: Impact, environment and recent developments.
- Computer Phys. Comm. 248, 107042 (2020).
- X.Gonze, B. Amadon, G. Antonius, F.Arnardi, L.Baguet, J.-M.Beuken,
- J.Bieder, F.Bottin, J.Bouchet, E.Bousquet, N.Brouwer, F.Bruneval,
- G.Brunin, T.Cavignac, J.-B. Charraud, Wei Chen, M.Cote, S.Cottenier,
- J.Denier, G.Geneste, Ph.Ghosez, M.Giantomassi, Y.Gillet, O.Gingras,
- D.R.Hamann, G.Hautier, Xu He, N.Helbig, N.Holzwarth, Y.Jia, F.Jollet,
- W.Lafargue-Dit-Hauret, K.Lejaeghere, M.A.L.Marques, A.Martin, C.Martins,
- H.P.C. Miranda, F.Naccarato, K. Persson, G.Petretto, V.Planes, Y.Pouillon,
- S.Prokhorenko, F.Ricci, G.-M.Rignanese, A.H.Romero, M.M.Schmitt, M.Torrent,
- M.J.van Setten, B.Van Troeye, M.J.Verstraete, G.Zerah and J.W.Zwanzig
- Comment: the fifth generic paper describing the ABINIT project.
- Note that a version of this paper, that is not formatted for Computer Phys. Comm. 
- is available at https://www.abinit.org/sites/default/files/ABINIT20.pdf .
- The licence allows the authors to put it on the Web.
- DOI and bibtex: see https://docs.abinit.org/theory/bibliography/#gonze2020
-
- [3] Optimized norm-conserving Vanderbilt pseudopotentials.
- D.R. Hamann, Phys. Rev. B 88, 085117 (2013).
- Comment: Some pseudopotential generated using the ONCVPSP code were used.
- DOI and bibtex: see https://docs.abinit.org/theory/bibliography/#hamann2013
-
- [4] ABINIT: Overview, and focus on selected capabilities
- J. Chem. Phys. 152, 124102 (2020).
- A. Romero, D.C. Allan, B. Amadon, G. Antonius, T. Applencourt, L.Baguet,
- J.Bieder, F.Bottin, J.Bouchet, E.Bousquet, F.Bruneval,
- G.Brunin, D.Caliste, M.Cote,
- J.Denier, C. Dreyer, Ph.Ghosez, M.Giantomassi, Y.Gillet, O.Gingras,
- D.R.Hamann, G.Hautier, F.Jollet, G. Jomard,
- A.Martin, 
- H.P.C. Miranda, F.Naccarato, G.Petretto, N.A. Pike, V.Planes,
- S.Prokhorenko, T. Rangel, F.Ricci, G.-M.Rignanese, M.Royo, M.Stengel, M.Torrent,
- M.J.van Setten, B.Van Troeye, M.J.Verstraete, J.Wiktor, J.W.Zwanziger, and X.Gonze.
- Comment: a global overview of ABINIT, with focus on selected capabilities .
- Note that a version of this paper, that is not formatted for J. Chem. Phys 
- is available at https://www.abinit.org/sites/default/files/ABINIT20_JPC.pdf .
- The licence allows the authors to put it on the Web.
- DOI and bibtex: see https://docs.abinit.org/theory/bibliography/#romero2020
-
- [5] Recent developments in the ABINIT software package.
- Computer Phys. Comm. 205, 106 (2016).
- X.Gonze, F.Jollet, F.Abreu Araujo, D.Adams, B.Amadon, T.Applencourt,
- C.Audouze, J.-M.Beuken, J.Bieder, A.Bokhanchuk, E.Bousquet, F.Bruneval
- D.Caliste, M.Cote, F.Dahm, F.Da Pieve, M.Delaveau, M.Di Gennaro,
- B.Dorado, C.Espejo, G.Geneste, L.Genovese, A.Gerossier, M.Giantomassi,
- Y.Gillet, D.R.Hamann, L.He, G.Jomard, J.Laflamme Janssen, S.Le Roux,
- A.Levitt, A.Lherbier, F.Liu, I.Lukacevic, A.Martin, C.Martins,
- M.J.T.Oliveira, S.Ponce, Y.Pouillon, T.Rangel, G.-M.Rignanese,
- A.H.Romero, B.Rousseau, O.Rubel, A.A.Shukri, M.Stankovski, M.Torrent,
- M.J.Van Setten, B.Van Troeye, M.J.Verstraete, D.Waroquier, J.Wiktor,
- B.Xu, A.Zhou, J.W.Zwanziger.
- Comment: the fourth generic paper describing the ABINIT project.
- Note that a version of this paper, that is not formatted for Computer Phys. Comm. 
- is available at https://www.abinit.org/sites/default/files/ABINIT16.pdf .
- The licence allows the authors to put it on the Web.
- DOI and bibtex: see https://docs.abinit.org/theory/bibliography/#gonze2016
-
- Proc.   0 individual time (sec): cpu=       6646.2  wall=       6657.3

================================================================================

 Calculation completed.
.Delivered   0 WARNINGs and   2 COMMENTs to log file.
+Overall time at end (sec) : cpu=      26593.2  wall=      26629.0
