
.Version 9.2.2 of ABINIT 
.(MPI version, prepared for a x86_64_linux_gnu9.3 computer) 

.Copyright (C) 1998-2020 ABINIT group . 
 ABINIT comes with ABSOLUTELY NO WARRANTY.
 It is free software, and you are welcome to redistribute it
 under certain conditions (GNU General Public License,
 see ~abinit/COPYING or http://www.gnu.org/copyleft/gpl.txt).

 ABINIT is a project of the Universite Catholique de Louvain,
 Corning Inc. and other collaborators, see ~abinit/doc/developers/contributors.txt .
 Please read https://docs.abinit.org/theory/acknowledgments for suggested
 acknowledgments of the ABINIT effort.
 For more information, see https://www.abinit.org .

.Starting date : Sat 12 Nov 2022.
- ( at 22h43 )
  
- input  file    -> Cs2TiI6.in
- output file    -> Cs2TiI6.out
- root for input  files -> Cs2TiI6i
- root for output files -> Cs2TiI6o

- inpspheads : Reading pseudopotential header in XML form from 
-   ../../../Psps_for_tests/ATOMICDATA/Cs.GGA_PBE-JTH.xml
- inpspheads : Reading pseudopotential header in XML form from 
-   ../../../Psps_for_tests/ATOMICDATA/Br.GGA_PBE-JTH.xml
- inpspheads : Reading pseudopotential header in XML form from 
-   ../../../Psps_for_tests/ATOMICDATA/Hf.GGA_PBE-JTH.xml

 DATASET    1 : space group Fm -3 m (#225); Bravais cF (face-center cubic)
================================================================================
 Values of the parameters that define the memory need for DATASET  1.
     intxc =       0    ionmov =       0      iscf =      17    lmnmax =      18
     lnmax =       6     mgfft =      60  mpssoang =       3    mqgrid =    3765
     natom =       9  nloc_mem =       2    nspden =       1   nspinor =       1
    nsppol =       1      nsym =      48    n1xccc =       1    ntypat =       3
    occopt =       1   xclevel =       2
-    mband =          42        mffmem =           1         mkmem =          12
       mpw =        9257          nfft =      216000          nkpt =          72
Pmy_natom=         2
 PAW method is used; the additional fine FFT grid is defined by:
   mgfftf=        96    nfftf =    884736
================================================================================
P This job should need less than                     328.204 Mbytes of memory.
  Rough estimation (10% accuracy) of disk space for files :
_ WF disk file :    427.144 Mbytes ; DEN or POT disk file :      6.752 Mbytes.
================================================================================


 DATASET    2 : space group Fm -3 m (#225); Bravais cF (face-center cubic)
================================================================================
 Values of the parameters that define the memory need for DATASET  2.
     intxc =       0    ionmov =       0      iscf =      17    lmnmax =      18
     lnmax =       6     mgfft =      60  mpssoang =       3    mqgrid =    3761
     natom =       9  nloc_mem =       2    nspden =       1   nspinor =       1
    nsppol =       1      nsym =      48    n1xccc =       1    ntypat =       3
    occopt =       1   xclevel =       2
-    mband =          42        mffmem =           1         mkmem =          12
       mpw =        9225          nfft =      216000          nkpt =          72
Pmy_natom=         2
 PAW method is used; the additional fine FFT grid is defined by:
   mgfftf=        96    nfftf =    884736
================================================================================
P This job should need less than                     327.945 Mbytes of memory.
  Rough estimation (10% accuracy) of disk space for files :
_ WF disk file :    425.667 Mbytes ; DEN or POT disk file :      6.752 Mbytes.
================================================================================


 DATASET    3 : space group Fm -3 m (#225); Bravais cF (face-center cubic)
================================================================================
 Values of the parameters that define the memory need for DATASET  3.
     intxc =       0    ionmov =       0      iscf =      17    lmnmax =      18
     lnmax =       6     mgfft =      60  mpssoang =       3    mqgrid =    3757
     natom =       9  nloc_mem =       2    nspden =       1   nspinor =       1
    nsppol =       1      nsym =      48    n1xccc =       1    ntypat =       3
    occopt =       1   xclevel =       2
-    mband =          42        mffmem =           1         mkmem =          12
       mpw =        9201          nfft =      216000          nkpt =          72
Pmy_natom=         2
 PAW method is used; the additional fine FFT grid is defined by:
   mgfftf=        96    nfftf =    884736
================================================================================
P This job should need less than                     327.754 Mbytes of memory.
  Rough estimation (10% accuracy) of disk space for files :
_ WF disk file :    424.560 Mbytes ; DEN or POT disk file :      6.752 Mbytes.
================================================================================


 DATASET    4 : space group Fm -3 m (#225); Bravais cF (face-center cubic)
================================================================================
 Values of the parameters that define the memory need for DATASET  4.
     intxc =       0    ionmov =       0      iscf =      17    lmnmax =      18
     lnmax =       6     mgfft =      60  mpssoang =       3    mqgrid =    3753
     natom =       9  nloc_mem =       2    nspden =       1   nspinor =       1
    nsppol =       1      nsym =      48    n1xccc =       1    ntypat =       3
    occopt =       1   xclevel =       2
-    mband =          42        mffmem =           1         mkmem =          12
       mpw =        9143          nfft =      216000          nkpt =          72
Pmy_natom=         2
 PAW method is used; the additional fine FFT grid is defined by:
   mgfftf=        96    nfftf =    884736
================================================================================
P This job should need less than                     327.270 Mbytes of memory.
  Rough estimation (10% accuracy) of disk space for files :
_ WF disk file :    421.884 Mbytes ; DEN or POT disk file :      6.752 Mbytes.
================================================================================


 DATASET    5 : space group Fm -3 m (#225); Bravais cF (face-center cubic)
================================================================================
 Values of the parameters that define the memory need for DATASET  5.
     intxc =       0    ionmov =       0      iscf =      17    lmnmax =      18
     lnmax =       6     mgfft =      60  mpssoang =       3    mqgrid =    3750
     natom =       9  nloc_mem =       2    nspden =       1   nspinor =       1
    nsppol =       1      nsym =      48    n1xccc =       1    ntypat =       3
    occopt =       1   xclevel =       2
-    mband =          42        mffmem =           1         mkmem =          12
       mpw =        9119          nfft =      216000          nkpt =          72
Pmy_natom=         2
 PAW method is used; the additional fine FFT grid is defined by:
   mgfftf=        96    nfftf =    884736
================================================================================
P This job should need less than                     327.079 Mbytes of memory.
  Rough estimation (10% accuracy) of disk space for files :
_ WF disk file :    420.776 Mbytes ; DEN or POT disk file :      6.752 Mbytes.
================================================================================


 DATASET    6 : space group Fm -3 m (#225); Bravais cF (face-center cubic)
================================================================================
 Values of the parameters that define the memory need for DATASET  6.
     intxc =       0    ionmov =       0      iscf =      17    lmnmax =      18
     lnmax =       6     mgfft =      60  mpssoang =       3    mqgrid =    3746
     natom =       9  nloc_mem =       2    nspden =       1   nspinor =       1
    nsppol =       1      nsym =      48    n1xccc =       1    ntypat =       3
    occopt =       1   xclevel =       2
-    mband =          42        mffmem =           1         mkmem =          12
       mpw =        9089          nfft =      216000          nkpt =          72
Pmy_natom=         2
 PAW method is used; the additional fine FFT grid is defined by:
   mgfftf=        96    nfftf =    884736
================================================================================
P This job should need less than                     326.837 Mbytes of memory.
  Rough estimation (10% accuracy) of disk space for files :
_ WF disk file :    419.392 Mbytes ; DEN or POT disk file :      6.752 Mbytes.
================================================================================


 DATASET    7 : space group Fm -3 m (#225); Bravais cF (face-center cubic)
================================================================================
 Values of the parameters that define the memory need for DATASET  7.
     intxc =       0    ionmov =       0      iscf =      17    lmnmax =      18
     lnmax =       6     mgfft =      60  mpssoang =       3    mqgrid =    3742
     natom =       9  nloc_mem =       2    nspden =       1   nspinor =       1
    nsppol =       1      nsym =      48    n1xccc =       1    ntypat =       3
    occopt =       1   xclevel =       2
-    mband =          42        mffmem =           1         mkmem =          12
       mpw =        9048          nfft =      216000          nkpt =          72
Pmy_natom=         2
 PAW method is used; the additional fine FFT grid is defined by:
   mgfftf=        96    nfftf =    884736
================================================================================
P This job should need less than                     326.500 Mbytes of memory.
  Rough estimation (10% accuracy) of disk space for files :
_ WF disk file :    417.500 Mbytes ; DEN or POT disk file :      6.752 Mbytes.
================================================================================


 DATASET    8 : space group Fm -3 m (#225); Bravais cF (face-center cubic)
================================================================================
 Values of the parameters that define the memory need for DATASET  8.
     intxc =       0    ionmov =       0      iscf =      17    lmnmax =      18
     lnmax =       6     mgfft =      60  mpssoang =       3    mqgrid =    3738
     natom =       9  nloc_mem =       2    nspden =       1   nspinor =       1
    nsppol =       1      nsym =      48    n1xccc =       1    ntypat =       3
    occopt =       1   xclevel =       2
-    mband =          42        mffmem =           1         mkmem =          12
       mpw =        9033          nfft =      216000          nkpt =          72
Pmy_natom=         2
 PAW method is used; the additional fine FFT grid is defined by:
   mgfftf=        96    nfftf =    884736
================================================================================
P This job should need less than                     326.388 Mbytes of memory.
  Rough estimation (10% accuracy) of disk space for files :
_ WF disk file :    416.808 Mbytes ; DEN or POT disk file :      6.752 Mbytes.
================================================================================


 DATASET    9 : space group Fm -3 m (#225); Bravais cF (face-center cubic)
================================================================================
 Values of the parameters that define the memory need for DATASET  9.
     intxc =       0    ionmov =       0      iscf =      17    lmnmax =      18
     lnmax =       6     mgfft =      60  mpssoang =       3    mqgrid =    3735
     natom =       9  nloc_mem =       2    nspden =       1   nspinor =       1
    nsppol =       1      nsym =      48    n1xccc =       1    ntypat =       3
    occopt =       1   xclevel =       2
-    mband =          42        mffmem =           1         mkmem =          12
       mpw =        9028          nfft =      216000          nkpt =          72
Pmy_natom=         2
 PAW method is used; the additional fine FFT grid is defined by:
   mgfftf=        96    nfftf =    884736
================================================================================
P This job should need less than                     326.362 Mbytes of memory.
  Rough estimation (10% accuracy) of disk space for files :
_ WF disk file :    416.577 Mbytes ; DEN or POT disk file :      6.752 Mbytes.
================================================================================


 DATASET   10 : space group Fm -3 m (#225); Bravais cF (face-center cubic)
================================================================================
 Values of the parameters that define the memory need for DATASET 10.
     intxc =       0    ionmov =       0      iscf =      17    lmnmax =      18
     lnmax =       6     mgfft =      60  mpssoang =       3    mqgrid =    3731
     natom =       9  nloc_mem =       2    nspden =       1   nspinor =       1
    nsppol =       1      nsym =      48    n1xccc =       1    ntypat =       3
    occopt =       1   xclevel =       2
-    mband =          42        mffmem =           1         mkmem =          12
       mpw =        8977          nfft =      216000          nkpt =          72
Pmy_natom=         2
 PAW method is used; the additional fine FFT grid is defined by:
   mgfftf=        96    nfftf =    884736
================================================================================
P This job should need less than                     325.939 Mbytes of memory.
  Rough estimation (10% accuracy) of disk space for files :
_ WF disk file :    414.224 Mbytes ; DEN or POT disk file :      6.752 Mbytes.
================================================================================

--------------------------------------------------------------------------------
------------- Echo of variables that govern the present computation ------------
--------------------------------------------------------------------------------
-
- outvars: echo of selected default values                                      
-   iomode0 =  0 , fftalg0 =112 , wfoptalg0 = 10
-
- outvars: echo of global parameters not present in the input file              
-  max_nthreads =    0
-
 -outvars: echo values of preprocessed input variables --------
            acell1     1.4081070920E+01  1.4081070920E+01  1.4081070920E+01 Bohr
            acell2     1.4066975754E+01  1.4066975754E+01  1.4066975754E+01 Bohr
            acell3     1.4052880588E+01  1.4052880588E+01  1.4052880588E+01 Bohr
            acell4     1.4038785422E+01  1.4038785422E+01  1.4038785422E+01 Bohr
            acell5     1.4024690256E+01  1.4024690256E+01  1.4024690256E+01 Bohr
            acell6     1.4010595089E+01  1.4010595089E+01  1.4010595089E+01 Bohr
            acell7     1.3996499923E+01  1.3996499923E+01  1.3996499923E+01 Bohr
            acell8     1.3982404757E+01  1.3982404757E+01  1.3982404757E+01 Bohr
            acell9     1.3968309591E+01  1.3968309591E+01  1.3968309591E+01 Bohr
            acell10    1.3954214425E+01  1.3954214425E+01  1.3954214425E+01 Bohr
              amu      1.32905430E+02  7.99040000E+01  1.78490000E+02
           diemac      1.20000000E+01
          dilatmx      1.15000000E+00
             ecut      1.60000000E+01 Hartree
           ecutsm      5.00000000E-01 Hartree
-          fftalg         112
           istwfk        2    0    0    0    0    0    3    0    0    0
                         0    0    0    0    0    0    0    0    0    0
                         0    0    0    0    0    0    0    0    0    0
                         0    0    0    0    0    0    0    0    0    0
                         0    0    7    0    0    0    0    0    0    0
                       outvar_i_n : Printing only first  50 k-points.
              ixc     -101130
           jdtset        1    2    3    4    5    6    7    8    9   10
              kpt      0.00000000E+00  0.00000000E+00  0.00000000E+00
                       8.33333333E-02  0.00000000E+00  0.00000000E+00
                       1.66666667E-01  0.00000000E+00  0.00000000E+00
                       2.50000000E-01  0.00000000E+00  0.00000000E+00
                       3.33333333E-01  0.00000000E+00  0.00000000E+00
                       4.16666667E-01  0.00000000E+00  0.00000000E+00
                       5.00000000E-01  0.00000000E+00  0.00000000E+00
                       8.33333333E-02  8.33333333E-02  0.00000000E+00
                       1.66666667E-01  8.33333333E-02  0.00000000E+00
                       2.50000000E-01  8.33333333E-02  0.00000000E+00
                       3.33333333E-01  8.33333333E-02  0.00000000E+00
                       4.16666667E-01  8.33333333E-02  0.00000000E+00
                       5.00000000E-01  8.33333333E-02  0.00000000E+00
                      -4.16666667E-01  8.33333333E-02  0.00000000E+00
                      -3.33333333E-01  8.33333333E-02  0.00000000E+00
                      -2.50000000E-01  8.33333333E-02  0.00000000E+00
                      -1.66666667E-01  8.33333333E-02  0.00000000E+00
                      -8.33333333E-02  8.33333333E-02  0.00000000E+00
                       1.66666667E-01  1.66666667E-01  0.00000000E+00
                       2.50000000E-01  1.66666667E-01  0.00000000E+00
                       3.33333333E-01  1.66666667E-01  0.00000000E+00
                       4.16666667E-01  1.66666667E-01  0.00000000E+00
                       5.00000000E-01  1.66666667E-01  0.00000000E+00
                      -4.16666667E-01  1.66666667E-01  0.00000000E+00
                      -3.33333333E-01  1.66666667E-01  0.00000000E+00
                      -2.50000000E-01  1.66666667E-01  0.00000000E+00
                      -1.66666667E-01  1.66666667E-01  0.00000000E+00
                       2.50000000E-01  2.50000000E-01  0.00000000E+00
                       3.33333333E-01  2.50000000E-01  0.00000000E+00
                       4.16666667E-01  2.50000000E-01  0.00000000E+00
                       5.00000000E-01  2.50000000E-01  0.00000000E+00
                      -4.16666667E-01  2.50000000E-01  0.00000000E+00
                      -3.33333333E-01  2.50000000E-01  0.00000000E+00
                      -2.50000000E-01  2.50000000E-01  0.00000000E+00
                       3.33333333E-01  3.33333333E-01  0.00000000E+00
                       4.16666667E-01  3.33333333E-01  0.00000000E+00
                       5.00000000E-01  3.33333333E-01  0.00000000E+00
                      -4.16666667E-01  3.33333333E-01  0.00000000E+00
                      -3.33333333E-01  3.33333333E-01  0.00000000E+00
                       4.16666667E-01  4.16666667E-01  0.00000000E+00
                       5.00000000E-01  4.16666667E-01  0.00000000E+00
                      -4.16666667E-01  4.16666667E-01  0.00000000E+00
                       5.00000000E-01  5.00000000E-01  0.00000000E+00
                       2.50000000E-01  1.66666667E-01  8.33333333E-02
                       3.33333333E-01  1.66666667E-01  8.33333333E-02
                       4.16666667E-01  1.66666667E-01  8.33333333E-02
                       5.00000000E-01  1.66666667E-01  8.33333333E-02
                      -4.16666667E-01  1.66666667E-01  8.33333333E-02
                       3.33333333E-01  2.50000000E-01  8.33333333E-02
                       4.16666667E-01  2.50000000E-01  8.33333333E-02
                       outvar_i_n : Printing only first  50 k-points.
         kptrlatt       12    0    0      0   12    0      0    0   12
          kptrlen1     1.68972851E+02
          kptrlen2     1.68803709E+02
          kptrlen3     1.68634567E+02
          kptrlen4     1.68465425E+02
          kptrlen5     1.68296283E+02
          kptrlen6     1.68127141E+02
          kptrlen7     1.67957999E+02
          kptrlen8     1.67788857E+02
          kptrlen9     1.67619715E+02
          kptrlen10    1.67450573E+02
P           mkmem          12
            natom           9
            nband          42
           ndtset          10
            ngfft          60      60      60
          ngfftdg          96      96      96
             nkpt          72
            nstep        2500
             nsym          48
           ntypat           3
              occ      2.000000  2.000000  2.000000  2.000000  2.000000  2.000000
                       2.000000  2.000000  2.000000  2.000000  2.000000  2.000000
                       2.000000  2.000000  2.000000  2.000000  2.000000  2.000000
                       2.000000  2.000000  2.000000  2.000000  2.000000  2.000000
                       2.000000  2.000000  2.000000  2.000000  2.000000  2.000000
                       2.000000  2.000000  2.000000  2.000000  2.000000  2.000000
                       0.000000  0.000000  0.000000  0.000000  0.000000  0.000000
        pawecutdg      4.00000000E+01 Hartree
            prtwf           0
            rprim      0.0000000000E+00  7.0710678119E-01  7.0710678119E-01
                       7.0710678119E-01  0.0000000000E+00  7.0710678119E-01
                       7.0710678119E-01  7.0710678119E-01  0.0000000000E+00
          spgroup         225
           symrel      1  0  0   0  1  0   0  0  1      -1  0  0   0 -1  0   0  0 -1
                       0 -1  1   0 -1  0   1 -1  0       0  1 -1   0  1  0  -1  1  0
                      -1  0  0  -1  0  1  -1  1  0       1  0  0   1  0 -1   1 -1  0
                       0  1 -1   1  0 -1   0  0 -1       0 -1  1  -1  0  1   0  0  1
                      -1  0  0  -1  1  0  -1  0  1       1  0  0   1 -1  0   1  0 -1
                       0 -1  1   1 -1  0   0 -1  0       0  1 -1  -1  1  0   0  1  0
                       1  0  0   0  0  1   0  1  0      -1  0  0   0  0 -1   0 -1  0
                       0  1 -1   0  0 -1   1  0 -1       0 -1  1   0  0  1  -1  0  1
                      -1  0  1  -1  1  0  -1  0  0       1  0 -1   1 -1  0   1  0  0
                       0 -1  0   1 -1  0   0 -1  1       0  1  0  -1  1  0   0  1 -1
                       1  0 -1   0  0 -1   0  1 -1      -1  0  1   0  0  1   0 -1  1
                       0  1  0   0  0  1   1  0  0       0 -1  0   0  0 -1  -1  0  0
                       1  0 -1   0  1 -1   0  0 -1      -1  0  1   0 -1  1   0  0  1
                       0 -1  0   0 -1  1   1 -1  0       0  1  0   0  1 -1  -1  1  0
                      -1  0  1  -1  0  0  -1  1  0       1  0 -1   1  0  0   1 -1  0
                       0  1  0   1  0  0   0  0  1       0 -1  0  -1  0  0   0  0 -1
                       0  0 -1   0  1 -1   1  0 -1       0  0  1   0 -1  1  -1  0  1
                       1 -1  0   0 -1  1   0 -1  0      -1  1  0   0  1 -1   0  1  0
                       0  0  1   1  0  0   0  1  0       0  0 -1  -1  0  0   0 -1  0
                      -1  1  0  -1  0  0  -1  0  1       1 -1  0   1  0  0   1  0 -1
                       0  0  1   0  1  0   1  0  0       0  0 -1   0 -1  0  -1  0  0
                       1 -1  0   0 -1  0   0 -1  1      -1  1  0   0  1  0   0  1 -1
                       0  0 -1   1  0 -1   0  1 -1       0  0  1  -1  0  1   0 -1  1
                      -1  1  0  -1  0  1  -1  0  0       1 -1  0   1  0 -1   1  0  0
           toldfe      1.00000000E-08 Hartree
            typat      1  1  2  2  2  2  2  2  3
           useylm           1
              wtk        0.00058    0.00463    0.00463    0.00463    0.00463    0.00463
                         0.00231    0.00347    0.01389    0.01389    0.01389    0.01389
                         0.01389    0.01389    0.01389    0.01389    0.01389    0.00694
                         0.00347    0.01389    0.01389    0.01389    0.01389    0.01389
                         0.01389    0.01389    0.00694    0.00347    0.01389    0.01389
                         0.01389    0.01389    0.01389    0.00694    0.00347    0.01389
                         0.01389    0.01389    0.00694    0.00347    0.01389    0.00694
                         0.00174    0.01389    0.02778    0.02778    0.02778    0.01389
                         0.01389    0.02778
                       outvars : Printing only first  50 k-points.
           xangst1     2.6344613012E+00  2.6344613012E+00  2.6344613012E+00
                       7.9033839036E+00  7.9033839036E+00  7.9033839036E+00
                       5.2689226024E+00  7.9328895708E+00  5.2689226024E+00
                       5.2689226024E+00  5.2689226024E+00  2.6049556340E+00
                       5.2689226024E+00  5.2689226024E+00  7.9328895708E+00
                       5.2689226024E+00  2.6049556340E+00  5.2689226024E+00
                       7.9328895708E+00  5.2689226024E+00  5.2689226024E+00
                       2.6049556340E+00  5.2689226024E+00  5.2689226024E+00
                       1.5147794698E-18 -6.1841980633E-19  1.6995274730E-18
           xangst2     2.6318242028E+00  2.6318242028E+00  2.6318242028E+00
                       7.8954726085E+00  7.8954726085E+00  7.8954726085E+00
                       5.2636484057E+00  7.9229477101E+00  5.2636484057E+00
                       5.2636484057E+00  5.2636484057E+00  2.6043491012E+00
                       5.2636484057E+00  5.2636484057E+00  7.9229477101E+00
                       5.2636484057E+00  2.6043491012E+00  5.2636484057E+00
                       7.9229477101E+00  5.2636484057E+00  5.2636484057E+00
                       2.6043491012E+00  5.2636484057E+00  5.2636484057E+00
                       1.4274364801E-18 -6.8649934662E-19  1.7645888571E-18
           xangst3     2.6291871044E+00  2.6291871044E+00  2.6291871044E+00
                       7.8875613133E+00  7.8875613133E+00  7.8875613133E+00
                       5.2583742089E+00  7.9130074422E+00  5.2583742089E+00
                       5.2583742089E+00  5.2583742089E+00  2.6037409756E+00
                       5.2583742089E+00  5.2583742089E+00  7.9130074422E+00
                       5.2583742089E+00  2.6037409756E+00  5.2583742089E+00
                       7.9130074422E+00  5.2583742089E+00  5.2583742089E+00
                       2.6037409756E+00  5.2583742089E+00  5.2583742089E+00
                       1.5055593082E-18 -6.2404520500E-19  1.6863099894E-18
           xangst4     2.6265500061E+00  2.6265500061E+00  2.6265500061E+00
                       7.8796500182E+00  7.8796500182E+00  7.8796500182E+00
                       5.2531000121E+00  7.9030892007E+00  5.2531000121E+00
                       5.2531000121E+00  5.2531000121E+00  2.6031108235E+00
                       5.2531000121E+00  5.2531000121E+00  7.9030892007E+00
                       5.2531000121E+00  2.6031108235E+00  5.2531000121E+00
                       7.9030892007E+00  5.2531000121E+00  5.2531000121E+00
                       2.6031108235E+00  5.2531000121E+00  5.2531000121E+00
                       1.5388122332E-18 -5.8787641616E-19  1.6139530816E-18
           xangst5     2.6239129077E+00  2.6239129077E+00  2.6239129077E+00
                       7.8717387230E+00  7.8717387230E+00  7.8717387230E+00
                       5.2478258154E+00  7.8930924458E+00  5.2478258154E+00
                       5.2478258154E+00  5.2478258154E+00  2.6025591849E+00
                       5.2478258154E+00  5.2478258154E+00  7.8930924458E+00
                       5.2478258154E+00  2.6025591849E+00  5.2478258154E+00
                       7.8930924458E+00  5.2478258154E+00  5.2478258154E+00
                       2.6025591849E+00  5.2478258154E+00  5.2478258154E+00
                       1.5025391290E-18 -6.2279335906E-19  1.6829272211E-18
           xangst6     2.6212758091E+00  2.6212758091E+00  2.6212758091E+00
                       7.8638274273E+00  7.8638274273E+00  7.8638274273E+00
                       5.2425516182E+00  7.8832031346E+00  5.2425516182E+00
                       5.2425516182E+00  5.2425516182E+00  2.6019001019E+00
                       5.2425516182E+00  5.2425516182E+00  7.8832031346E+00
                       5.2425516182E+00  2.6019001019E+00  5.2425516182E+00
                       7.8832031346E+00  5.2425516182E+00  5.2425516182E+00
                       2.6019001019E+00  5.2425516182E+00  5.2425516182E+00
                       1.4962252703E-18 -6.9487069928E-19  1.6914103308E-18
           xangst7     2.6186387107E+00  2.6186387107E+00  2.6186387107E+00
                       7.8559161322E+00  7.8559161322E+00  7.8559161322E+00
                       5.2372774214E+00  7.8732544487E+00  5.2372774214E+00
                       5.2372774214E+00  5.2372774214E+00  2.6013003942E+00
                       5.2372774214E+00  5.2372774214E+00  7.8732544487E+00
                       5.2372774214E+00  2.6013003942E+00  5.2372774214E+00
                       7.8732544487E+00  5.2372774214E+00  5.2372774214E+00
                       2.6013003942E+00  5.2372774214E+00  5.2372774214E+00
                       1.5551038677E-18 -6.9989857312E-19  1.7083169232E-18
           xangst8     2.6160016123E+00  2.6160016123E+00  2.6160016123E+00
                       7.8480048370E+00  7.8480048370E+00  7.8480048370E+00
                       5.2320032247E+00  7.8633524469E+00  5.2320032247E+00
                       5.2320032247E+00  5.2320032247E+00  2.6006540025E+00
                       5.2320032247E+00  5.2320032247E+00  7.8633524469E+00
                       5.2320032247E+00  2.6006540025E+00  5.2320032247E+00
                       7.8633524469E+00  5.2320032247E+00  5.2320032247E+00
                       2.6006540025E+00  5.2320032247E+00  5.2320032247E+00
                       1.5551142362E-18 -7.0077017549E-19  1.6918409733E-18
           xangst9     2.6133645140E+00  2.6133645140E+00  2.6133645140E+00
                       7.8400935419E+00  7.8400935419E+00  7.8400935419E+00
                       5.2267290279E+00  7.8534523326E+00  5.2267290279E+00
                       5.2267290279E+00  5.2267290279E+00  2.6000057233E+00
                       5.2267290279E+00  5.2267290279E+00  7.8534523326E+00
                       5.2267290279E+00  2.6000057233E+00  5.2267290279E+00
                       7.8534523326E+00  5.2267290279E+00  5.2267290279E+00
                       2.6000057233E+00  5.2267290279E+00  5.2267290279E+00
                       1.4964987706E-18 -6.2028966714E-19  1.6761616844E-18
           xangst10    2.6107274156E+00  2.6107274156E+00  2.6107274156E+00
                       7.8321822467E+00  7.8321822467E+00  7.8321822467E+00
                       5.2214548311E+00  7.8435723529E+00  5.2214548311E+00
                       5.2214548311E+00  5.2214548311E+00  2.5993373094E+00
                       5.2214548311E+00  5.2214548311E+00  7.8435723529E+00
                       5.2214548311E+00  2.5993373094E+00  5.2214548311E+00
                       7.8435723529E+00  5.2214548311E+00  5.2214548311E+00
                       2.5993373094E+00  5.2214548311E+00  5.2214548311E+00
                       1.4947175674E-18 -6.4010219980E-19  1.6777764326E-18
            xcart1     4.9784103670E+00  4.9784103670E+00  4.9784103670E+00
                       1.4935231101E+01  1.4935231101E+01  1.4935231101E+01
                       9.9568207339E+00  1.4990988731E+01  9.9568207339E+00
                       9.9568207339E+00  9.9568207339E+00  4.9226527366E+00
                       9.9568207339E+00  9.9568207339E+00  1.4990988731E+01
                       9.9568207339E+00  4.9226527366E+00  9.9568207339E+00
                       1.4990988731E+01  9.9568207339E+00  9.9568207339E+00
                       4.9226527366E+00  9.9568207339E+00  9.9568207339E+00
                       2.8625183496E-18 -1.1686440691E-18  3.2116414792E-18
            xcart2     4.9734269732E+00  4.9734269732E+00  4.9734269732E+00
                       1.4920280920E+01  1.4920280920E+01  1.4920280920E+01
                       9.9468539465E+00  1.4972201337E+01  9.9468539465E+00
                       9.9468539465E+00  9.9468539465E+00  4.9215065557E+00
                       9.9468539465E+00  9.9468539465E+00  1.4972201337E+01
                       9.9468539465E+00  4.9215065557E+00  9.9468539465E+00
                       1.4972201337E+01  9.9468539465E+00  9.9468539465E+00
                       4.9215065557E+00  9.9468539465E+00  9.9468539465E+00
                       2.6974640195E-18 -1.2972957555E-18  3.3345896771E-18
            xcart3     4.9684435795E+00  4.9684435795E+00  4.9684435795E+00
                       1.4905330739E+01  1.4905330739E+01  1.4905330739E+01
                       9.9368871590E+00  1.4953416953E+01  9.9368871590E+00
                       9.9368871590E+00  9.9368871590E+00  4.9203573648E+00
                       9.9368871590E+00  9.9368871590E+00  1.4953416953E+01
                       9.9368871590E+00  4.9203573648E+00  9.9368871590E+00
                       1.4953416953E+01  9.9368871590E+00  9.9368871590E+00
                       4.9203573648E+00  9.9368871590E+00  9.9368871590E+00
                       2.8450947692E-18 -1.1792745320E-18  3.1866640550E-18
            xcart4     4.9634601858E+00  4.9634601858E+00  4.9634601858E+00
                       1.4890380557E+01  1.4890380557E+01  1.4890380557E+01
                       9.9269203716E+00  1.4934674193E+01  9.9269203716E+00
                       9.9269203716E+00  9.9269203716E+00  4.9191665500E+00
                       9.9269203716E+00  9.9269203716E+00  1.4934674193E+01
                       9.9269203716E+00  4.9191665500E+00  9.9269203716E+00
                       1.4934674193E+01  9.9269203716E+00  9.9269203716E+00
                       4.9191665500E+00  9.9269203716E+00  9.9269203716E+00
                       2.9079336906E-18 -1.1109254265E-18  3.0499293156E-18
            xcart5     4.9584767921E+00  4.9584767921E+00  4.9584767921E+00
                       1.4875430376E+01  1.4875430376E+01  1.4875430376E+01
                       9.9169535841E+00  1.4915783064E+01  9.9169535841E+00
                       9.9169535841E+00  9.9169535841E+00  4.9181241042E+00
                       9.9169535841E+00  9.9169535841E+00  1.4915783064E+01
                       9.9169535841E+00  4.9181241042E+00  9.9169535841E+00
                       1.4915783064E+01  9.9169535841E+00  9.9169535841E+00
                       4.9181241042E+00  9.9169535841E+00  9.9169535841E+00
                       2.8393874578E-18 -1.1769088860E-18  3.1802715494E-18
            xcart6     4.9534933980E+00  4.9534933980E+00  4.9534933980E+00
                       1.4860480194E+01  1.4860480194E+01  1.4860480194E+01
                       9.9069867959E+00  1.4897094974E+01  9.9069867959E+00
                       9.9069867959E+00  9.9069867959E+00  4.9168786176E+00
                       9.9069867959E+00  9.9069867959E+00  1.4897094974E+01
                       9.9069867959E+00  4.9168786176E+00  9.9069867959E+00
                       1.4897094974E+01  9.9069867959E+00  9.9069867959E+00
                       4.9168786176E+00  9.9069867959E+00  9.9069867959E+00
                       2.8274559939E-18 -1.3131153194E-18  3.1963023036E-18
            xcart7     4.9485100042E+00  4.9485100042E+00  4.9485100042E+00
                       1.4845530013E+01  1.4845530013E+01  1.4845530013E+01
                       9.8970200085E+00  1.4878294683E+01  9.8970200085E+00
                       9.8970200085E+00  9.8970200085E+00  4.9157453344E+00
                       9.8970200085E+00  9.8970200085E+00  1.4878294683E+01
                       9.8970200085E+00  4.9157453344E+00  9.8970200085E+00
                       1.4878294683E+01  9.8970200085E+00  9.8970200085E+00
                       4.9157453344E+00  9.8970200085E+00  9.8970200085E+00
                       2.9387204182E-18 -1.3226166240E-18  3.2282511329E-18
            xcart8     4.9435266105E+00  4.9435266105E+00  4.9435266105E+00
                       1.4830579832E+01  1.4830579832E+01  1.4830579832E+01
                       9.8870532210E+00  1.4859582611E+01  9.8870532210E+00
                       9.8870532210E+00  9.8870532210E+00  4.9145238311E+00
                       9.8870532210E+00  9.8870532210E+00  1.4859582611E+01
                       9.8870532210E+00  4.9145238311E+00  9.8870532210E+00
                       1.4859582611E+01  9.8870532210E+00  9.8870532210E+00
                       4.9145238311E+00  9.8870532210E+00  9.8870532210E+00
                       2.9387400117E-18 -1.3242637138E-18  3.1971161000E-18
            xcart9     4.9385432168E+00  4.9385432168E+00  4.9385432168E+00
                       1.4815629650E+01  1.4815629650E+01  1.4815629650E+01
                       9.8770864336E+00  1.4840874106E+01  9.8770864336E+00
                       9.8770864336E+00  9.8770864336E+00  4.9132987609E+00
                       9.8770864336E+00  9.8770864336E+00  1.4840874106E+01
                       9.8770864336E+00  4.9132987609E+00  9.8770864336E+00
                       1.4840874106E+01  9.8770864336E+00  9.8770864336E+00
                       4.9132987609E+00  9.8770864336E+00  9.8770864336E+00
                       2.8279728347E-18 -1.1721775939E-18  3.1674865380E-18
            xcart10    4.9335598230E+00  4.9335598230E+00  4.9335598230E+00
                       1.4800679469E+01  1.4800679469E+01  1.4800679469E+01
                       9.8671196461E+00  1.4822203651E+01  9.8671196461E+00
                       9.8671196461E+00  9.8671196461E+00  4.9120356417E+00
                       9.8671196461E+00  9.8671196461E+00  1.4822203651E+01
                       9.8671196461E+00  4.9120356417E+00  9.8671196461E+00
                       1.4822203651E+01  9.8671196461E+00  9.8671196461E+00
                       4.9120356417E+00  9.8671196461E+00  9.8671196461E+00
                       2.8246068485E-18 -1.2096178547E-18  3.1705379698E-18
             xred1     2.5000000000E-01  2.5000000000E-01  2.5000000000E-01
                       7.5000000000E-01  7.5000000000E-01  7.5000000000E-01
                       7.5279997159E-01  2.4720002841E-01  7.5279997159E-01
                       2.4720002841E-01  2.4720002841E-01  7.5279997159E-01
                       7.5279997159E-01  7.5279997159E-01  2.4720002841E-01
                       2.4720002841E-01  7.5279997159E-01  2.4720002841E-01
                       2.4720002841E-01  7.5279997159E-01  7.5279997159E-01
                       7.5279997159E-01  2.4720002841E-01  2.4720002841E-01
                      -4.1153745827E-20  3.6371067088E-19 -7.6217461342E-20
             xred2     2.5000000000E-01  2.5000000000E-01  2.5000000000E-01
                       7.5000000000E-01  7.5000000000E-01  7.5000000000E-01
                       7.5260989142E-01  2.4739010858E-01  7.5260989142E-01
                       2.4739010858E-01  2.4739010858E-01  7.5260989142E-01
                       7.5260989142E-01  7.5260989142E-01  2.4739010858E-01
                       2.4739010858E-01  7.5260989142E-01  2.4739010858E-01
                       2.4739010858E-01  7.5260989142E-01  7.5260989142E-01
                       7.5260989142E-01  2.4739010858E-01  2.4739010858E-01
                      -3.3184869380E-20  3.6842550879E-19 -9.7237851461E-20
             xred3     2.5000000000E-01  2.5000000000E-01  2.5000000000E-01
                       7.5000000000E-01  7.5000000000E-01  7.5000000000E-01
                       7.5241958140E-01  2.4758041860E-01  7.5241958140E-01
                       2.4758041860E-01  2.4758041860E-01  7.5241958140E-01
                       7.5241958140E-01  7.5241958140E-01  2.4758041860E-01
                       2.4758041860E-01  7.5241958140E-01  2.4758041860E-01
                       2.4758041860E-01  7.5241958140E-01  7.5241958140E-01
                       7.5241958140E-01  2.4758041860E-01  2.4758041860E-01
                      -4.2151291083E-20  3.6284166464E-19 -7.6525162933E-20
             xred4     2.5000000000E-01  2.5000000000E-01  2.5000000000E-01
                       7.5000000000E-01  7.5000000000E-01  7.5000000000E-01
                       7.5223098575E-01  2.4776901425E-01  7.5223098575E-01
                       2.4776901425E-01  2.4776901425E-01  7.5223098575E-01
                       7.5223098575E-01  7.5223098575E-01  2.4776901425E-01
                       2.4776901425E-01  7.5223098575E-01  2.4776901425E-01
                       2.4776901425E-01  7.5223098575E-01  7.5223098575E-01
                       7.5223098575E-01  2.4776901425E-01  2.4776901425E-01
                      -4.8803141622E-20  3.5604135866E-19 -6.3107237926E-20
             xred5     2.5000000000E-01  2.5000000000E-01  2.5000000000E-01
                       7.5000000000E-01  7.5000000000E-01  7.5000000000E-01
                       7.5203453044E-01  2.4796546956E-01  7.5203453044E-01
                       2.4796546956E-01  2.4796546956E-01  7.5203453044E-01
                       7.5203453044E-01  7.5203453044E-01  2.4796546956E-01
                       2.4796546956E-01  7.5203453044E-01  2.4796546956E-01
                       2.4796546956E-01  7.5203453044E-01  7.5203453044E-01
                       7.5203453044E-01  2.4796546956E-01  2.4796546956E-01
                      -4.2151291083E-20  3.6284166464E-19 -7.6525162933E-20
             xred6     2.5000000000E-01  2.5000000000E-01  2.5000000000E-01
                       7.5000000000E-01  7.5000000000E-01  7.5000000000E-01
                       7.5184792718E-01  2.4815207282E-01  7.5184792718E-01
                       2.4815207282E-01  2.4815207282E-01  7.5184792718E-01
                       7.5184792718E-01  7.5184792718E-01  2.4815207282E-01
                       2.4815207282E-01  7.5184792718E-01  2.4815207282E-01
                       2.4815207282E-01  7.5184792718E-01  7.5184792718E-01
                       7.5184792718E-01  2.4815207282E-01  2.4815207282E-01
                      -4.7656720915E-20  3.7028784675E-19 -8.4887648676E-20
             xred7     2.5000000000E-01  2.5000000000E-01  2.5000000000E-01
                       7.5000000000E-01  7.5000000000E-01  7.5000000000E-01
                       7.5165527956E-01  2.4834472044E-01  7.5165527956E-01
                       2.4834472044E-01  2.4834472044E-01  7.5165527956E-01
                       7.5165527956E-01  7.5165527956E-01  2.4834472044E-01
                       2.4834472044E-01  7.5165527956E-01  2.4834472044E-01
                       2.4834472044E-01  7.5165527956E-01  7.5165527956E-01
                       7.5165527956E-01  2.4834472044E-01  2.4834472044E-01
                      -5.2191766228E-20  3.7837592370E-19 -8.1446098792E-20
             xred8     2.5000000000E-01  2.5000000000E-01  2.5000000000E-01
                       7.5000000000E-01  7.5000000000E-01  7.5000000000E-01
                       7.5146670493E-01  2.4853329507E-01  7.5146670493E-01
                       2.4853329507E-01  2.4853329507E-01  7.5146670493E-01
                       7.5146670493E-01  7.5146670493E-01  2.4853329507E-01
                       2.4853329507E-01  7.5146670493E-01  2.4853329507E-01
                       2.4853329507E-01  7.5146670493E-01  7.5146670493E-01
                       7.5146670493E-01  2.4853329507E-01  2.4853329507E-01
                      -5.3903200563E-20  3.7726710167E-19 -8.0035970610E-20
             xred9     2.5000000000E-01  2.5000000000E-01  2.5000000000E-01
                       7.5000000000E-01  7.5000000000E-01  7.5000000000E-01
                       7.5127793029E-01  2.4872206971E-01  7.5127793029E-01
                       2.4872206971E-01  2.4872206971E-01  7.5127793029E-01
                       7.5127793029E-01  7.5127793029E-01  2.4872206971E-01
                       2.4872206971E-01  7.5127793029E-01  2.4872206971E-01
                       2.4872206971E-01  7.5127793029E-01  7.5127793029E-01
                       7.5127793029E-01  2.4872206971E-01  2.4872206971E-01
                      -4.2151291083E-20  3.6284166464E-19 -7.6525162933E-20
             xred10    2.5000000000E-01  2.5000000000E-01  2.5000000000E-01
                       7.5000000000E-01  7.5000000000E-01  7.5000000000E-01
                       7.5109070236E-01  2.4890929764E-01  7.5109070236E-01
                       2.4890929764E-01  2.4890929764E-01  7.5109070236E-01
                       7.5109070236E-01  7.5109070236E-01  2.4890929764E-01
                       2.4890929764E-01  7.5109070236E-01  2.4890929764E-01
                       2.4890929764E-01  7.5109070236E-01  7.5109070236E-01
                       7.5109070236E-01  2.4890929764E-01  2.4890929764E-01
                      -4.3765899490E-20  3.6508945525E-19 -7.8824876548E-20
            znucl       55.00000   35.00000   72.00000

================================================================================

 chkinp: Checking input parameters for consistency, jdtset=   1.

 chkinp: Checking input parameters for consistency, jdtset=   2.

 chkinp: Checking input parameters for consistency, jdtset=   3.

 chkinp: Checking input parameters for consistency, jdtset=   4.

 chkinp: Checking input parameters for consistency, jdtset=   5.

 chkinp: Checking input parameters for consistency, jdtset=   6.

 chkinp: Checking input parameters for consistency, jdtset=   7.

 chkinp: Checking input parameters for consistency, jdtset=   8.

 chkinp: Checking input parameters for consistency, jdtset=   9.

 chkinp: Checking input parameters for consistency, jdtset=  10.

================================================================================
== DATASET  1 ==================================================================
-   mpi_nproc: 6, omp_nthreads: -1 (-1 if OMP is not activated)


--- !DatasetInfo
iteration_state: {dtset: 1, }
dimensions: {natom: 9, nkpt: 72, mband: 42, nsppol: 1, nspinor: 1, nspden: 1, mpw: 9257, }
cutoff_energies: {ecut:  16.0, pawecutdg:  40.0, }
electrons: {nelect:   7.20000000E+01, charge:   0.00000000E+00, occopt:   1.00000000E+00, tsmear:   1.00000000E-02, }
meta: {optdriver: 0, ionmov: 0, optcell: 0, iscf: 17, paral_kgb: 0, }
...

 Real(R)+Recip(G) space primitive vectors, cartesian coordinates (Bohr,Bohr^-1):
 R(1)=  0.0000000  9.9568207  9.9568207  G(1)= -0.0502168  0.0502168  0.0502168
 R(2)=  9.9568207  0.0000000  9.9568207  G(2)=  0.0502168 -0.0502168  0.0502168
 R(3)=  9.9568207  9.9568207  0.0000000  G(3)=  0.0502168  0.0502168 -0.0502168
 Unit cell volume ucvol=  1.9742041E+03 bohr^3
 Angles (23,13,12)=  6.00000000E+01  6.00000000E+01  6.00000000E+01 degrees

 Coarse grid specifications (used for wave-functions):

 getcut: wavevector=  0.0000  0.0000  0.0000  ngfft=  60  60  60
         ecut(hartree)=     21.160   => boxcut(ratio)=   2.05775

 Fine grid specifications (used for densities):

 getcut: wavevector=  0.0000  0.0000  0.0000  ngfft=  96  96  96
         ecut(hartree)=     52.900   => boxcut(ratio)=   2.08230

--- Pseudopotential description ------------------------------------------------
- pspini: atom type   1  psp file is ../../../Psps_for_tests/ATOMICDATA/Cs.GGA_PBE-JTH.xml
- pspatm: opening atomic psp file    ../../../Psps_for_tests/ATOMICDATA/Cs.GGA_PBE-JTH.xml
- pspatm : Reading pseudopotential header in XML form from ../../../Psps_for_tests/ATOMICDATA/Cs.GGA_PBE-JTH.xml
 Pseudopotential format is: paw10
 basis_size (lnmax)=  6 (lmn_size= 18), orbitals=   0   0   1   1   2   2
 Spheres core radius: rc_sph= 2.20660278
 1 radial meshes are used:
  - mesh 1: r(i)=AA*[exp(BB*(i-1))-1], size=1500 , AA= 0.15922E-03 BB= 0.87573E-02
 Shapefunction is SIN type: shapef(r)=[sin(pi*r/rshp)/(pi*r/rshp)]**2
 Radius for shape functions =  2.00394208
 mmax= 1500
 Radial grid used for partial waves is grid 1
 Radial grid used for projectors is grid 1
 Radial grid used for (t)core density is grid 1
 Radial grid used for Vloc is grid 1
 Radial grid used for pseudo valence density is grid 1
 Mesh size for Vloc has been set to 1341 to avoid numerical noise.
 Compensation charge density is not taken into account in XC energy/potential
 pspatm: atomic psp has been read  and splines computed

- pspini: atom type   2  psp file is ../../../Psps_for_tests/ATOMICDATA/Br.GGA_PBE-JTH.xml
- pspatm: opening atomic psp file    ../../../Psps_for_tests/ATOMICDATA/Br.GGA_PBE-JTH.xml
- pspatm : Reading pseudopotential header in XML form from ../../../Psps_for_tests/ATOMICDATA/Br.GGA_PBE-JTH.xml
 Pseudopotential format is: paw10
 basis_size (lnmax)=  4 (lmn_size=  8), orbitals=   0   0   1   1
 Spheres core radius: rc_sph= 2.20000000
 1 radial meshes are used:
  - mesh 1: r(i)=AA*[exp(BB*(i-1))-1], size= 927 , AA= 0.40483E-03 BB= 0.14169E-01
 Shapefunction is BESSEL type: shapef(r,l)=aa(1,l)*jl(q(1,l)*r)+aa(2,l)*jl(q(2,l)*r)
 Radius for shape functions =  2.02066386
 mmax=  927
 Radial grid used for partial waves is grid 1
 Radial grid used for projectors is grid 1
 Radial grid used for (t)core density is grid 1
 Radial grid used for Vloc is grid 1
 Radial grid used for pseudo valence density is grid 1
 Mesh size for Vloc has been set to  763 to avoid numerical noise.
 Compensation charge density is not taken into account in XC energy/potential
 pspatm: atomic psp has been read  and splines computed

- pspini: atom type   3  psp file is ../../../Psps_for_tests/ATOMICDATA/Hf.GGA_PBE-JTH.xml
- pspatm: opening atomic psp file    ../../../Psps_for_tests/ATOMICDATA/Hf.GGA_PBE-JTH.xml
- pspatm : Reading pseudopotential header in XML form from ../../../Psps_for_tests/ATOMICDATA/Hf.GGA_PBE-JTH.xml
 Pseudopotential format is: paw10
 basis_size (lnmax)=  6 (lmn_size= 18), orbitals=   0   0   1   1   2   2
 Spheres core radius: rc_sph= 2.41000000
 1 radial meshes are used:
  - mesh 1: r(i)=AA*[exp(BB*(i-1))-1], size= 972 , AA= 0.19796E-03 BB= 0.14253E-01
 Shapefunction is SIN type: shapef(r)=[sin(pi*r/rshp)/(pi*r/rshp)]**2
 Radius for shape functions =  2.41000000
 mmax=  972
 Radial grid used for partial waves is grid 1
 Radial grid used for projectors is grid 1
 Radial grid used for (t)core density is grid 1
 Radial grid used for Vloc is grid 1
 Radial grid used for pseudo valence density is grid 1
 Mesh size for Vloc has been set to  809 to avoid numerical noise.
 Compensation charge density is not taken into account in XC energy/potential
 pspatm: atomic psp has been read  and splines computed

   2.70510764E+04                                ecore*ucvol(ha*bohr**3)
--------------------------------------------------------------------------------

_setup2: Arith. and geom. avg. npw (full set) are    9177.870    9177.858

================================================================================

--- !BeginCycle
iteration_state: {dtset: 1, }
solver: {iscf: 17, nstep: 2500, nline: 4, wfoptalg: 10, }
tolerances: {toldfe: 1.00E-08, }
...

     iter   Etot(hartree)      deltaE(h)  residm     nres2
 ETOT  1  -171.06256999954    -1.711E+02 7.318E+00 7.924E+00
 ETOT  2  -173.10980038341    -2.047E+00 3.357E-02 5.080E+00
 ETOT  3  -173.09265744473     1.714E-02 1.635E-02 8.383E-01
 ETOT  4  -173.09319080125    -5.334E-04 7.198E-03 1.351E-01
 ETOT  5  -173.09336387781    -1.731E-04 4.814E-03 1.042E-02
 ETOT  6  -173.09343287531    -6.900E-05 2.770E-03 8.529E-04
 ETOT  7  -173.09344269652    -9.821E-06 2.701E-03 1.795E-04
 ETOT  8  -173.09344521292    -2.516E-06 1.037E-03 4.237E-06
 ETOT  9  -173.09344528714    -7.422E-08 1.092E-03 7.364E-07
 ETOT 10  -173.09344529987    -1.273E-08 8.539E-04 6.534E-08
 ETOT 11  -173.09344529982     5.389E-11 5.871E-04 3.914E-09
 ETOT 12  -173.09344529956     2.598E-10 4.929E-04 4.270E-10

 At SCF step   12, etot is converged : 
  for the second time, diff in etot=  2.598E-10 < toldfe=  1.000E-08

 Cartesian components of stress tensor (hartree/bohr^3)
  sigma(1 1)= -9.41282272E-05  sigma(3 2)=  0.00000000E+00
  sigma(2 2)= -9.41282272E-05  sigma(3 1)=  0.00000000E+00
  sigma(3 3)= -9.41282272E-05  sigma(2 1)=  0.00000000E+00


--- !ResultsGS
iteration_state: {dtset: 1, }
comment   : Summary of ground state results
lattice_vectors:
- [  0.0000000,   9.9568207,   9.9568207, ]
- [  9.9568207,   0.0000000,   9.9568207, ]
- [  9.9568207,   9.9568207,   0.0000000, ]
lattice_lengths: [  14.08107,   14.08107,   14.08107, ]
lattice_angles: [ 60.000,  60.000,  60.000, ] # degrees, (23, 13, 12)
lattice_volume:   1.9742041E+03
convergence: {deltae:  2.598E-10, res2:  4.270E-10, residm:  4.929E-04, diffor: null, }
etotal    :  -1.73093445E+02
entropy   :   0.00000000E+00
fermie    :  -4.83368583E-02
cartesian_stress_tensor: # hartree/bohr^3
- [ -9.41282272E-05,   0.00000000E+00,   0.00000000E+00, ]
- [  0.00000000E+00,  -9.41282272E-05,   0.00000000E+00, ]
- [  0.00000000E+00,   0.00000000E+00,  -9.41282272E-05, ]
pressure_GPa:   2.7693E+00
xred      :
- [  2.5000E-01,   2.5000E-01,   2.5000E-01, Cs]
- [  7.5000E-01,   7.5000E-01,   7.5000E-01, Cs]
- [  7.5280E-01,   2.4720E-01,   7.5280E-01, Br]
- [  2.4720E-01,   2.4720E-01,   7.5280E-01, Br]
- [  7.5280E-01,   7.5280E-01,   2.4720E-01, Br]
- [  2.4720E-01,   7.5280E-01,   2.4720E-01, Br]
- [  2.4720E-01,   7.5280E-01,   7.5280E-01, Br]
- [  7.5280E-01,   2.4720E-01,   2.4720E-01, Br]
- [ -4.1154E-20,   3.6371E-19,  -7.6217E-20, Hf]
cartesian_forces: # hartree/bohr
- [ -2.35286964E-23,  -1.89045821E-23,   2.30314753E-23, ]
- [ -2.35286900E-23,  -1.89045843E-23,   2.30314690E-23, ]
- [ -6.06706936E-23,  -1.58492980E-06,   6.01734726E-23, ]
- [ -8.18522453E-26,  -4.23514237E-23,   1.58492980E-06, ]
- [ -4.69755337E-23,   4.54225775E-24,  -1.58492980E-06, ]
- [  1.36133077E-23,   1.58492980E-06,  -1.41105287E-23, ]
- [ -1.58492980E-06,  -5.60465836E-23,   6.01734726E-23, ]
- [  1.58492980E-06,   1.88378665E-22,  -1.84251776E-22, ]
- [ -2.35286930E-23,  -1.89045830E-23,   2.30314719E-23, ]
force_length_stats: {min:   3.79661839E-23, max:   1.58492980E-06, mean:   1.05661986E-06, }
...

 Integrated electronic density in atomic spheres:
 ------------------------------------------------
 Atom  Sphere_radius  Integrated_density
    1        2.20660          5.37786972
    2        2.20660          5.37786972
    3        2.20000          4.95203094
    4        2.20000          4.95203094
    5        2.20000          4.95203094
    6        2.20000          4.95203094
    7        2.20000          4.95203094
    8        2.20000          4.95203094
    9        2.41000          9.32525208

 PAW TEST:
 ==== Compensation charge inside spheres ============
 The following values must be close to each other ...
 Compensation charge over spherical meshes =     -0.275027529906258
 Compensation charge over fine fft grid    =     -0.275024449529004

 ==== Results concerning PAW augmentation regions ====

 Total pseudopotential strength Dij (hartree):
 Atom #  1
   0.42095  -0.13950   0.00000   0.00000   0.00000   0.00000   0.00000   0.00000   0.00000   0.00000   0.00000   0.00000 ...
  -0.13950   0.04190   0.00000   0.00000   0.00000   0.00000   0.00000   0.00000   0.00000   0.00000   0.00000   0.00000 ...
   0.00000   0.00000  -0.09119   0.00000   0.00000  -0.16800   0.00000   0.00000   0.00000   0.00000   0.00000  -0.00000 ...
   0.00000   0.00000   0.00000  -0.09119   0.00000   0.00000  -0.16800   0.00000  -0.00000   0.00000   0.00000   0.00000 ...
   0.00000   0.00000   0.00000   0.00000  -0.09119   0.00000   0.00000  -0.16800   0.00000  -0.00000   0.00000   0.00000 ...
   0.00000   0.00000  -0.16800   0.00000   0.00000   0.39820   0.00000   0.00000   0.00000   0.00000   0.00000   0.00000 ...
   0.00000   0.00000   0.00000  -0.16800   0.00000   0.00000   0.39820   0.00000   0.00000   0.00000   0.00000   0.00000 ...
   0.00000   0.00000   0.00000   0.00000  -0.16800   0.00000   0.00000   0.39820   0.00000   0.00000   0.00000   0.00000 ...
   0.00000   0.00000   0.00000  -0.00000   0.00000   0.00000   0.00000   0.00000   0.00556   0.00000   0.00000   0.00000 ...
   0.00000   0.00000   0.00000   0.00000  -0.00000   0.00000   0.00000   0.00000   0.00000   0.00556   0.00000   0.00000 ...
   0.00000   0.00000   0.00000   0.00000   0.00000   0.00000   0.00000   0.00000   0.00000   0.00000   0.00556   0.00000 ...
   0.00000   0.00000  -0.00000   0.00000   0.00000   0.00000   0.00000   0.00000   0.00000   0.00000   0.00000   0.00556 ...
   ...  only 12  components have been written...
 Atom #  9
  -3.49277   0.41903   0.00000   0.00000   0.00000   0.00000   0.00000   0.00000   0.00000   0.00000   0.00000   0.00000 ...
   0.41903   0.00465   0.00000   0.00000   0.00000   0.00000   0.00000   0.00000   0.00000   0.00000   0.00000   0.00000 ...
   0.00000   0.00000  -1.41387   0.00000   0.00000   0.11490   0.00000   0.00000   0.00000   0.00000   0.00000   0.00000 ...
   0.00000   0.00000   0.00000  -1.41387   0.00000   0.00000   0.11490   0.00000   0.00000   0.00000   0.00000   0.00000 ...
   0.00000   0.00000   0.00000   0.00000  -1.41387   0.00000   0.00000   0.11490   0.00000   0.00000   0.00000   0.00000 ...
   0.00000   0.00000   0.11490   0.00000   0.00000   0.01479   0.00000   0.00000   0.00000   0.00000   0.00000   0.00000 ...
   0.00000   0.00000   0.00000   0.11490   0.00000   0.00000   0.01479   0.00000   0.00000   0.00000   0.00000   0.00000 ...
   0.00000   0.00000   0.00000   0.00000   0.11490   0.00000   0.00000   0.01479   0.00000   0.00000   0.00000   0.00000 ...
   0.00000   0.00000   0.00000   0.00000   0.00000   0.00000   0.00000   0.00000  -0.38593   0.00000   0.00000   0.00000 ...
   0.00000   0.00000   0.00000   0.00000   0.00000   0.00000   0.00000   0.00000   0.00000  -0.38593   0.00000   0.00000 ...
   0.00000   0.00000   0.00000   0.00000   0.00000   0.00000   0.00000   0.00000   0.00000   0.00000  -0.38529   0.00000 ...
   0.00000   0.00000   0.00000   0.00000   0.00000   0.00000   0.00000   0.00000   0.00000   0.00000   0.00000  -0.38593 ...
   ...  only 12  components have been written...


 Augmentation waves occupancies Rhoij:
 Atom #  1
   1.99891  -0.01214   0.00000   0.00000   0.00000   0.00000   0.00000   0.00000   0.00000   0.00000   0.00000   0.00000 ...
  -0.01214   0.18305   0.00000   0.00000   0.00000   0.00000   0.00000   0.00000   0.00000   0.00000   0.00000   0.00000 ...
   0.00000   0.00000   2.00972   0.00000   0.00000  -0.00493   0.00000   0.00000   0.00000   0.00000   0.00000  -0.00095 ...
   0.00000   0.00000   0.00000   2.00972   0.00000   0.00000  -0.00493   0.00000  -0.00095   0.00000   0.00000   0.00000 ...
   0.00000   0.00000   0.00000   0.00000   2.00972   0.00000   0.00000  -0.00493   0.00000  -0.00095   0.00000   0.00000 ...
   0.00000   0.00000  -0.00493   0.00000   0.00000   0.00014   0.00000   0.00000   0.00000   0.00000   0.00000  -0.00005 ...
   0.00000   0.00000   0.00000  -0.00493   0.00000   0.00000   0.00014   0.00000  -0.00005   0.00000   0.00000   0.00000 ...
   0.00000   0.00000   0.00000   0.00000  -0.00493   0.00000   0.00000   0.00014   0.00000  -0.00005   0.00000   0.00000 ...
   0.00000   0.00000   0.00000  -0.00095   0.00000   0.00000  -0.00005   0.00000   0.06627   0.00000   0.00000   0.00000 ...
   0.00000   0.00000   0.00000   0.00000  -0.00095   0.00000   0.00000  -0.00005   0.00000   0.06627   0.00000   0.00000 ...
   0.00000   0.00000   0.00000   0.00000   0.00000   0.00000   0.00000   0.00000   0.00000   0.00000   0.04269   0.00000 ...
   0.00000   0.00000  -0.00095   0.00000   0.00000  -0.00005   0.00000   0.00000   0.00000   0.00000   0.00000   0.06627 ...
   ...  only 12  components have been written...
 Atom #  9
   1.99790  -0.02154   0.00000   0.00000   0.00000   0.00000   0.00000   0.00000   0.00000   0.00000   0.00000   0.00000 ...
  -0.02154   1.01463   0.00000   0.00000   0.00000   0.00000   0.00000   0.00000   0.00000   0.00000   0.00000   0.00000 ...
   0.00000   0.00000   1.99261   0.00000   0.00000  -0.06442   0.00000   0.00000   0.00000   0.00000   0.00000   0.00000 ...
   0.00000   0.00000   0.00000   1.99261   0.00000   0.00000  -0.06442   0.00000   0.00000   0.00000   0.00000   0.00000 ...
   0.00000   0.00000   0.00000   0.00000   1.99261   0.00000   0.00000  -0.06442   0.00000   0.00000   0.00000   0.00000 ...
   0.00000   0.00000  -0.06442   0.00000   0.00000   1.35725   0.00000   0.00000   0.00000   0.00000   0.00000   0.00000 ...
   0.00000   0.00000   0.00000  -0.06442   0.00000   0.00000   1.35725   0.00000   0.00000   0.00000   0.00000   0.00000 ...
   0.00000   0.00000   0.00000   0.00000  -0.06442   0.00000   0.00000   1.35725   0.00000   0.00000   0.00000   0.00000 ...
   0.00000   0.00000   0.00000   0.00000   0.00000   0.00000   0.00000   0.00000   0.51516   0.00000   0.00000   0.00000 ...
   0.00000   0.00000   0.00000   0.00000   0.00000   0.00000   0.00000   0.00000   0.00000   0.51516   0.00000   0.00000 ...
   0.00000   0.00000   0.00000   0.00000   0.00000   0.00000   0.00000   0.00000   0.00000   0.00000   1.55083   0.00000 ...
   0.00000   0.00000   0.00000   0.00000   0.00000   0.00000   0.00000   0.00000   0.00000   0.00000   0.00000   0.51516 ...
   ...  only 12  components have been written...


================================================================================

 ----iterations are completed or convergence reached----

 Mean square residual over all n,k,spin=   30.907E-07; max=  49.293E-05
 reduced coordinates (array xred) for    9 atoms
       0.250000000000      0.250000000000      0.250000000000
       0.750000000000      0.750000000000      0.750000000000
       0.752799971590      0.247200028410      0.752799971590
       0.247200028410      0.247200028410      0.752799971590
       0.752799971590      0.752799971590      0.247200028410
       0.247200028410      0.752799971590      0.247200028410
       0.247200028410      0.752799971590      0.752799971590
       0.752799971590      0.247200028410      0.247200028410
      -0.000000000000      0.000000000000     -0.000000000000
 rms dE/dt=  1.0521E-05; max dE/dt=  1.5781E-05; dE/dt below (all hartree)
    1      -0.000000000000      0.000000000000      0.000000000000
    2       0.000000000000      0.000000000000     -0.000000000000
    3       0.000015780862      0.000000000000      0.000015780862
    4      -0.000015780862     -0.000015780862      0.000000000000
    5       0.000015780862      0.000015780862      0.000000000000
    6      -0.000015780862      0.000000000000     -0.000015780862
    7      -0.000000000000      0.000015780862      0.000015780862
    8       0.000000000000     -0.000015780862     -0.000015780862
    9       0.000000000000      0.000000000000      0.000000000000

 cartesian coordinates (angstrom) at end:
    1      2.63446130121117     2.63446130121117     2.63446130121117
    2      7.90338390363350     7.90338390363350     7.90338390363350
    3      5.26892260242233     7.93288957082688     5.26892260242233
    4      5.26892260242233     5.26892260242233     2.60495563401778
    5      5.26892260242233     5.26892260242233     7.93288957082688
    6      5.26892260242233     2.60495563401778     5.26892260242233
    7      7.93288957082688     5.26892260242233     5.26892260242233
    8      2.60495563401778     5.26892260242233     5.26892260242233
    9      0.00000000000000    -0.00000000000000     0.00000000000000

 cartesian forces (hartree/bohr) at end:
    1     -0.00000000000000    -0.00000000000000     0.00000000000000
    2     -0.00000000000000    -0.00000000000000     0.00000000000000
    3     -0.00000000000000    -0.00000158492980     0.00000000000000
    4     -0.00000000000000    -0.00000000000000     0.00000158492980
    5     -0.00000000000000     0.00000000000000    -0.00000158492980
    6      0.00000000000000     0.00000158492980    -0.00000000000000
    7     -0.00000158492980    -0.00000000000000     0.00000000000000
    8      0.00000158492980     0.00000000000000    -0.00000000000000
    9     -0.00000000000000    -0.00000000000000     0.00000000000000
 frms,max,avg= 7.4714307E-07 1.5849298E-06   0.000E+00  0.000E+00  0.000E+00 h/b

 cartesian forces (eV/Angstrom) at end:
    1     -0.00000000000000    -0.00000000000000     0.00000000000000
    2     -0.00000000000000    -0.00000000000000     0.00000000000000
    3     -0.00000000000000    -0.00008150036013     0.00000000000000
    4     -0.00000000000000    -0.00000000000000     0.00008150036013
    5     -0.00000000000000     0.00000000000000    -0.00008150036013
    6      0.00000000000000     0.00008150036013    -0.00000000000000
    7     -0.00008150036013    -0.00000000000000     0.00000000000000
    8      0.00008150036013     0.00000000000000    -0.00000000000000
    9     -0.00000000000000    -0.00000000000000     0.00000000000000
 frms,max,avg= 3.8419638E-05 8.1500360E-05   0.000E+00  0.000E+00  0.000E+00 e/A
 length scales= 14.081070920000 14.081070920000 14.081070920000 bohr
              =  7.451381803403  7.451381803403  7.451381803403 angstroms
 prteigrs : about to open file Cs2TiI6o_DS1_EIG
 Fermi (or HOMO) energy (hartree) =  -0.04834   Average Vxc (hartree)=  -0.32128
 Eigenvalues (hartree) for nkpt=  72  k points:
 kpt#   1, nband= 42, wtk=  0.00058, kpt=  0.0000  0.0000  0.0000 (reduced coord)
  -2.32026   -1.16553   -1.16553   -1.16553   -0.76341   -0.76266   -0.55382   -0.53183
  -0.53183   -0.53183   -0.53014   -0.53014   -0.28887   -0.28887   -0.28887   -0.28268
  -0.28268   -0.28268   -0.19666   -0.13088   -0.13088   -0.13088   -0.12769   -0.12769
  -0.12769   -0.12230   -0.12230   -0.07980   -0.07980   -0.07980   -0.05444   -0.05444
  -0.05444   -0.04834   -0.04834   -0.04834    0.06678    0.06678    0.06678    0.14240
   0.15198    0.15198
 prteigrs : prtvol=0 or 1, do not print more k-points.


--- !EnergyTerms
iteration_state     : {dtset: 1, }
comment             : Components of total free energy in Hartree
kinetic             :  4.47040237222731E+01
hartree             :  3.29803905589702E+01
xc                  : -6.95451909153827E+01
Ewald energy        : -1.31076734890186E+02
psp_core            :  1.37022690726458E+01
local_psp           : -7.55696325989783E+01
spherical_terms     :  1.17114310286276E+01
total_energy        : -1.73093444022031E+02
total_energy_eV     : -4.71011214893290E+03
...


--- !EnergyTermsDC
iteration_state     : {dtset: 1, }
comment             : '"Double-counting" decomposition of free energy'
band_energy         : -2.82534953163316E+01
Ewald energy        : -1.31076734890186E+02
psp_core            :  1.37022690726458E+01
xc_dc               : -6.16859758724050E+01
spherical_terms     :  3.42204917067218E+01
total_energy_dc     : -1.73093445299555E+02
total_energy_dc_eV  : -4.71011218369611E+03
...


 Cartesian components of stress tensor (hartree/bohr^3)
  sigma(1 1)= -9.41282272E-05  sigma(3 2)=  0.00000000E+00
  sigma(2 2)= -9.41282272E-05  sigma(3 1)=  0.00000000E+00
  sigma(3 3)= -9.41282272E-05  sigma(2 1)=  0.00000000E+00

-Cartesian components of stress tensor (GPa)         [Pressure=  2.7693E+00 GPa]
- sigma(1 1)= -2.76934759E+00  sigma(3 2)=  0.00000000E+00
- sigma(2 2)= -2.76934759E+00  sigma(3 1)=  0.00000000E+00
- sigma(3 3)= -2.76934759E+00  sigma(2 1)=  0.00000000E+00

================================================================================
== DATASET  2 ==================================================================
-   mpi_nproc: 6, omp_nthreads: -1 (-1 if OMP is not activated)


--- !DatasetInfo
iteration_state: {dtset: 2, }
dimensions: {natom: 9, nkpt: 72, mband: 42, nsppol: 1, nspinor: 1, nspden: 1, mpw: 9225, }
cutoff_energies: {ecut:  16.0, pawecutdg:  40.0, }
electrons: {nelect:   7.20000000E+01, charge:   0.00000000E+00, occopt:   1.00000000E+00, tsmear:   1.00000000E-02, }
meta: {optdriver: 0, ionmov: 0, optcell: 0, iscf: 17, paral_kgb: 0, }
...

 Real(R)+Recip(G) space primitive vectors, cartesian coordinates (Bohr,Bohr^-1):
 R(1)=  0.0000000  9.9468539  9.9468539  G(1)= -0.0502671  0.0502672  0.0502672
 R(2)=  9.9468539  0.0000000  9.9468539  G(2)=  0.0502672 -0.0502671  0.0502672
 R(3)=  9.9468539  9.9468539  0.0000000  G(3)=  0.0502672  0.0502672 -0.0502671
 Unit cell volume ucvol=  1.9682815E+03 bohr^3
 Angles (23,13,12)=  6.00000000E+01  6.00000000E+01  6.00000000E+01 degrees

 Coarse grid specifications (used for wave-functions):

 getcut: wavevector=  0.0000  0.0000  0.0000  ngfft=  60  60  60
         ecut(hartree)=     21.160   => boxcut(ratio)=   2.05981

 Fine grid specifications (used for densities):

 getcut: wavevector=  0.0000  0.0000  0.0000  ngfft=  96  96  96
         ecut(hartree)=     52.900   => boxcut(ratio)=   2.08438

--- Pseudopotential description ------------------------------------------------
- pspini: atom type   1  psp file is ../../../Psps_for_tests/ATOMICDATA/Cs.GGA_PBE-JTH.xml
- pspatm: opening atomic psp file    ../../../Psps_for_tests/ATOMICDATA/Cs.GGA_PBE-JTH.xml
- pspatm : Reading pseudopotential header in XML form from ../../../Psps_for_tests/ATOMICDATA/Cs.GGA_PBE-JTH.xml
 Pseudopotential format is: paw10
 basis_size (lnmax)=  6 (lmn_size= 18), orbitals=   0   0   1   1   2   2
 Spheres core radius: rc_sph= 2.20660278
 1 radial meshes are used:
  - mesh 1: r(i)=AA*[exp(BB*(i-1))-1], size=1500 , AA= 0.15922E-03 BB= 0.87573E-02
 Shapefunction is SIN type: shapef(r)=[sin(pi*r/rshp)/(pi*r/rshp)]**2
 Radius for shape functions =  2.00394208
 mmax= 1500
 Radial grid used for partial waves is grid 1
 Radial grid used for projectors is grid 1
 Radial grid used for (t)core density is grid 1
 Radial grid used for Vloc is grid 1
 Radial grid used for pseudo valence density is grid 1
 Mesh size for Vloc has been set to 1341 to avoid numerical noise.
 Compensation charge density is not taken into account in XC energy/potential
 pspatm: atomic psp has been read  and splines computed

- pspini: atom type   2  psp file is ../../../Psps_for_tests/ATOMICDATA/Br.GGA_PBE-JTH.xml
- pspatm: opening atomic psp file    ../../../Psps_for_tests/ATOMICDATA/Br.GGA_PBE-JTH.xml
- pspatm : Reading pseudopotential header in XML form from ../../../Psps_for_tests/ATOMICDATA/Br.GGA_PBE-JTH.xml
 Pseudopotential format is: paw10
 basis_size (lnmax)=  4 (lmn_size=  8), orbitals=   0   0   1   1
 Spheres core radius: rc_sph= 2.20000000
 1 radial meshes are used:
  - mesh 1: r(i)=AA*[exp(BB*(i-1))-1], size= 927 , AA= 0.40483E-03 BB= 0.14169E-01
 Shapefunction is BESSEL type: shapef(r,l)=aa(1,l)*jl(q(1,l)*r)+aa(2,l)*jl(q(2,l)*r)
 Radius for shape functions =  2.02066386
 mmax=  927
 Radial grid used for partial waves is grid 1
 Radial grid used for projectors is grid 1
 Radial grid used for (t)core density is grid 1
 Radial grid used for Vloc is grid 1
 Radial grid used for pseudo valence density is grid 1
 Mesh size for Vloc has been set to  763 to avoid numerical noise.
 Compensation charge density is not taken into account in XC energy/potential
 pspatm: atomic psp has been read  and splines computed

- pspini: atom type   3  psp file is ../../../Psps_for_tests/ATOMICDATA/Hf.GGA_PBE-JTH.xml
- pspatm: opening atomic psp file    ../../../Psps_for_tests/ATOMICDATA/Hf.GGA_PBE-JTH.xml
- pspatm : Reading pseudopotential header in XML form from ../../../Psps_for_tests/ATOMICDATA/Hf.GGA_PBE-JTH.xml
 Pseudopotential format is: paw10
 basis_size (lnmax)=  6 (lmn_size= 18), orbitals=   0   0   1   1   2   2
 Spheres core radius: rc_sph= 2.41000000
 1 radial meshes are used:
  - mesh 1: r(i)=AA*[exp(BB*(i-1))-1], size= 972 , AA= 0.19796E-03 BB= 0.14253E-01
 Shapefunction is SIN type: shapef(r)=[sin(pi*r/rshp)/(pi*r/rshp)]**2
 Radius for shape functions =  2.41000000
 mmax=  972
 Radial grid used for partial waves is grid 1
 Radial grid used for projectors is grid 1
 Radial grid used for (t)core density is grid 1
 Radial grid used for Vloc is grid 1
 Radial grid used for pseudo valence density is grid 1
 Mesh size for Vloc has been set to  809 to avoid numerical noise.
 Compensation charge density is not taken into account in XC energy/potential
 pspatm: atomic psp has been read  and splines computed

--------------------------------------------------------------------------------

_setup2: Arith. and geom. avg. npw (full set) are    9150.773    9150.760

================================================================================

--- !BeginCycle
iteration_state: {dtset: 2, }
solver: {iscf: 17, nstep: 2500, nline: 4, wfoptalg: 10, }
tolerances: {toldfe: 1.00E-08, }
...

     iter   Etot(hartree)      deltaE(h)  residm     nres2
 ETOT  1  -171.57212555074    -1.716E+02 5.377E+00 9.058E+00
 ETOT  2  -173.10149763203    -1.529E+00 2.555E-02 3.376E+00
 ETOT  3  -173.09165230257     9.845E-03 2.096E-02 5.280E-01
 ETOT  4  -173.09267347720    -1.021E-03 6.895E-03 1.025E-01
 ETOT  5  -173.09278781558    -1.143E-04 3.522E-03 6.682E-03
 ETOT  6  -173.09284355754    -5.574E-05 2.845E-03 7.020E-04
 ETOT  7  -173.09285071895    -7.161E-06 2.129E-03 1.407E-04
 ETOT  8  -173.09285271731    -1.998E-06 1.025E-03 4.090E-06
 ETOT  9  -173.09285280890    -9.160E-08 9.293E-04 6.254E-07
 ETOT 10  -173.09285281550    -6.597E-09 7.592E-04 6.991E-08
 ETOT 11  -173.09285281534     1.601E-10 5.228E-04 4.836E-09

 At SCF step   11, etot is converged : 
  for the second time, diff in etot=  1.601E-10 < toldfe=  1.000E-08

 Cartesian components of stress tensor (hartree/bohr^3)
  sigma(1 1)= -9.66119487E-05  sigma(3 2)=  0.00000000E+00
  sigma(2 2)= -9.66119487E-05  sigma(3 1)=  0.00000000E+00
  sigma(3 3)= -9.66119487E-05  sigma(2 1)=  0.00000000E+00


--- !ResultsGS
iteration_state: {dtset: 2, }
comment   : Summary of ground state results
lattice_vectors:
- [  0.0000000,   9.9468539,   9.9468539, ]
- [  9.9468539,   0.0000000,   9.9468539, ]
- [  9.9468539,   9.9468539,   0.0000000, ]
lattice_lengths: [  14.06698,   14.06698,   14.06698, ]
lattice_angles: [ 60.000,  60.000,  60.000, ] # degrees, (23, 13, 12)
lattice_volume:   1.9682815E+03
convergence: {deltae:  1.601E-10, res2:  4.836E-09, residm:  5.228E-04, diffor: null, }
etotal    :  -1.73092853E+02
entropy   :   0.00000000E+00
fermie    :  -4.77078337E-02
cartesian_stress_tensor: # hartree/bohr^3
- [ -9.66119487E-05,   0.00000000E+00,   0.00000000E+00, ]
- [  0.00000000E+00,  -9.66119487E-05,   0.00000000E+00, ]
- [  0.00000000E+00,   0.00000000E+00,  -9.66119487E-05, ]
pressure_GPa:   2.8424E+00
xred      :
- [  2.5000E-01,   2.5000E-01,   2.5000E-01, Cs]
- [  7.5000E-01,   7.5000E-01,   7.5000E-01, Cs]
- [  7.5261E-01,   2.4739E-01,   7.5261E-01, Br]
- [  2.4739E-01,   2.4739E-01,   7.5261E-01, Br]
- [  7.5261E-01,   7.5261E-01,   2.4739E-01, Br]
- [  2.4739E-01,   7.5261E-01,   2.4739E-01, Br]
- [  2.4739E-01,   7.5261E-01,   7.5261E-01, Br]
- [  7.5261E-01,   2.4739E-01,   2.4739E-01, Br]
- [ -3.3185E-20,   3.6843E-19,  -9.7238E-20, Hf]
cartesian_forces: # hartree/bohr
- [ -1.47054839E-24,   4.57125565E-24,  -3.35295703E-24, ]
- [ -1.47054289E-24,   4.57125100E-24,  -3.35295238E-24, ]
- [  1.80616021E-23,   1.09741136E-07,  -2.28851041E-23, ]
- [ -6.36957295E-25,   3.73766963E-24,  -1.09741136E-07, ]
- [ -2.30412933E-24,   5.40484166E-24,   1.09741136E-07, ]
- [ -3.74076076E-24,  -1.09741136E-07,  -1.08274127E-24, ]
- [  1.09741136E-07,  -1.44474930E-23,   1.56657900E-23, ]
- [ -1.09741136E-07,  -1.75512965E-23,   1.87695934E-23, ]
- [ -1.47054331E-24,   4.57125565E-24,  -3.35295872E-24, ]
force_length_stats: {min:   5.85671595E-24, max:   1.09741136E-07, mean:   7.31607573E-08, }
...

 Integrated electronic density in atomic spheres:
 ------------------------------------------------
 Atom  Sphere_radius  Integrated_density
    1        2.20660          5.36949741
    2        2.20660          5.36949741
    3        2.20000          4.94969158
    4        2.20000          4.94969158
    5        2.20000          4.94969158
    6        2.20000          4.94969158
    7        2.20000          4.94969158
    8        2.20000          4.94969158
    9        2.41000          9.32054174

 PAW TEST:
 ==== Compensation charge inside spheres ============
 The following values must be close to each other ...
 Compensation charge over spherical meshes =     -0.275181266864175
 Compensation charge over fine fft grid    =     -0.275179393666136

 ==== Results concerning PAW augmentation regions ====

 Total pseudopotential strength Dij (hartree):
 Atom #  1
   0.42077  -0.13945   0.00000   0.00000   0.00000   0.00000   0.00000   0.00000   0.00000   0.00000   0.00000   0.00000 ...
  -0.13945   0.04188   0.00000   0.00000   0.00000   0.00000   0.00000   0.00000   0.00000   0.00000   0.00000   0.00000 ...
   0.00000   0.00000  -0.09117   0.00000   0.00000  -0.16802   0.00000   0.00000   0.00000   0.00000   0.00000  -0.00000 ...
   0.00000   0.00000   0.00000  -0.09117   0.00000   0.00000  -0.16802   0.00000  -0.00000   0.00000   0.00000   0.00000 ...
   0.00000   0.00000   0.00000   0.00000  -0.09117   0.00000   0.00000  -0.16802   0.00000  -0.00000   0.00000   0.00000 ...
   0.00000   0.00000  -0.16802   0.00000   0.00000   0.39815   0.00000   0.00000   0.00000   0.00000   0.00000   0.00000 ...
   0.00000   0.00000   0.00000  -0.16802   0.00000   0.00000   0.39815   0.00000   0.00000   0.00000   0.00000   0.00000 ...
   0.00000   0.00000   0.00000   0.00000  -0.16802   0.00000   0.00000   0.39815   0.00000   0.00000   0.00000   0.00000 ...
   0.00000   0.00000   0.00000  -0.00000   0.00000   0.00000   0.00000   0.00000   0.00556   0.00000   0.00000   0.00000 ...
   0.00000   0.00000   0.00000   0.00000  -0.00000   0.00000   0.00000   0.00000   0.00000   0.00556   0.00000   0.00000 ...
   0.00000   0.00000   0.00000   0.00000   0.00000   0.00000   0.00000   0.00000   0.00000   0.00000   0.00556   0.00000 ...
   0.00000   0.00000  -0.00000   0.00000   0.00000   0.00000   0.00000   0.00000   0.00000   0.00000   0.00000   0.00556 ...
   ...  only 12  components have been written...
 Atom #  9
  -3.49251   0.41894   0.00000   0.00000   0.00000   0.00000   0.00000   0.00000   0.00000   0.00000   0.00000   0.00000 ...
   0.41894   0.00467   0.00000   0.00000   0.00000   0.00000   0.00000   0.00000   0.00000   0.00000   0.00000   0.00000 ...
   0.00000   0.00000  -1.41345   0.00000   0.00000   0.11482   0.00000   0.00000   0.00000   0.00000   0.00000   0.00000 ...
   0.00000   0.00000   0.00000  -1.41345   0.00000   0.00000   0.11482   0.00000   0.00000   0.00000   0.00000   0.00000 ...
   0.00000   0.00000   0.00000   0.00000  -1.41345   0.00000   0.00000   0.11482   0.00000   0.00000   0.00000   0.00000 ...
   0.00000   0.00000   0.11482   0.00000   0.00000   0.01480   0.00000   0.00000   0.00000   0.00000   0.00000   0.00000 ...
   0.00000   0.00000   0.00000   0.11482   0.00000   0.00000   0.01480   0.00000   0.00000   0.00000   0.00000   0.00000 ...
   0.00000   0.00000   0.00000   0.00000   0.11482   0.00000   0.00000   0.01480   0.00000   0.00000   0.00000   0.00000 ...
   0.00000   0.00000   0.00000   0.00000   0.00000   0.00000   0.00000   0.00000  -0.38585   0.00000   0.00000   0.00000 ...
   0.00000   0.00000   0.00000   0.00000   0.00000   0.00000   0.00000   0.00000   0.00000  -0.38585   0.00000   0.00000 ...
   0.00000   0.00000   0.00000   0.00000   0.00000   0.00000   0.00000   0.00000   0.00000   0.00000  -0.38520   0.00000 ...
   0.00000   0.00000   0.00000   0.00000   0.00000   0.00000   0.00000   0.00000   0.00000   0.00000   0.00000  -0.38585 ...
   ...  only 12  components have been written...


 Augmentation waves occupancies Rhoij:
 Atom #  1
   1.99895  -0.01205   0.00000   0.00000   0.00000   0.00000   0.00000   0.00000   0.00000   0.00000   0.00000   0.00000 ...
  -0.01205   0.18439   0.00000   0.00000   0.00000   0.00000   0.00000   0.00000   0.00000   0.00000   0.00000   0.00000 ...
   0.00000   0.00000   2.00974   0.00000   0.00000  -0.00493   0.00000   0.00000   0.00000   0.00000   0.00000  -0.00099 ...
   0.00000   0.00000   0.00000   2.00974   0.00000   0.00000  -0.00493   0.00000  -0.00099   0.00000   0.00000   0.00000 ...
[...]
                       7.8534523326E+00  5.2267290279E+00  5.2267290279E+00
                       2.6000057233E+00  5.2267290279E+00  5.2267290279E+00
                       1.4964987706E-18 -6.2028966714E-19  1.6761616844E-18
           xangst10    2.6107274156E+00  2.6107274156E+00  2.6107274156E+00
                       7.8321822467E+00  7.8321822467E+00  7.8321822467E+00
                       5.2214548311E+00  7.8435723529E+00  5.2214548311E+00
                       5.2214548311E+00  5.2214548311E+00  2.5993373094E+00
                       5.2214548311E+00  5.2214548311E+00  7.8435723529E+00
                       5.2214548311E+00  2.5993373094E+00  5.2214548311E+00
                       7.8435723529E+00  5.2214548311E+00  5.2214548311E+00
                       2.5993373094E+00  5.2214548311E+00  5.2214548311E+00
                       1.4947175674E-18 -6.4010219980E-19  1.6777764326E-18
            xcart1     4.9784103670E+00  4.9784103670E+00  4.9784103670E+00
                       1.4935231101E+01  1.4935231101E+01  1.4935231101E+01
                       9.9568207339E+00  1.4990988731E+01  9.9568207339E+00
                       9.9568207339E+00  9.9568207339E+00  4.9226527366E+00
                       9.9568207339E+00  9.9568207339E+00  1.4990988731E+01
                       9.9568207339E+00  4.9226527366E+00  9.9568207339E+00
                       1.4990988731E+01  9.9568207339E+00  9.9568207339E+00
                       4.9226527366E+00  9.9568207339E+00  9.9568207339E+00
                       2.8625183496E-18 -1.1686440691E-18  3.2116414792E-18
            xcart2     4.9734269732E+00  4.9734269732E+00  4.9734269732E+00
                       1.4920280920E+01  1.4920280920E+01  1.4920280920E+01
                       9.9468539465E+00  1.4972201337E+01  9.9468539465E+00
                       9.9468539465E+00  9.9468539465E+00  4.9215065557E+00
                       9.9468539465E+00  9.9468539465E+00  1.4972201337E+01
                       9.9468539465E+00  4.9215065557E+00  9.9468539465E+00
                       1.4972201337E+01  9.9468539465E+00  9.9468539465E+00
                       4.9215065557E+00  9.9468539465E+00  9.9468539465E+00
                       2.6974640195E-18 -1.2972957555E-18  3.3345896771E-18
            xcart3     4.9684435795E+00  4.9684435795E+00  4.9684435795E+00
                       1.4905330739E+01  1.4905330739E+01  1.4905330739E+01
                       9.9368871590E+00  1.4953416953E+01  9.9368871590E+00
                       9.9368871590E+00  9.9368871590E+00  4.9203573648E+00
                       9.9368871590E+00  9.9368871590E+00  1.4953416953E+01
                       9.9368871590E+00  4.9203573648E+00  9.9368871590E+00
                       1.4953416953E+01  9.9368871590E+00  9.9368871590E+00
                       4.9203573648E+00  9.9368871590E+00  9.9368871590E+00
                       2.8450947692E-18 -1.1792745320E-18  3.1866640550E-18
            xcart4     4.9634601858E+00  4.9634601858E+00  4.9634601858E+00
                       1.4890380557E+01  1.4890380557E+01  1.4890380557E+01
                       9.9269203716E+00  1.4934674193E+01  9.9269203716E+00
                       9.9269203716E+00  9.9269203716E+00  4.9191665500E+00
                       9.9269203716E+00  9.9269203716E+00  1.4934674193E+01
                       9.9269203716E+00  4.9191665500E+00  9.9269203716E+00
                       1.4934674193E+01  9.9269203716E+00  9.9269203716E+00
                       4.9191665500E+00  9.9269203716E+00  9.9269203716E+00
                       2.9079336906E-18 -1.1109254265E-18  3.0499293156E-18
            xcart5     4.9584767921E+00  4.9584767921E+00  4.9584767921E+00
                       1.4875430376E+01  1.4875430376E+01  1.4875430376E+01
                       9.9169535841E+00  1.4915783064E+01  9.9169535841E+00
                       9.9169535841E+00  9.9169535841E+00  4.9181241042E+00
                       9.9169535841E+00  9.9169535841E+00  1.4915783064E+01
                       9.9169535841E+00  4.9181241042E+00  9.9169535841E+00
                       1.4915783064E+01  9.9169535841E+00  9.9169535841E+00
                       4.9181241042E+00  9.9169535841E+00  9.9169535841E+00
                       2.8393874578E-18 -1.1769088860E-18  3.1802715494E-18
            xcart6     4.9534933980E+00  4.9534933980E+00  4.9534933980E+00
                       1.4860480194E+01  1.4860480194E+01  1.4860480194E+01
                       9.9069867959E+00  1.4897094974E+01  9.9069867959E+00
                       9.9069867959E+00  9.9069867959E+00  4.9168786176E+00
                       9.9069867959E+00  9.9069867959E+00  1.4897094974E+01
                       9.9069867959E+00  4.9168786176E+00  9.9069867959E+00
                       1.4897094974E+01  9.9069867959E+00  9.9069867959E+00
                       4.9168786176E+00  9.9069867959E+00  9.9069867959E+00
                       2.8274559939E-18 -1.3131153194E-18  3.1963023036E-18
            xcart7     4.9485100042E+00  4.9485100042E+00  4.9485100042E+00
                       1.4845530013E+01  1.4845530013E+01  1.4845530013E+01
                       9.8970200085E+00  1.4878294683E+01  9.8970200085E+00
                       9.8970200085E+00  9.8970200085E+00  4.9157453344E+00
                       9.8970200085E+00  9.8970200085E+00  1.4878294683E+01
                       9.8970200085E+00  4.9157453344E+00  9.8970200085E+00
                       1.4878294683E+01  9.8970200085E+00  9.8970200085E+00
                       4.9157453344E+00  9.8970200085E+00  9.8970200085E+00
                       2.9387204182E-18 -1.3226166240E-18  3.2282511329E-18
            xcart8     4.9435266105E+00  4.9435266105E+00  4.9435266105E+00
                       1.4830579832E+01  1.4830579832E+01  1.4830579832E+01
                       9.8870532210E+00  1.4859582611E+01  9.8870532210E+00
                       9.8870532210E+00  9.8870532210E+00  4.9145238311E+00
                       9.8870532210E+00  9.8870532210E+00  1.4859582611E+01
                       9.8870532210E+00  4.9145238311E+00  9.8870532210E+00
                       1.4859582611E+01  9.8870532210E+00  9.8870532210E+00
                       4.9145238311E+00  9.8870532210E+00  9.8870532210E+00
                       2.9387400117E-18 -1.3242637138E-18  3.1971161000E-18
            xcart9     4.9385432168E+00  4.9385432168E+00  4.9385432168E+00
                       1.4815629650E+01  1.4815629650E+01  1.4815629650E+01
                       9.8770864336E+00  1.4840874106E+01  9.8770864336E+00
                       9.8770864336E+00  9.8770864336E+00  4.9132987609E+00
                       9.8770864336E+00  9.8770864336E+00  1.4840874106E+01
                       9.8770864336E+00  4.9132987609E+00  9.8770864336E+00
                       1.4840874106E+01  9.8770864336E+00  9.8770864336E+00
                       4.9132987609E+00  9.8770864336E+00  9.8770864336E+00
                       2.8279728347E-18 -1.1721775939E-18  3.1674865380E-18
            xcart10    4.9335598230E+00  4.9335598230E+00  4.9335598230E+00
                       1.4800679469E+01  1.4800679469E+01  1.4800679469E+01
                       9.8671196461E+00  1.4822203651E+01  9.8671196461E+00
                       9.8671196461E+00  9.8671196461E+00  4.9120356417E+00
                       9.8671196461E+00  9.8671196461E+00  1.4822203651E+01
                       9.8671196461E+00  4.9120356417E+00  9.8671196461E+00
                       1.4822203651E+01  9.8671196461E+00  9.8671196461E+00
                       4.9120356417E+00  9.8671196461E+00  9.8671196461E+00
                       2.8246068485E-18 -1.2096178547E-18  3.1705379698E-18
             xred1     2.5000000000E-01  2.5000000000E-01  2.5000000000E-01
                       7.5000000000E-01  7.5000000000E-01  7.5000000000E-01
                       7.5279997159E-01  2.4720002841E-01  7.5279997159E-01
                       2.4720002841E-01  2.4720002841E-01  7.5279997159E-01
                       7.5279997159E-01  7.5279997159E-01  2.4720002841E-01
                       2.4720002841E-01  7.5279997159E-01  2.4720002841E-01
                       2.4720002841E-01  7.5279997159E-01  7.5279997159E-01
                       7.5279997159E-01  2.4720002841E-01  2.4720002841E-01
                      -4.1153745827E-20  3.6371067088E-19 -7.6217461342E-20
             xred2     2.5000000000E-01  2.5000000000E-01  2.5000000000E-01
                       7.5000000000E-01  7.5000000000E-01  7.5000000000E-01
                       7.5260989142E-01  2.4739010858E-01  7.5260989142E-01
                       2.4739010858E-01  2.4739010858E-01  7.5260989142E-01
                       7.5260989142E-01  7.5260989142E-01  2.4739010858E-01
                       2.4739010858E-01  7.5260989142E-01  2.4739010858E-01
                       2.4739010858E-01  7.5260989142E-01  7.5260989142E-01
                       7.5260989142E-01  2.4739010858E-01  2.4739010858E-01
                      -3.3184869380E-20  3.6842550879E-19 -9.7237851461E-20
             xred3     2.5000000000E-01  2.5000000000E-01  2.5000000000E-01
                       7.5000000000E-01  7.5000000000E-01  7.5000000000E-01
                       7.5241958140E-01  2.4758041860E-01  7.5241958140E-01
                       2.4758041860E-01  2.4758041860E-01  7.5241958140E-01
                       7.5241958140E-01  7.5241958140E-01  2.4758041860E-01
                       2.4758041860E-01  7.5241958140E-01  2.4758041860E-01
                       2.4758041860E-01  7.5241958140E-01  7.5241958140E-01
                       7.5241958140E-01  2.4758041860E-01  2.4758041860E-01
                      -4.2151291083E-20  3.6284166464E-19 -7.6525162933E-20
             xred4     2.5000000000E-01  2.5000000000E-01  2.5000000000E-01
                       7.5000000000E-01  7.5000000000E-01  7.5000000000E-01
                       7.5223098575E-01  2.4776901425E-01  7.5223098575E-01
                       2.4776901425E-01  2.4776901425E-01  7.5223098575E-01
                       7.5223098575E-01  7.5223098575E-01  2.4776901425E-01
                       2.4776901425E-01  7.5223098575E-01  2.4776901425E-01
                       2.4776901425E-01  7.5223098575E-01  7.5223098575E-01
                       7.5223098575E-01  2.4776901425E-01  2.4776901425E-01
                      -4.8803141622E-20  3.5604135866E-19 -6.3107237926E-20
             xred5     2.5000000000E-01  2.5000000000E-01  2.5000000000E-01
                       7.5000000000E-01  7.5000000000E-01  7.5000000000E-01
                       7.5203453044E-01  2.4796546956E-01  7.5203453044E-01
                       2.4796546956E-01  2.4796546956E-01  7.5203453044E-01
                       7.5203453044E-01  7.5203453044E-01  2.4796546956E-01
                       2.4796546956E-01  7.5203453044E-01  2.4796546956E-01
                       2.4796546956E-01  7.5203453044E-01  7.5203453044E-01
                       7.5203453044E-01  2.4796546956E-01  2.4796546956E-01
                      -4.2151291083E-20  3.6284166464E-19 -7.6525162933E-20
             xred6     2.5000000000E-01  2.5000000000E-01  2.5000000000E-01
                       7.5000000000E-01  7.5000000000E-01  7.5000000000E-01
                       7.5184792718E-01  2.4815207282E-01  7.5184792718E-01
                       2.4815207282E-01  2.4815207282E-01  7.5184792718E-01
                       7.5184792718E-01  7.5184792718E-01  2.4815207282E-01
                       2.4815207282E-01  7.5184792718E-01  2.4815207282E-01
                       2.4815207282E-01  7.5184792718E-01  7.5184792718E-01
                       7.5184792718E-01  2.4815207282E-01  2.4815207282E-01
                      -4.7656720915E-20  3.7028784675E-19 -8.4887648676E-20
             xred7     2.5000000000E-01  2.5000000000E-01  2.5000000000E-01
                       7.5000000000E-01  7.5000000000E-01  7.5000000000E-01
                       7.5165527956E-01  2.4834472044E-01  7.5165527956E-01
                       2.4834472044E-01  2.4834472044E-01  7.5165527956E-01
                       7.5165527956E-01  7.5165527956E-01  2.4834472044E-01
                       2.4834472044E-01  7.5165527956E-01  2.4834472044E-01
                       2.4834472044E-01  7.5165527956E-01  7.5165527956E-01
                       7.5165527956E-01  2.4834472044E-01  2.4834472044E-01
                      -5.2191766228E-20  3.7837592370E-19 -8.1446098792E-20
             xred8     2.5000000000E-01  2.5000000000E-01  2.5000000000E-01
                       7.5000000000E-01  7.5000000000E-01  7.5000000000E-01
                       7.5146670493E-01  2.4853329507E-01  7.5146670493E-01
                       2.4853329507E-01  2.4853329507E-01  7.5146670493E-01
                       7.5146670493E-01  7.5146670493E-01  2.4853329507E-01
                       2.4853329507E-01  7.5146670493E-01  2.4853329507E-01
                       2.4853329507E-01  7.5146670493E-01  7.5146670493E-01
                       7.5146670493E-01  2.4853329507E-01  2.4853329507E-01
                      -5.3903200563E-20  3.7726710167E-19 -8.0035970610E-20
             xred9     2.5000000000E-01  2.5000000000E-01  2.5000000000E-01
                       7.5000000000E-01  7.5000000000E-01  7.5000000000E-01
                       7.5127793029E-01  2.4872206971E-01  7.5127793029E-01
                       2.4872206971E-01  2.4872206971E-01  7.5127793029E-01
                       7.5127793029E-01  7.5127793029E-01  2.4872206971E-01
                       2.4872206971E-01  7.5127793029E-01  2.4872206971E-01
                       2.4872206971E-01  7.5127793029E-01  7.5127793029E-01
                       7.5127793029E-01  2.4872206971E-01  2.4872206971E-01
                      -4.2151291083E-20  3.6284166464E-19 -7.6525162933E-20
             xred10    2.5000000000E-01  2.5000000000E-01  2.5000000000E-01
                       7.5000000000E-01  7.5000000000E-01  7.5000000000E-01
                       7.5109070236E-01  2.4890929764E-01  7.5109070236E-01
                       2.4890929764E-01  2.4890929764E-01  7.5109070236E-01
                       7.5109070236E-01  7.5109070236E-01  2.4890929764E-01
                       2.4890929764E-01  7.5109070236E-01  2.4890929764E-01
                       2.4890929764E-01  7.5109070236E-01  7.5109070236E-01
                       7.5109070236E-01  2.4890929764E-01  2.4890929764E-01
                      -4.3765899490E-20  3.6508945525E-19 -7.8824876548E-20
            znucl       55.00000   35.00000   72.00000

================================================================================


- Timing analysis has been suppressed with timopt=0



================================================================================

 Suggested references for the acknowledgment of ABINIT usage.

 The users of ABINIT have little formal obligations with respect to the ABINIT group
 (those specified in the GNU General Public License, http://www.gnu.org/copyleft/gpl.txt).
 However, it is common practice in the scientific literature,
 to acknowledge the efforts of people that have made the research possible.
 In this spirit, please find below suggested citations of work written by ABINIT developers,
 corresponding to implementations inside of ABINIT that you have used in the present run.
 Note also that it will be of great value to readers of publications presenting these results,
 to read papers enabling them to understand the theoretical formalism and details
 of the ABINIT implementation.
 For information on why they are suggested, see also https://docs.abinit.org/theory/acknowledgments.
-
- [1] Implementation of the Projector Augmented-Wave Method in the ABINIT code.
- M. Torrent, F. Jollet, F. Bottin, G. Zerah, and X. Gonze Comput. Mat. Science 42, 337, (2008).
- Comment: PAW calculations. Strong suggestion to cite this paper.
- DOI and bibtex: see https://docs.abinit.org/theory/bibliography/#torrent2008
-
- [2] Libxc: A library of exchange and correlation functionals for density functional theory.
- M.A.L. Marques, M.J.T. Oliveira, T. Burnus, Computer Physics Communications 183, 2227 (2012).
- Comment: to be cited when LibXC is used (negative value of ixc)
- Strong suggestion to cite this paper.
- DOI and bibtex: see https://docs.abinit.org/theory/bibliography/#marques2012
-
- [3] The Abinit project: Impact, environment and recent developments.
- Computer Phys. Comm. 248, 107042 (2020).
- X.Gonze, B. Amadon, G. Antonius, F.Arnardi, L.Baguet, J.-M.Beuken,
- J.Bieder, F.Bottin, J.Bouchet, E.Bousquet, N.Brouwer, F.Bruneval,
- G.Brunin, T.Cavignac, J.-B. Charraud, Wei Chen, M.Cote, S.Cottenier,
- J.Denier, G.Geneste, Ph.Ghosez, M.Giantomassi, Y.Gillet, O.Gingras,
- D.R.Hamann, G.Hautier, Xu He, N.Helbig, N.Holzwarth, Y.Jia, F.Jollet,
- W.Lafargue-Dit-Hauret, K.Lejaeghere, M.A.L.Marques, A.Martin, C.Martins,
- H.P.C. Miranda, F.Naccarato, K. Persson, G.Petretto, V.Planes, Y.Pouillon,
- S.Prokhorenko, F.Ricci, G.-M.Rignanese, A.H.Romero, M.M.Schmitt, M.Torrent,
- M.J.van Setten, B.Van Troeye, M.J.Verstraete, G.Zerah and J.W.Zwanzig
- Comment: the fifth generic paper describing the ABINIT project.
- Note that a version of this paper, that is not formatted for Computer Phys. Comm. 
- is available at https://www.abinit.org/sites/default/files/ABINIT20.pdf .
- The licence allows the authors to put it on the Web.
- DOI and bibtex: see https://docs.abinit.org/theory/bibliography/#gonze2020
-
- [4] ABINIT: Overview, and focus on selected capabilities
- J. Chem. Phys. 152, 124102 (2020).
- A. Romero, D.C. Allan, B. Amadon, G. Antonius, T. Applencourt, L.Baguet,
- J.Bieder, F.Bottin, J.Bouchet, E.Bousquet, F.Bruneval,
- G.Brunin, D.Caliste, M.Cote,
- J.Denier, C. Dreyer, Ph.Ghosez, M.Giantomassi, Y.Gillet, O.Gingras,
- D.R.Hamann, G.Hautier, F.Jollet, G. Jomard,
- A.Martin, 
- H.P.C. Miranda, F.Naccarato, G.Petretto, N.A. Pike, V.Planes,
- S.Prokhorenko, T. Rangel, F.Ricci, G.-M.Rignanese, M.Royo, M.Stengel, M.Torrent,
- M.J.van Setten, B.Van Troeye, M.J.Verstraete, J.Wiktor, J.W.Zwanziger, and X.Gonze.
- Comment: a global overview of ABINIT, with focus on selected capabilities .
- Note that a version of this paper, that is not formatted for J. Chem. Phys 
- is available at https://www.abinit.org/sites/default/files/ABINIT20_JPC.pdf .
- The licence allows the authors to put it on the Web.
- DOI and bibtex: see https://docs.abinit.org/theory/bibliography/#romero2020
-
- [5] Recent developments in the ABINIT software package.
- Computer Phys. Comm. 205, 106 (2016).
- X.Gonze, F.Jollet, F.Abreu Araujo, D.Adams, B.Amadon, T.Applencourt,
- C.Audouze, J.-M.Beuken, J.Bieder, A.Bokhanchuk, E.Bousquet, F.Bruneval
- D.Caliste, M.Cote, F.Dahm, F.Da Pieve, M.Delaveau, M.Di Gennaro,
- B.Dorado, C.Espejo, G.Geneste, L.Genovese, A.Gerossier, M.Giantomassi,
- Y.Gillet, D.R.Hamann, L.He, G.Jomard, J.Laflamme Janssen, S.Le Roux,
- A.Levitt, A.Lherbier, F.Liu, I.Lukacevic, A.Martin, C.Martins,
- M.J.T.Oliveira, S.Ponce, Y.Pouillon, T.Rangel, G.-M.Rignanese,
- A.H.Romero, B.Rousseau, O.Rubel, A.A.Shukri, M.Stankovski, M.Torrent,
- M.J.Van Setten, B.Van Troeye, M.J.Verstraete, D.Waroquier, J.Wiktor,
- B.Xu, A.Zhou, J.W.Zwanziger.
- Comment: the fourth generic paper describing the ABINIT project.
- Note that a version of this paper, that is not formatted for Computer Phys. Comm. 
- is available at https://www.abinit.org/sites/default/files/ABINIT16.pdf .
- The licence allows the authors to put it on the Web.
- DOI and bibtex: see https://docs.abinit.org/theory/bibliography/#gonze2016
-
- Proc.   0 individual time (sec): cpu=       3876.5  wall=       3876.6

================================================================================

 Calculation completed.
.Delivered   0 WARNINGs and  10 COMMENTs to log file.
+Overall time at end (sec) : cpu=      23259.0  wall=      23259.3
