
.Version 9.2.2 of ABINIT 
.(MPI version, prepared for a x86_64_linux_gnu9.3 computer) 

.Copyright (C) 1998-2020 ABINIT group . 
 ABINIT comes with ABSOLUTELY NO WARRANTY.
 It is free software, and you are welcome to redistribute it
 under certain conditions (GNU General Public License,
 see ~abinit/COPYING or http://www.gnu.org/copyleft/gpl.txt).

 ABINIT is a project of the Universite Catholique de Louvain,
 Corning Inc. and other collaborators, see ~abinit/doc/developers/contributors.txt .
 Please read https://docs.abinit.org/theory/acknowledgments for suggested
 acknowledgments of the ABINIT effort.
 For more information, see https://www.abinit.org .

.Starting date : Mon 21 Nov 2022.
- ( at 00h03 )
  
- input  file    -> Cs2TiI6.in
- output file    -> Cs2TiI6.out
- root for input  files -> Cs2TiI6i
- root for output files -> Cs2TiI6o

- inpspheads : Reading pseudopotential header in XML form from 
-   ../../../Psps_for_tests/ATOMICDATA/Cs.GGA_PBE-JTH.xml
- inpspheads : Reading pseudopotential header in XML form from 
-   ../../../Psps_for_tests/ATOMICDATA/I.GGA_PBE-JTH.xml
- inpspheads : Reading pseudopotential header in XML form from 
-   ../../../Psps_for_tests/ATOMICDATA/Hf.GGA_PBE-JTH.xml
- inpspheads : Reading pseudopotential header in XML form from 
-   ../../../Psps_for_tests/ATOMICDATA/Br.GGA_PBE-JTH.xml

 DATASET    1 : space group I4 m m (#107); Bravais tI (body-center tetrag.)
================================================================================
 Values of the parameters that define the memory need for DATASET  1.
     intxc =       0    ionmov =       2      iscf =      17    lmnmax =      18
     lnmax =       6     mgfft =      60  mpssoang =       3    mqgrid =    3863
     natom =       9  nloc_mem =       2    nspden =       1   nspinor =       1
    nsppol =       1      nsym =       8    n1xccc =       1    ntypat =       4
    occopt =       1   xclevel =       2
-    mband =          42        mffmem =           1         mkmem =           4
       mpw =        9933          nfft =      216000          nkpt =          20
Pmy_natom=         2
 PAW method is used; the additional fine FFT grid is defined by:
   mgfftf=        96    nfftf =    884736
================================================================================
P This job should need less than                     293.940 Mbytes of memory.
  Rough estimation (10% accuracy) of disk space for files :
_ WF disk file :    127.317 Mbytes ; DEN or POT disk file :      6.752 Mbytes.
================================================================================


 DATASET    2 : space group I4 m m (#107); Bravais tI (body-center tetrag.)
================================================================================
 Values of the parameters that define the memory need for DATASET  2.
     intxc =       0    ionmov =       2      iscf =      17    lmnmax =      18
     lnmax =       6     mgfft =      60  mpssoang =       3    mqgrid =    3859
     natom =       9  nloc_mem =       2    nspden =       1   nspinor =       1
    nsppol =       1      nsym =       8    n1xccc =       1    ntypat =       4
    occopt =       1   xclevel =       2
-    mband =          42        mffmem =           1         mkmem =           4
       mpw =        9903          nfft =      216000          nkpt =          20
Pmy_natom=         2
 PAW method is used; the additional fine FFT grid is defined by:
   mgfftf=        96    nfftf =    884736
================================================================================
P This job should need less than                     293.919 Mbytes of memory.
  Rough estimation (10% accuracy) of disk space for files :
_ WF disk file :    126.933 Mbytes ; DEN or POT disk file :      6.752 Mbytes.
================================================================================


 DATASET    3 : space group I4 m m (#107); Bravais tI (body-center tetrag.)
================================================================================
 Values of the parameters that define the memory need for DATASET  3.
     intxc =       0    ionmov =       2      iscf =      17    lmnmax =      18
     lnmax =       6     mgfft =      60  mpssoang =       3    mqgrid =    3855
     natom =       9  nloc_mem =       2    nspden =       1   nspinor =       1
    nsppol =       1      nsym =       8    n1xccc =       1    ntypat =       4
    occopt =       1   xclevel =       2
-    mband =          42        mffmem =           1         mkmem =           4
       mpw =        9871          nfft =      216000          nkpt =          20
Pmy_natom=         2
 PAW method is used; the additional fine FFT grid is defined by:
   mgfftf=        96    nfftf =    884736
================================================================================
P This job should need less than                     293.894 Mbytes of memory.
  Rough estimation (10% accuracy) of disk space for files :
_ WF disk file :    126.522 Mbytes ; DEN or POT disk file :      6.752 Mbytes.
================================================================================


 DATASET    4 : space group I4 m m (#107); Bravais tI (body-center tetrag.)
================================================================================
 Values of the parameters that define the memory need for DATASET  4.
     intxc =       0    ionmov =       2      iscf =      17    lmnmax =      18
     lnmax =       6     mgfft =      60  mpssoang =       3    mqgrid =    3851
     natom =       9  nloc_mem =       2    nspden =       1   nspinor =       1
    nsppol =       1      nsym =       8    n1xccc =       1    ntypat =       4
    occopt =       1   xclevel =       2
-    mband =          42        mffmem =           1         mkmem =           4
       mpw =        9840          nfft =      216000          nkpt =          20
Pmy_natom=         2
 PAW method is used; the additional fine FFT grid is defined by:
   mgfftf=        96    nfftf =    884736
================================================================================
P This job should need less than                     293.870 Mbytes of memory.
  Rough estimation (10% accuracy) of disk space for files :
_ WF disk file :    126.125 Mbytes ; DEN or POT disk file :      6.752 Mbytes.
================================================================================


 DATASET    5 : space group I4 m m (#107); Bravais tI (body-center tetrag.)
================================================================================
 Values of the parameters that define the memory need for DATASET  5.
     intxc =       0    ionmov =       2      iscf =      17    lmnmax =      18
     lnmax =       6     mgfft =      60  mpssoang =       3    mqgrid =    3848
     natom =       9  nloc_mem =       2    nspden =       1   nspinor =       1
    nsppol =       1      nsym =       8    n1xccc =       1    ntypat =       4
    occopt =       1   xclevel =       2
-    mband =          42        mffmem =           1         mkmem =           4
       mpw =        9809          nfft =      216000          nkpt =          20
Pmy_natom=         2
 PAW method is used; the additional fine FFT grid is defined by:
   mgfftf=        96    nfftf =    884736
================================================================================
P This job should need less than                     293.848 Mbytes of memory.
  Rough estimation (10% accuracy) of disk space for files :
_ WF disk file :    125.728 Mbytes ; DEN or POT disk file :      6.752 Mbytes.
================================================================================


 DATASET    6 : space group I4 m m (#107); Bravais tI (body-center tetrag.)
================================================================================
 Values of the parameters that define the memory need for DATASET  6.
     intxc =       0    ionmov =       2      iscf =      17    lmnmax =      18
     lnmax =       6     mgfft =      60  mpssoang =       3    mqgrid =    3844
     natom =       9  nloc_mem =       2    nspden =       1   nspinor =       1
    nsppol =       1      nsym =       8    n1xccc =       1    ntypat =       4
    occopt =       1   xclevel =       2
-    mband =          42        mffmem =           1         mkmem =           4
       mpw =        9779          nfft =      216000          nkpt =          20
Pmy_natom=         2
 PAW method is used; the additional fine FFT grid is defined by:
   mgfftf=        96    nfftf =    884736
================================================================================
P This job should need less than                     293.827 Mbytes of memory.
  Rough estimation (10% accuracy) of disk space for files :
_ WF disk file :    125.343 Mbytes ; DEN or POT disk file :      6.752 Mbytes.
================================================================================


 DATASET    7 : space group I4 m m (#107); Bravais tI (body-center tetrag.)
================================================================================
 Values of the parameters that define the memory need for DATASET  7.
     intxc =       0    ionmov =       2      iscf =      17    lmnmax =      18
     lnmax =       6     mgfft =      60  mpssoang =       3    mqgrid =    3840
     natom =       9  nloc_mem =       2    nspden =       1   nspinor =       1
    nsppol =       1      nsym =       8    n1xccc =       1    ntypat =       4
    occopt =       1   xclevel =       2
-    mband =          42        mffmem =           1         mkmem =           4
       mpw =        9750          nfft =      216000          nkpt =          20
Pmy_natom=         2
 PAW method is used; the additional fine FFT grid is defined by:
   mgfftf=        96    nfftf =    884736
================================================================================
P This job should need less than                     293.811 Mbytes of memory.
  Rough estimation (10% accuracy) of disk space for files :
_ WF disk file :    124.971 Mbytes ; DEN or POT disk file :      6.752 Mbytes.
================================================================================


 DATASET    8 : space group I4 m m (#107); Bravais tI (body-center tetrag.)
================================================================================
 Values of the parameters that define the memory need for DATASET  8.
     intxc =       0    ionmov =       2      iscf =      17    lmnmax =      18
     lnmax =       6     mgfft =      60  mpssoang =       3    mqgrid =    3836
     natom =       9  nloc_mem =       2    nspden =       1   nspinor =       1
    nsppol =       1      nsym =       8    n1xccc =       1    ntypat =       4
    occopt =       1   xclevel =       2
-    mband =          42        mffmem =           1         mkmem =           4
       mpw =        9729          nfft =      216000          nkpt =          20
Pmy_natom=         2
 PAW method is used; the additional fine FFT grid is defined by:
   mgfftf=        96    nfftf =    884736
================================================================================
P This job should need less than                     293.817 Mbytes of memory.
  Rough estimation (10% accuracy) of disk space for files :
_ WF disk file :    124.702 Mbytes ; DEN or POT disk file :      6.752 Mbytes.
================================================================================


 DATASET    9 : space group I4 m m (#107); Bravais tI (body-center tetrag.)
================================================================================
 Values of the parameters that define the memory need for DATASET  9.
     intxc =       0    ionmov =       2      iscf =      17    lmnmax =      18
     lnmax =       6     mgfft =      60  mpssoang =       3    mqgrid =    3832
     natom =       9  nloc_mem =       2    nspden =       1   nspinor =       1
    nsppol =       1      nsym =       8    n1xccc =       1    ntypat =       4
    occopt =       1   xclevel =       2
-    mband =          42        mffmem =           1         mkmem =           4
       mpw =        9697          nfft =      216000          nkpt =          20
Pmy_natom=         2
 PAW method is used; the additional fine FFT grid is defined by:
   mgfftf=        96    nfftf =    884736
================================================================================
P This job should need less than                     293.794 Mbytes of memory.
  Rough estimation (10% accuracy) of disk space for files :
_ WF disk file :    124.292 Mbytes ; DEN or POT disk file :      6.752 Mbytes.
================================================================================


 DATASET   10 : space group I4 m m (#107); Bravais tI (body-center tetrag.)
================================================================================
 Values of the parameters that define the memory need for DATASET 10.
     intxc =       0    ionmov =       2      iscf =      17    lmnmax =      18
     lnmax =       6     mgfft =      60  mpssoang =       3    mqgrid =    3828
     natom =       9  nloc_mem =       2    nspden =       1   nspinor =       1
    nsppol =       1      nsym =       8    n1xccc =       1    ntypat =       4
    occopt =       1   xclevel =       2
-    mband =          42        mffmem =           1         mkmem =           4
       mpw =        9672          nfft =      216000          nkpt =          20
Pmy_natom=         2
 PAW method is used; the additional fine FFT grid is defined by:
   mgfftf=        96    nfftf =    884736
================================================================================
P This job should need less than                     293.789 Mbytes of memory.
  Rough estimation (10% accuracy) of disk space for files :
_ WF disk file :    123.972 Mbytes ; DEN or POT disk file :      6.752 Mbytes.
================================================================================

--------------------------------------------------------------------------------
------------- Echo of variables that govern the present computation ------------
--------------------------------------------------------------------------------
-
- outvars: echo of selected default values                                      
-   iomode0 =  0 , fftalg0 =112 , wfoptalg0 = 10
-
- outvars: echo of global parameters not present in the input file              
-  max_nthreads =    0
-
 -outvars: echo values of preprocessed input variables --------
            acell1     1.4441455612E+01  1.4462993934E+01  1.4441455612E+01 Bohr
            acell2     1.4426999701E+01  1.4448516462E+01  1.4426999701E+01 Bohr
            acell3     1.4412543789E+01  1.4434038991E+01  1.4412543789E+01 Bohr
            acell4     1.4398087878E+01  1.4419561519E+01  1.4398087878E+01 Bohr
            acell5     1.4383631966E+01  1.4405084048E+01  1.4383631966E+01 Bohr
            acell6     1.4369176055E+01  1.4390606577E+01  1.4369176055E+01 Bohr
            acell7     1.4354720143E+01  1.4376129105E+01  1.4354720143E+01 Bohr
            acell8     1.4340264232E+01  1.4361651634E+01  1.4340264232E+01 Bohr
            acell9     1.4325808320E+01  1.4347174162E+01  1.4325808320E+01 Bohr
            acell10    1.4311352409E+01  1.4332696691E+01  1.4311352409E+01 Bohr
              amu      1.32905430E+02  1.26904470E+02  1.78490000E+02
                       7.99040000E+01
           diemac      1.20000000E+01
          dilatmx      1.15000000E+00
             ecut      1.60000000E+01 Hartree
           ecutsm      5.00000000E-01 Hartree
-          fftalg         112
          getxred1          0
          getxred2         -1
          getxred3         -1
          getxred4         -1
          getxred5         -1
          getxred6         -1
          getxred7         -1
          getxred8         -1
          getxred9         -1
          getxred10        -1
           ionmov           2
              ixc     -101130
           jdtset        1    2    3    4    5    6    7    8    9   10
              kpt      0.00000000E+00 -1.25000000E-01  0.00000000E+00
                       0.00000000E+00 -3.75000000E-01  0.00000000E+00
                       1.25000000E-01 -2.50000000E-01  0.00000000E+00
                       1.25000000E-01 -1.25000000E-01  1.25000000E-01
                       1.25000000E-01  5.00000000E-01  0.00000000E+00
                       2.50000000E-01 -3.75000000E-01  0.00000000E+00
                       1.25000000E-01 -3.75000000E-01  1.25000000E-01
                       2.50000000E-01 -2.50000000E-01  1.25000000E-01
                       2.50000000E-01 -1.25000000E-01  2.50000000E-01
                       1.25000000E-01  2.50000000E-01  0.00000000E+00
                       2.50000000E-01  3.75000000E-01  0.00000000E+00
                       3.75000000E-01  5.00000000E-01  0.00000000E+00
                       1.25000000E-01  3.75000000E-01  1.25000000E-01
                       2.50000000E-01  5.00000000E-01  1.25000000E-01
                       3.75000000E-01 -3.75000000E-01  1.25000000E-01
                       2.50000000E-01 -3.75000000E-01  2.50000000E-01
                       3.75000000E-01 -2.50000000E-01  2.50000000E-01
                       3.75000000E-01 -1.25000000E-01  3.75000000E-01
                       5.00000000E-01  2.50000000E-01  1.25000000E-01
                      -3.75000000E-01  3.75000000E-01  1.25000000E-01
         kptrlatt        4    4   -4     -4    4    4      4   -4    4
          kptrlen1     8.15711884E+01
          kptrlen2     8.14895356E+01
          kptrlen3     8.14078827E+01
          kptrlen4     8.13262299E+01
          kptrlen5     8.12445771E+01
          kptrlen6     8.11629242E+01
          kptrlen7     8.10812714E+01
          kptrlen8     8.09996185E+01
          kptrlen9     8.09179657E+01
          kptrlen10    8.08363129E+01
P           mkmem           4
            natom           9
            nband          42
           ndtset          10
            ngfft          60      60      60
          ngfftdg          96      96      96
             nkpt          20
            nstep          50
             nsym           8
            ntime        1000
           ntypat           4
              occ      2.000000  2.000000  2.000000  2.000000  2.000000  2.000000
                       2.000000  2.000000  2.000000  2.000000  2.000000  2.000000
                       2.000000  2.000000  2.000000  2.000000  2.000000  2.000000
                       2.000000  2.000000  2.000000  2.000000  2.000000  2.000000
                       2.000000  2.000000  2.000000  2.000000  2.000000  2.000000
                       2.000000  2.000000  2.000000  2.000000  2.000000  2.000000
                       0.000000  0.000000  0.000000  0.000000  0.000000  0.000000
          optcell           3
        optforces           1
        pawecutdg      4.00000000E+01 Hartree
            prtwf           0
            rprim      0.0000000000E+00  7.0605061057E-01  7.0816137660E-01
                       7.0710678119E-01  0.0000000000E+00  7.0710678119E-01
                       7.0816137660E-01  7.0605061057E-01  0.0000000000E+00
           shiftk     -5.00000000E-01  5.00000000E-01  5.00000000E-01
          spgroup         107
           symrel      1  0  0   0  1  0   0  0  1       0  0  1   0  1  0   1  0  0
                       0 -1  1   0 -1  0   1 -1  0       1 -1  0   0 -1  0   0 -1  1
                       0 -1  1  -1  0  1   0  0  1       0  0  1  -1  0  1   0 -1  1
                       1  0  0   1  0 -1   1 -1  0       1 -1  0   1  0 -1   1  0  0
           toldff      1.00000000E-08
           tolmxf      1.00000000E-05
            typat      1  1  2  4  4  4  4  4  3
           useylm           1
              wtk        0.03125    0.03125    0.06250    0.03125    0.06250    0.06250
                         0.03125    0.06250    0.03125    0.06250    0.06250    0.06250
                         0.03125    0.06250    0.06250    0.03125    0.06250    0.03125
                         0.06250    0.06250
           xangst1     2.7059161930E+00  2.7225447403E+00  2.7059161930E+00
                       8.1177485791E+00  8.1182464641E+00  8.1177485791E+00
                       5.4118323860E+00  7.9971062193E+00  5.4118323860E+00
                       5.4118323860E+00  5.4024398254E+00  2.6058378043E+00
                       5.4118323861E+00  5.4024398254E+00  8.2178269678E+00
                       5.4118323861E+00  2.6603267971E+00  5.4118323861E+00
                       8.2178269678E+00  5.4024398254E+00  5.4118323861E+00
                       2.6058378043E+00  5.4024398254E+00  5.4118323860E+00
                      -3.2798289655E-13  5.7630268094E-02 -3.2798289655E-13
           xangst2     2.7032075682E+00  2.7198194703E+00  2.7032075682E+00
                       8.1096227046E+00  8.1101200913E+00  8.1096227046E+00
                       5.4064151364E+00  7.9891011080E+00  5.4064151364E+00
                       5.4064151364E+00  5.3970319777E+00  2.6032293580E+00
                       5.4064151364E+00  5.3970319777E+00  8.2096009148E+00
                       5.4064151364E+00  2.6576638073E+00  5.4064151364E+00
                       8.2096009148E+00  5.3970319777E+00  5.4064151364E+00
                       2.6032293580E+00  5.3970319777E+00  5.4064151364E+00
                      -3.2765043111E-13  5.7572580138E-02 -3.2765043111E-13
           xangst3     2.7004989434E+00  2.7170942003E+00  2.7004989434E+00
                       8.1014968302E+00  8.1019937184E+00  8.1014968302E+00
                       5.4009978868E+00  7.9810959967E+00  5.4009978868E+00
                       5.4009978868E+00  5.3916241300E+00  2.6006209118E+00
                       5.4009978868E+00  5.3916241300E+00  8.2013748618E+00
                       5.4009978868E+00  2.6550008175E+00  5.4009978868E+00
                       8.2013748618E+00  5.3916241300E+00  5.4009978868E+00
                       2.6006209118E+00  5.3916241300E+00  5.4009978868E+00
                      -3.2731429376E-13  5.7514892182E-02 -3.2731429376E-13
           xangst4     2.6977903186E+00  2.7143689303E+00  2.6977903186E+00
                       8.0933709557E+00  8.0938673456E+00  8.0933709557E+00
                       5.3955806371E+00  7.9730908853E+00  5.3955806371E+00
                       5.3955806371E+00  5.3862162824E+00  2.5980124655E+00
                       5.3955806371E+00  5.3862162824E+00  8.1931488088E+00
                       5.3955806371E+00  2.6523378277E+00  5.3955806371E+00
                       8.1931488088E+00  5.3862162824E+00  5.3955806371E+00
                       2.5980124655E+00  5.3862162824E+00  5.3955806371E+00
                      -3.2699183602E-13  5.7457204226E-02 -3.2699183602E-13
           xangst5     2.6950816937E+00  2.7116436603E+00  2.6950816937E+00
                       8.0852450812E+00  8.0857409727E+00  8.0852450812E+00
                       5.3901633875E+00  7.9650857740E+00  5.3901633875E+00
                       5.3901633875E+00  5.3808084347E+00  2.5954040193E+00
                       5.3901633875E+00  5.3808084347E+00  8.1849227557E+00
                       5.3901633875E+00  2.6496748380E+00  5.3901633875E+00
                       8.1849227557E+00  5.3808084347E+00  5.3901633875E+00
                       2.5954040193E+00  5.3808084347E+00  5.3901633875E+00
                      -3.2666539860E-13  5.7399516270E-02 -3.2666539860E-13
           xangst6     2.6923730689E+00  2.7089183902E+00  2.6923730689E+00
                       8.0771192068E+00  8.0776145999E+00  8.0771192068E+00
                       5.3847461378E+00  7.9570806627E+00  5.3847461378E+00
                       5.3847461378E+00  5.3754005870E+00  2.5927955730E+00
                       5.3847461379E+00  5.3754005870E+00  8.1766967027E+00
                       5.3847461379E+00  2.6470118482E+00  5.3847461379E+00
                       8.1766967027E+00  5.3754005870E+00  5.3847461379E+00
                       2.5927955730E+00  5.3754005870E+00  5.3847461378E+00
                      -3.2633193454E-13  5.7341828314E-02 -3.2633193454E-13
           xangst7     2.6896644441E+00  2.7061931202E+00  2.6896644441E+00
                       8.0689933323E+00  8.0694882271E+00  8.0689933323E+00
                       5.3793288882E+00  7.9490755513E+00  5.3793288882E+00
                       5.3793288882E+00  5.3699927393E+00  2.5901871268E+00
                       5.3793288882E+00  5.3699927393E+00  8.1684706497E+00
                       5.3793288882E+00  2.6443488584E+00  5.3793288882E+00
                       8.1684706497E+00  5.3699927393E+00  5.3793288882E+00
                       2.5901871268E+00  5.3699927393E+00  5.3793288882E+00
                      -3.2600781153E-13  5.7284140358E-02 -3.2600781153E-13
           xangst8     2.6869558193E+00  2.7034678502E+00  2.6869558193E+00
                       8.0608674579E+00  8.0613618542E+00  8.0608674579E+00
                       5.3739116386E+00  7.9410704400E+00  5.3739116386E+00
                       5.3739116386E+00  5.3645848917E+00  2.5875786805E+00
                       5.3739116386E+00  5.3645848917E+00  8.1602445967E+00
                       5.3739116386E+00  2.6416858686E+00  5.3739116386E+00
                       8.1602445967E+00  5.3645848917E+00  5.3739116386E+00
                       2.5875786805E+00  5.3645848917E+00  5.3739116386E+00
                      -3.2568170068E-13  5.7226452402E-02 -3.2568170068E-13
           xangst9     2.6842471945E+00  2.7007425802E+00  2.6842471945E+00
                       8.0527415834E+00  8.0532354814E+00  8.0527415834E+00
                       5.3684943889E+00  7.9330653287E+00  5.3684943889E+00
                       5.3684943889E+00  5.3591770440E+00  2.5849702343E+00
                       5.3684943890E+00  5.3591770440E+00  8.1520185437E+00
                       5.3684943890E+00  2.6390228788E+00  5.3684943890E+00
                       8.1520185437E+00  5.3591770440E+00  5.3684943890E+00
                       2.5849702343E+00  5.3591770440E+00  5.3684943889E+00
                      -3.2535488088E-13  5.7168764446E-02 -3.2535488088E-13
           xangst10    2.6815385697E+00  2.6980173102E+00  2.6815385697E+00
                       8.0446157090E+00  8.0451091086E+00  8.0446157090E+00
                       5.3630771393E+00  7.9250602173E+00  5.3630771393E+00
                       5.3630771393E+00  5.3537691963E+00  2.5823617880E+00
                       5.3630771393E+00  5.3537691963E+00  8.1437924906E+00
                       5.3630771393E+00  2.6363598890E+00  5.3630771393E+00
                       8.1437924906E+00  5.3537691963E+00  5.3630771393E+00
                       2.5823617880E+00  5.3537691963E+00  5.3630771393E+00
                      -3.2502645092E-13  5.7111076490E-02 -3.2502645092E-13
            xcart1     5.1134405433E+00  5.1448639437E+00  5.1134405433E+00
                       1.5340321630E+01  1.5341262496E+01  1.5340321630E+01
                       1.0226881087E+01  1.5112340610E+01  1.0226881087E+01
                       1.0226881087E+01  1.0209131719E+01  4.9243197968E+00
                       1.0226881087E+01  1.0209131719E+01  1.5529442377E+01
                       1.0226881087E+01  5.0272890705E+00  1.0226881087E+01
                       1.5529442377E+01  1.0209131719E+01  1.0226881087E+01
                       4.9243197968E+00  1.0209131719E+01  1.0226881087E+01
                      -6.1979785074E-13  1.0890542366E-01 -6.1979785074E-13
            xcart2     5.1083219842E+00  5.1397139297E+00  5.1083219842E+00
                       1.5324965953E+01  1.5325905877E+01  1.5324965953E+01
                       1.0216643968E+01  1.5097213142E+01  1.0216643968E+01
                       1.0216643968E+01  1.0198912368E+01  4.9193905477E+00
                       1.0216643969E+01  1.0198912368E+01  1.5513897389E+01
                       1.0216643969E+01  5.0222567491E+00  1.0216643969E+01
                       1.5513897389E+01  1.0198912368E+01  1.0216643969E+01
                       4.9193905477E+00  1.0198912368E+01  1.0216643968E+01
                      -6.1916958211E-13  1.0879640923E-01 -6.1916958211E-13
            xcart3     5.1032034251E+00  5.1345639158E+00  5.1032034251E+00
                       1.5309610275E+01  1.5310549258E+01  1.5309610275E+01
                       1.0206406850E+01  1.5082085674E+01  1.0206406850E+01
                       1.0206406850E+01  1.0188693017E+01  4.9144612987E+00
                       1.0206406850E+01  1.0188693017E+01  1.5498352402E+01
                       1.0206406850E+01  5.0172244277E+00  1.0206406850E+01
                       1.5498352402E+01  1.0188693017E+01  1.0206406850E+01
                       4.9144612987E+00  1.0188693017E+01  1.0206406850E+01
                      -6.1853437459E-13  1.0868739479E-01 -6.1853437459E-13
            xcart4     5.0980848660E+00  5.1294139018E+00  5.0980848660E+00
                       1.5294254598E+01  1.5295192639E+01  1.5294254598E+01
                       1.0196169732E+01  1.5066958206E+01  1.0196169732E+01
                       1.0196169732E+01  1.0178473666E+01  4.9095320496E+00
                       1.0196169732E+01  1.0178473666E+01  1.5482807415E+01
                       1.0196169732E+01  5.0121921063E+00  1.0196169732E+01
                       1.5482807415E+01  1.0178473666E+01  1.0196169732E+01
                       4.9095320496E+00  1.0178473666E+01  1.0196169732E+01
                      -6.1792501777E-13  1.0857838035E-01 -6.1792501777E-13
            xcart5     5.0929663069E+00  5.1242638879E+00  5.0929663069E+00
                       1.5278898921E+01  1.5279836020E+01  1.5278898921E+01
                       1.0185932614E+01  1.5051830738E+01  1.0185932614E+01
                       1.0185932614E+01  1.0168254315E+01  4.9046028006E+00
                       1.0185932614E+01  1.0168254315E+01  1.5467262427E+01
                       1.0185932614E+01  5.0071597849E+00  1.0185932614E+01
                       1.5467262427E+01  1.0168254315E+01  1.0185932614E+01
                       4.9046028006E+00  1.0168254315E+01  1.0185932614E+01
                      -6.1730814044E-13  1.0846936591E-01 -6.1730814044E-13
            xcart6     5.0878477478E+00  5.1191138739E+00  5.0878477478E+00
                       1.5263543244E+01  1.5264479401E+01  1.5263543244E+01
                       1.0175695496E+01  1.5036703270E+01  1.0175695496E+01
                       1.0175695496E+01  1.0158034964E+01  4.8996735515E+00
                       1.0175695496E+01  1.0158034964E+01  1.5451717440E+01
                       1.0175695496E+01  5.0021274635E+00  1.0175695496E+01
                       1.5451717440E+01  1.0158034964E+01  1.0175695496E+01
                       4.8996735515E+00  1.0158034964E+01  1.0175695496E+01
                      -6.1667798470E-13  1.0836035147E-01 -6.1667798470E-13
            xcart7     5.0827291887E+00  5.1139638599E+00  5.0827291887E+00
                       1.5248187566E+01  1.5249122782E+01  1.5248187566E+01
                       1.0165458377E+01  1.5021575802E+01  1.0165458377E+01
                       1.0165458377E+01  1.0147815613E+01  4.8947443025E+00
                       1.0165458377E+01  1.0147815613E+01  1.5436172452E+01
                       1.0165458377E+01  4.9970951421E+00  1.0165458377E+01
                       1.5436172452E+01  1.0147815613E+01  1.0165458377E+01
                       4.8947443025E+00  1.0147815613E+01  1.0165458377E+01
                      -6.1606548097E-13  1.0825133703E-01 -6.1606548097E-13
            xcart8     5.0776106296E+00  5.1088138460E+00  5.0776106296E+00
                       1.5232831889E+01  1.5233766163E+01  1.5232831889E+01
                       1.0155221259E+01  1.5006448334E+01  1.0155221259E+01
                       1.0155221259E+01  1.0137596262E+01  4.8898150534E+00
                       1.0155221259E+01  1.0137596262E+01  1.5420627465E+01
                       1.0155221259E+01  4.9920628208E+00  1.0155221259E+01
                       1.5420627465E+01  1.0137596262E+01  1.0155221259E+01
                       4.8898150534E+00  1.0137596262E+01  1.0155221259E+01
                      -6.1544922077E-13  1.0814232260E-01 -6.1544922077E-13
            xcart9     5.0724920705E+00  5.1036638320E+00  5.0724920705E+00
                       1.5217476212E+01  1.5218409543E+01  1.5217476212E+01
                       1.0144984141E+01  1.4991320865E+01  1.0144984141E+01
                       1.0144984141E+01  1.0127376911E+01  4.8848858044E+00
                       1.0144984141E+01  1.0127376911E+01  1.5405082478E+01
                       1.0144984141E+01  4.9870304994E+00  1.0144984141E+01
                       1.5405082478E+01  1.0127376911E+01  1.0144984141E+01
                       4.8848858044E+00  1.0127376911E+01  1.0144984141E+01
                      -6.1483162087E-13  1.0803330816E-01 -6.1483162087E-13
            xcart10    5.0673735114E+00  5.0985138181E+00  5.0673735114E+00
                       1.5202120534E+01  1.5203052924E+01  1.5202120534E+01
                       1.0134747023E+01  1.4976193397E+01  1.0134747023E+01
                       1.0134747023E+01  1.0117157560E+01  4.8799565554E+00
                       1.0134747023E+01  1.0117157560E+01  1.5389537490E+01
                       1.0134747023E+01  4.9819981780E+00  1.0134747023E+01
                       1.5389537490E+01  1.0117157560E+01  1.0134747023E+01
                       4.8799565554E+00  1.0117157560E+01  1.0134747023E+01
                      -6.1421097819E-13  1.0792429372E-01 -6.1421097819E-13
             xred      2.5228829165E-01  2.4771170835E-01  2.5228829165E-01
                       7.5228829165E-01  7.4771170835E-01  7.5228829165E-01
                       7.4106266698E-01  2.5893733302E-01  7.4106266698E-01
                       2.4137813806E-01  2.4012934746E-01  7.5987065254E-01
                       7.5987065254E-01  7.5862186194E-01  2.4137813806E-01
                       2.4652278177E-01  7.5347721823E-01  2.4652278177E-01
                       2.4137813806E-01  7.5862186194E-01  7.5987065254E-01
                       7.5987065254E-01  2.4012934746E-01  2.4137813806E-01
                       5.3403867601E-03 -5.3403867601E-03  5.3403867601E-03
            znucl       55.00000   53.00000   72.00000   35.00000

================================================================================

 chkinp: Checking input parameters for consistency, jdtset=   1.

 chkinp: Checking input parameters for consistency, jdtset=   2.

 chkinp: Checking input parameters for consistency, jdtset=   3.

 chkinp: Checking input parameters for consistency, jdtset=   4.

 chkinp: Checking input parameters for consistency, jdtset=   5.

 chkinp: Checking input parameters for consistency, jdtset=   6.

 chkinp: Checking input parameters for consistency, jdtset=   7.

 chkinp: Checking input parameters for consistency, jdtset=   8.

 chkinp: Checking input parameters for consistency, jdtset=   9.

 chkinp: Checking input parameters for consistency, jdtset=  10.

================================================================================
== DATASET  1 ==================================================================
-   mpi_nproc: 6, omp_nthreads: -1 (-1 if OMP is not activated)


--- !DatasetInfo
iteration_state: {dtset: 1, }
dimensions: {natom: 9, nkpt: 20, mband: 42, nsppol: 1, nspinor: 1, nspden: 1, mpw: 9933, }
cutoff_energies: {ecut:  16.0, pawecutdg:  40.0, }
electrons: {nelect:   7.20000000E+01, charge:   0.00000000E+00, occopt:   1.00000000E+00, tsmear:   1.00000000E-02, }
meta: {optdriver: 0, ionmov: 2, optcell: 3, iscf: 17, paral_kgb: 0, }
...

 Real(R)+Recip(G) space primitive vectors, cartesian coordinates (Bohr,Bohr^-1):
 R(1)=  0.0000000 10.1963986 10.2268811  G(1)= -0.0488908  0.0490369  0.0488908
 R(2)= 10.2268811  0.0000000 10.2268811  G(2)=  0.0488908 -0.0490369  0.0488908
 R(3)= 10.2268811 10.1963986  0.0000000  G(3)=  0.0488908  0.0490369 -0.0488908
 Unit cell volume ucvol=  2.1328642E+03 bohr^3
 Angles (23,13,12)=  5.99506518E+01  6.00986963E+01  5.99506518E+01 degrees

 Coarse grid specifications (used for wave-functions):

 getcut: wavevector=  0.0000  0.0000  0.0000  ngfft=  60  60  60
         ecut(hartree)=     21.160   => boxcut(ratio)=   2.00341

 Fine grid specifications (used for densities):

 getcut: wavevector=  0.0000  0.0000  0.0000  ngfft=  96  96  96
         ecut(hartree)=     52.900   => boxcut(ratio)=   2.02731

--- Pseudopotential description ------------------------------------------------
- pspini: atom type   1  psp file is ../../../Psps_for_tests/ATOMICDATA/Cs.GGA_PBE-JTH.xml
- pspatm: opening atomic psp file    ../../../Psps_for_tests/ATOMICDATA/Cs.GGA_PBE-JTH.xml
- pspatm : Reading pseudopotential header in XML form from ../../../Psps_for_tests/ATOMICDATA/Cs.GGA_PBE-JTH.xml
 Pseudopotential format is: paw10
 basis_size (lnmax)=  6 (lmn_size= 18), orbitals=   0   0   1   1   2   2
 Spheres core radius: rc_sph= 2.20660278
 1 radial meshes are used:
  - mesh 1: r(i)=AA*[exp(BB*(i-1))-1], size=1500 , AA= 0.15922E-03 BB= 0.87573E-02
 Shapefunction is SIN type: shapef(r)=[sin(pi*r/rshp)/(pi*r/rshp)]**2
 Radius for shape functions =  2.00394208
 mmax= 1500
 Radial grid used for partial waves is grid 1
 Radial grid used for projectors is grid 1
 Radial grid used for (t)core density is grid 1
 Radial grid used for Vloc is grid 1
 Radial grid used for pseudo valence density is grid 1
 Mesh size for Vloc has been set to 1341 to avoid numerical noise.
 Compensation charge density is not taken into account in XC energy/potential
 pspatm: atomic psp has been read  and splines computed

- pspini: atom type   2  psp file is ../../../Psps_for_tests/ATOMICDATA/I.GGA_PBE-JTH.xml
- pspatm: opening atomic psp file    ../../../Psps_for_tests/ATOMICDATA/I.GGA_PBE-JTH.xml
- pspatm : Reading pseudopotential header in XML form from ../../../Psps_for_tests/ATOMICDATA/I.GGA_PBE-JTH.xml
 Pseudopotential format is: paw10
 basis_size (lnmax)=  4 (lmn_size=  8), orbitals=   0   0   1   1
 Spheres core radius: rc_sph= 2.30022271
 1 radial meshes are used:
  - mesh 1: r(i)=AA*[exp(BB*(i-1))-1], size=2000 , AA= 0.12610E-03 BB= 0.66836E-02
 Shapefunction is SIN type: shapef(r)=[sin(pi*r/rshp)/(pi*r/rshp)]**2
 Radius for shape functions =  2.10879093
 mmax= 2000
 Radial grid used for partial waves is grid 1
 Radial grid used for projectors is grid 1
 Radial grid used for (t)core density is grid 1
 Radial grid used for Vloc is grid 1
 Radial grid used for pseudo valence density is grid 1
 Mesh size for Vloc has been set to 1792 to avoid numerical noise.
 Compensation charge density is not taken into account in XC energy/potential
 pspatm: atomic psp has been read  and splines computed

- pspini: atom type   3  psp file is ../../../Psps_for_tests/ATOMICDATA/Hf.GGA_PBE-JTH.xml
- pspatm: opening atomic psp file    ../../../Psps_for_tests/ATOMICDATA/Hf.GGA_PBE-JTH.xml
- pspatm : Reading pseudopotential header in XML form from ../../../Psps_for_tests/ATOMICDATA/Hf.GGA_PBE-JTH.xml
 Pseudopotential format is: paw10
 basis_size (lnmax)=  6 (lmn_size= 18), orbitals=   0   0   1   1   2   2
 Spheres core radius: rc_sph= 2.41000000
 1 radial meshes are used:
  - mesh 1: r(i)=AA*[exp(BB*(i-1))-1], size= 972 , AA= 0.19796E-03 BB= 0.14253E-01
 Shapefunction is SIN type: shapef(r)=[sin(pi*r/rshp)/(pi*r/rshp)]**2
 Radius for shape functions =  2.41000000
 mmax=  972
 Radial grid used for partial waves is grid 1
 Radial grid used for projectors is grid 1
 Radial grid used for (t)core density is grid 1
 Radial grid used for Vloc is grid 1
 Radial grid used for pseudo valence density is grid 1
 Mesh size for Vloc has been set to  809 to avoid numerical noise.
 Compensation charge density is not taken into account in XC energy/potential
 pspatm: atomic psp has been read  and splines computed

- pspini: atom type   4  psp file is ../../../Psps_for_tests/ATOMICDATA/Br.GGA_PBE-JTH.xml
- pspatm: opening atomic psp file    ../../../Psps_for_tests/ATOMICDATA/Br.GGA_PBE-JTH.xml
- pspatm : Reading pseudopotential header in XML form from ../../../Psps_for_tests/ATOMICDATA/Br.GGA_PBE-JTH.xml
 Pseudopotential format is: paw10
 basis_size (lnmax)=  4 (lmn_size=  8), orbitals=   0   0   1   1
 Spheres core radius: rc_sph= 2.20000000
 1 radial meshes are used:
  - mesh 1: r(i)=AA*[exp(BB*(i-1))-1], size= 927 , AA= 0.40483E-03 BB= 0.14169E-01
 Shapefunction is BESSEL type: shapef(r,l)=aa(1,l)*jl(q(1,l)*r)+aa(2,l)*jl(q(2,l)*r)
 Radius for shape functions =  2.02066386
 mmax=  927
 Radial grid used for partial waves is grid 1
 Radial grid used for projectors is grid 1
 Radial grid used for (t)core density is grid 1
 Radial grid used for Vloc is grid 1
 Radial grid used for pseudo valence density is grid 1
 Mesh size for Vloc has been set to  763 to avoid numerical noise.
 Compensation charge density is not taken into account in XC energy/potential
 pspatm: atomic psp has been read  and splines computed

   3.08921017E+04                                ecore*ucvol(ha*bohr**3)
--------------------------------------------------------------------------------

_setup2: Arith. and geom. avg. npw (full set) are    9915.906    9915.895

================================================================================

=== [ionmov= 2] Broyden-Fletcher-Goldfard-Shanno method (forces)            
================================================================================

--- Iteration: (   1/1000) Internal Cycle: (1/1)
--------------------------------------------------------------------------------

---SELF-CONSISTENT-FIELD CONVERGENCE--------------------------------------------

--- !BeginCycle
iteration_state: {dtset: 1, itime: 1, icycle: 1, }
solver: {iscf: 17, nstep: 50, nline: 4, wfoptalg: 10, }
tolerances: {toldff: 1.00E-08, }
...

     iter   Etot(hartree)      deltaE(h)  residm     nres2    diffor    maxfor
 ETOT  1  -169.76957477294    -1.698E+02 3.898E+00 8.114E+00 5.495E-02 5.495E-02
 ETOT  2  -171.14474562628    -1.375E+00 2.415E-02 2.733E+00 6.041E-02 8.175E-03
 ETOT  3  -171.13655730687     8.188E-03 1.362E-02 4.529E-01 3.844E-02 3.127E-02
 ETOT  4  -171.13757122212    -1.014E-03 2.886E-03 1.023E-01 3.915E-02 8.701E-03
 ETOT  5  -171.13760846569    -3.724E-05 2.776E-03 6.862E-03 1.147E-02 2.768E-03
 ETOT  6  -171.13766796341    -5.950E-05 2.311E-03 9.852E-04 2.485E-03 2.830E-04
 ETOT  7  -171.13767725138    -9.288E-06 1.540E-03 1.833E-04 9.510E-04 7.025E-04
 ETOT  8  -171.13767917741    -1.926E-06 9.464E-04 1.130E-05 2.618E-04 4.661E-04
 ETOT  9  -171.13767938784    -2.104E-07 5.308E-04 2.247E-06 8.590E-05 5.276E-04
 ETOT 10  -171.13767939962    -1.178E-08 5.311E-04 4.687E-07 4.345E-05 4.880E-04
 ETOT 11  -171.13767940300    -3.388E-09 2.470E-04 1.204E-07 2.514E-05 5.093E-04
 ETOT 12  -171.13767940280     2.022E-10 6.366E-04 3.334E-08 3.485E-06 5.105E-04
 ETOT 13  -171.13767940275     4.863E-11 3.063E-04 1.342E-08 4.750E-06 5.152E-04
 ETOT 14  -171.13767940268     7.338E-11 6.962E-04 1.076E-09 1.316E-06 5.141E-04
 ETOT 15  -171.13767940269    -5.883E-12 2.836E-04 5.038E-10 9.001E-07 5.150E-04
 ETOT 16  -171.13767940270    -9.123E-12 5.734E-04 3.892E-11 1.173E-07 5.152E-04
 ETOT 17  -171.13767940271    -1.165E-11 1.813E-04 2.427E-11 8.037E-08 5.152E-04
 ETOT 18  -171.13767940271     1.137E-13 3.391E-04 2.165E-11 1.401E-08 5.152E-04
 ETOT 19  -171.13767940270     2.359E-12 9.986E-05 1.299E-13 5.277E-08 5.152E-04
 ETOT 20  -171.13767940270     4.292E-12 1.425E-04 1.058E-12 1.235E-08 5.152E-04
 ETOT 21  -171.13767940271    -5.457E-12 7.299E-05 5.349E-13 4.507E-09 5.152E-04
 ETOT 22  -171.13767940270     2.615E-12 9.695E-05 1.480E-14 6.132E-09 5.152E-04

 At SCF step   22, forces are converged : 
  for the second time, max diff in force=  6.132E-09 < toldff=  1.000E-08

 Cartesian components of stress tensor (hartree/bohr^3)
  sigma(1 1)= -6.87424226E-05  sigma(3 2)=  3.82567471E-14
  sigma(2 2)= -6.86303264E-05  sigma(3 1)= -7.62836121E-14
  sigma(3 3)= -6.87424226E-05  sigma(2 1)=  3.82557519E-14


--- !ResultsGS
iteration_state: {dtset: 1, itime: 1, icycle: 1, }
comment   : Summary of ground state results
lattice_vectors:
- [  0.0000000,  10.1963986,  10.2268811, ]
- [ 10.2268811,   0.0000000,  10.2268811, ]
- [ 10.2268811,  10.1963986,   0.0000000, ]
lattice_lengths: [  14.44146,   14.46299,   14.44146, ]
lattice_angles: [ 59.951,  60.099,  59.951, ] # degrees, (23, 13, 12)
lattice_volume:   2.1328642E+03
convergence: {deltae:  2.615E-12, res2:  1.480E-14, residm:  9.695E-05, diffor:  6.132E-09, }
etotal    :  -1.71137679E+02
entropy   :   0.00000000E+00
fermie    :  -5.95693141E-02
cartesian_stress_tensor: # hartree/bohr^3
- [ -6.87424226E-05,   3.82557519E-14,  -7.62836121E-14, ]
- [  3.82557519E-14,  -6.86303264E-05,   3.82567471E-14, ]
- [ -7.62836121E-14,   3.82567471E-14,  -6.87424226E-05, ]
pressure_GPa:   2.0214E+00
xred      :
- [  2.5229E-01,   2.4771E-01,   2.5229E-01, Cs]
- [  7.5229E-01,   7.4771E-01,   7.5229E-01, Cs]
- [  7.4106E-01,   2.5894E-01,   7.4106E-01,  I]
- [  2.4138E-01,   2.4013E-01,   7.5987E-01, Br]
- [  7.5987E-01,   7.5862E-01,   2.4138E-01, Br]
- [  2.4652E-01,   7.5348E-01,   2.4652E-01, Br]
- [  2.4138E-01,   7.5862E-01,   7.5987E-01, Br]
- [  7.5987E-01,   2.4013E-01,   2.4138E-01, Br]
- [  5.3404E-03,  -5.3404E-03,   5.3404E-03, Hf]
cartesian_forces: # hartree/bohr
- [ -1.24582589E-20,  -9.00659295E-06,   1.53517384E-20, ]
- [ -1.26426985E-20,  -9.00659295E-06,   1.55361780E-20, ]
- [  2.61635538E-20,  -4.07551057E-04,  -2.32700743E-20, ]
- [ -2.88759301E-15,  -1.27232199E-05,   5.08895831E-04, ]
- [  2.88761908E-15,  -1.27232199E-05,  -5.08895831E-04, ]
- [ -1.88038332E-20,   5.15213981E-04,   2.16973127E-20, ]
- [ -5.08895831E-04,  -1.27232199E-05,   2.88763825E-15, ]
- [  5.08895831E-04,  -1.27232199E-05,  -2.88753140E-15, ]
- [ -8.44228472E-21,  -3.87568588E-05,   1.13357642E-20, ]
force_length_stats: {min:   9.00659295E-06, max:   5.15213981E-04, mean:   3.35083834E-04, }
...

 Integrated electronic density in atomic spheres:
 ------------------------------------------------
 Atom  Sphere_radius  Integrated_density
    1        2.20660          5.37145990
    2        2.20660          5.37145990
    3        2.30022          4.04236666
    4        2.20000          4.94412940
    5        2.20000          4.94412940
    6        2.20000          4.94312844
    7        2.20000          4.94412940
    8        2.20000          4.94412940
    9        2.41000          9.31265507

 PAW TEST:
 ==== Compensation charge inside spheres ============
 The following values must be close to each other ...
 Compensation charge over spherical meshes =     -0.326899468693544
 Compensation charge over fine fft grid    =     -0.326895537831477

 ==== Results concerning PAW augmentation regions ====

 Total pseudopotential strength Dij (hartree):
 Atom #  1
   0.42859  -0.14199  -0.00000   0.00000   0.00000   0.00000   0.00000   0.00000   0.00000   0.00000  -0.00000   0.00000 ...
  -0.14199   0.04270   0.00000   0.00000   0.00000  -0.00000   0.00000   0.00000   0.00000   0.00000   0.00000  -0.00000 ...
  -0.00000   0.00000  -0.09214   0.00000   0.00000  -0.16743   0.00000   0.00000   0.00000   0.00000   0.00000  -0.00000 ...
   0.00000   0.00000   0.00000  -0.09214   0.00000   0.00000  -0.16743  -0.00000  -0.00000  -0.00000   0.00000   0.00000 ...
   0.00000   0.00000   0.00000   0.00000  -0.09214   0.00000  -0.00000  -0.16743  -0.00000  -0.00000   0.00000   0.00000 ...
   0.00000  -0.00000  -0.16743   0.00000   0.00000   0.40050   0.00000   0.00000   0.00000   0.00000  -0.00000   0.00000 ...
   0.00000   0.00000   0.00000  -0.16743  -0.00000   0.00000   0.40049   0.00001   0.00000   0.00000   0.00000   0.00000 ...
   0.00000   0.00000   0.00000  -0.00000  -0.16743   0.00000   0.00001   0.40049   0.00000   0.00000   0.00000   0.00000 ...
   0.00000   0.00000   0.00000  -0.00000  -0.00000   0.00000   0.00000   0.00000   0.00543   0.00000   0.00000   0.00000 ...
   0.00000   0.00000   0.00000  -0.00000  -0.00000   0.00000   0.00000   0.00000   0.00000   0.00543   0.00000   0.00000 ...
  -0.00000   0.00000   0.00000   0.00000   0.00000  -0.00000   0.00000   0.00000   0.00000   0.00000   0.00543   0.00000 ...
   0.00000  -0.00000  -0.00000   0.00000   0.00000   0.00000   0.00000   0.00000   0.00000   0.00000   0.00000   0.00543 ...
   ...  only 12  components have been written...
 Atom #  9
  -3.50324   0.42279   0.00011   0.00000   0.00000  -0.00002   0.00000   0.00000   0.00000   0.00000   0.00002   0.00000 ...
   0.42279   0.00391  -0.00003   0.00000   0.00000   0.00001   0.00000   0.00000   0.00000   0.00000  -0.00000   0.00000 ...
   0.00011  -0.00003  -1.43114   0.00000   0.00000   0.11838   0.00000   0.00000   0.00000   0.00000  -0.00002   0.00000 ...
   0.00000   0.00000   0.00000  -1.43103   0.00000   0.00000   0.11836   0.00000   0.00000   0.00003   0.00000   0.00000 ...
   0.00000   0.00000   0.00000   0.00000  -1.43103   0.00000   0.00000   0.11836   0.00003   0.00000   0.00000   0.00000 ...
  -0.00002   0.00001   0.11838   0.00000   0.00000   0.01421   0.00000   0.00000   0.00000   0.00000   0.00000   0.00000 ...
   0.00000   0.00000   0.00000   0.11836   0.00000   0.00000   0.01422   0.00000   0.00000  -0.00001   0.00000   0.00000 ...
   0.00000   0.00000   0.00000   0.00000   0.11836   0.00000   0.00000   0.01422  -0.00001   0.00000   0.00000   0.00000 ...
   0.00000   0.00000   0.00000   0.00000   0.00003   0.00000   0.00000  -0.00001  -0.38923   0.00000   0.00000   0.00000 ...
   0.00000   0.00000   0.00000   0.00003   0.00000   0.00000  -0.00001   0.00000   0.00000  -0.38923   0.00000   0.00000 ...
   0.00002  -0.00000  -0.00002   0.00000   0.00000   0.00000   0.00000   0.00000   0.00000   0.00000  -0.38856   0.00000 ...
   0.00000   0.00000   0.00000   0.00000   0.00000   0.00000   0.00000   0.00000   0.00000   0.00000   0.00000  -0.38921 ...
   ...  only 12  components have been written...


 Augmentation waves occupancies Rhoij:
 Atom #  1
   1.99821  -0.01370   0.00000   0.00000   0.00000  -0.00001   0.00000   0.00000   0.00000   0.00000  -0.00064   0.00261 ...
  -0.01370   0.16949  -0.00073   0.00000   0.00000   0.00001   0.00000   0.00000   0.00000   0.00000   0.00667  -0.02165 ...
   0.00000  -0.00073   2.00788   0.00000   0.00000  -0.00481   0.00000   0.00000   0.00000   0.00000   0.00061  -0.00069 ...
   0.00000   0.00000   0.00000   2.00944  -0.00187   0.00000  -0.00507   0.00030  -0.00079  -0.00004   0.00000   0.00000 ...
   0.00000   0.00000   0.00000  -0.00187   2.00944   0.00000   0.00030  -0.00507  -0.00004  -0.00079   0.00000   0.00000 ...
  -0.00001   0.00001  -0.00481   0.00000   0.00000   0.00011   0.00000   0.00000   0.00000   0.00000  -0.00003  -0.00002 ...
   0.00000   0.00000   0.00000  -0.00507   0.00030   0.00000   0.00013  -0.00002  -0.00001  -0.00002   0.00000   0.00000 ...
   0.00000   0.00000   0.00000   0.00030  -0.00507   0.00000  -0.00002   0.00013  -0.00002  -0.00001   0.00000   0.00000 ...
   0.00000   0.00000   0.00000  -0.00079  -0.00004   0.00000  -0.00001  -0.00002   0.05186  -0.00064   0.00000   0.00000 ...
   0.00000   0.00000   0.00000  -0.00004  -0.00079   0.00000  -0.00002  -0.00001  -0.00064   0.05186   0.00000   0.00000 ...
  -0.00064   0.00667   0.00061   0.00000   0.00000  -0.00003   0.00000   0.00000   0.00000   0.00000   0.03628  -0.00733 ...
   0.00261  -0.02165  -0.00069   0.00000   0.00000  -0.00002   0.00000   0.00000   0.00000   0.00000  -0.00733   0.07267 ...
   ...  only 12  components have been written...
 Atom #  9
   1.99789  -0.02151   0.00007   0.00000   0.00000   0.00021   0.00000   0.00000   0.00000   0.00000  -0.00006   0.00000 ...
  -0.02151   1.01155  -0.00062   0.00000   0.00000   0.01578   0.00000   0.00000   0.00000   0.00000   0.00859   0.00000 ...
   0.00007  -0.00062   1.99258   0.00000   0.00000  -0.06303   0.00000   0.00000   0.00000   0.00000  -0.00040   0.00000 ...
   0.00000   0.00000   0.00000   1.99246   0.00000   0.00000  -0.06558   0.00000   0.00000   0.00137   0.00000   0.00000 ...
   0.00000   0.00000   0.00000   0.00000   1.99246   0.00000   0.00000  -0.06558   0.00137   0.00000   0.00000   0.00000 ...
   0.00021   0.01578  -0.06303   0.00000   0.00000   1.27128   0.00000   0.00000   0.00000   0.00000  -0.04225   0.00000 ...
   0.00000   0.00000   0.00000  -0.06558   0.00000   0.00000   1.34959   0.00000   0.00000  -0.03074   0.00000   0.00000 ...
   0.00000   0.00000   0.00000   0.00000  -0.06558   0.00000   0.00000   1.34959  -0.03074   0.00000   0.00000   0.00000 ...
   0.00000   0.00000   0.00000   0.00000   0.00137   0.00000   0.00000  -0.03074   0.49854   0.00000   0.00000   0.00000 ...
   0.00000   0.00000   0.00000   0.00137   0.00000   0.00000  -0.03074   0.00000   0.00000   0.49854   0.00000   0.00000 ...
  -0.00006   0.00859  -0.00040   0.00000   0.00000  -0.04225   0.00000   0.00000   0.00000   0.00000   1.52756   0.00000 ...
   0.00000   0.00000   0.00000   0.00000   0.00000   0.00000   0.00000   0.00000   0.00000   0.00000   0.00000   0.50643 ...
   ...  only 12  components have been written...



---OUTPUT-----------------------------------------------------------------------

 Cartesian coordinates (xcart) [bohr]
  5.11344054334815E+00  5.14486394369059E+00  5.11344054334815E+00
  1.53403216300450E+01  1.53412624963988E+01  1.53403216300450E+01
  1.02268810866689E+01  1.51123406101220E+01  1.02268810866689E+01
  1.02268810866667E+01  1.02091317193747E+01  4.92431979676736E+00
  1.02268810867268E+01  1.02091317193747E+01  1.55294423766262E+01
  1.02268810867262E+01  5.02728907049847E+00  1.02268810867262E+01
  1.55294423766262E+01  1.02091317193747E+01  1.02268810867268E+01
  4.92431979676736E+00  1.02091317193747E+01  1.02268810866667E+01
 -6.19797850742579E-13  1.08905423663172E-01 -6.19797850742579E-13
 Reduced coordinates (xred)
  2.52288291650000E-01  2.47711708350000E-01  2.52288291650000E-01
  7.52288291650000E-01  7.47711708350000E-01  7.52288291650000E-01
  7.41062666980000E-01  2.58937333020000E-01  7.41062666980000E-01
  2.41378138060000E-01  2.40129347460000E-01  7.59870652540000E-01
  7.59870652540000E-01  7.58621861940000E-01  2.41378138060000E-01
  2.46522781770000E-01  7.53477218230000E-01  2.46522781770000E-01
  2.41378138060000E-01  7.58621861940000E-01  7.59870652540000E-01
  7.59870652540000E-01  2.40129347460000E-01  2.41378138060000E-01
  5.34038676010000E-03 -5.34038676010000E-03  5.34038676010000E-03
 Cartesian forces (fcart) [Ha/bohr]; max,rms= 5.15214E-04 2.33314E-04 (free atoms)
 -1.24582589174042E-20 -9.00659295475026E-06  1.53517384275448E-20
 -1.26426984971765E-20 -9.00659295475025E-06  1.55361780073171E-20
  2.61635538023272E-20 -4.07551056720135E-04 -2.32700742921866E-20
 -2.88759300962044E-15 -1.27232199379552E-05  5.08895831121102E-04
  2.88761907926157E-15 -1.27232199437476E-05 -5.08895831121102E-04
 -1.88038331580068E-20  5.15213981204107E-04  2.16973126681473E-20
 -5.08895831121102E-04 -1.27232199437476E-05  2.88763824905705E-15
  5.08895831121102E-04 -1.27232199379553E-05 -2.88753139530484E-15
 -8.44228472370261E-21 -3.87568588110656E-05  1.13357642338432E-20
 Reduced forces (fred)
  9.18348113686475E-05 -2.95912708771693E-20  9.18348113686478E-05
  9.18348113686475E-05 -2.95912708771693E-20  9.18348113686478E-05
  4.15555300489589E-03 -2.95912708771693E-20  4.15555300489589E-03
 -5.07468612900057E-03 -5.20441715039126E-03  1.29731021390686E-04
  5.33414817178195E-03  5.20441715039126E-03  1.29731021390686E-04
 -5.25332709228460E-03 -2.95912708771693E-20 -5.25332709228460E-03
  1.29731021390685E-04  5.20441715039126E-03  5.33414817178195E-03
  1.29731021390686E-04 -5.20441715039126E-03 -5.07468612900057E-03
  3.95180379088666E-04 -2.95912708771693E-20  3.95180379088667E-04
 Scale of Primitive Cell (acell) [bohr]
  1.44414556124760E+01  1.44629939335950E+01  1.44414556124760E+01
 Real space primitive translations (rprimd) [bohr]
  0.00000000000000E+00  1.01963985527082E+01  1.02268810866388E+01
  1.02268810867549E+01  0.00000000000000E+00  1.02268810867549E+01
  1.02268810866388E+01  1.01963985527082E+01  0.00000000000000E+00
 Unitary Cell Volume (ucvol) [Bohr^3]=  2.13286422969476E+03
 Angles (23,13,12)= [degrees]
  5.99506518440278E+01  6.00986963119444E+01  5.99506518440278E+01
 Lengths [Bohr]
  1.44414556124347E+01  1.44629939336656E+01  1.44414556124347E+01
 Stress tensor in cartesian coordinates (strten) [Ha/bohr^3]
 -6.87424225520308E-05  3.82557518973535E-14 -7.62836120533932E-14
  3.82557518973535E-14 -6.86303264317012E-05  3.82567471305166E-14
 -7.62836120533932E-14  3.82567471305166E-14 -6.87424225520317E-05
 Total energy (etotal) [Ha]= -1.71137679402703E+02

--- Iteration: (   2/1000) Internal Cycle: (1/1)
--------------------------------------------------------------------------------

---SELF-CONSISTENT-FIELD CONVERGENCE--------------------------------------------

--- !BeginCycle
iteration_state: {dtset: 1, itime: 2, icycle: 1, }
solver: {iscf: 17, nstep: 50, nline: 4, wfoptalg: 10, }
tolerances: {toldff: 1.00E-08, }
...

     iter   Etot(hartree)      deltaE(h)  residm     nres2    diffor    maxfor
 ETOT  1  -171.13768392759    -1.711E+02 5.978E-05 4.882E-04 2.201E-03 2.716E-03
 ETOT  2  -171.13768096022     2.967E-06 4.342E-05 4.780E-05 2.273E-03 4.435E-04
 ETOT  3  -171.13768076540     1.948E-07 2.627E-05 3.642E-06 2.196E-04 6.631E-04
 ETOT  4  -171.13768075850     6.892E-09 3.929E-05 8.683E-07 1.773E-04 4.858E-04
 ETOT  5  -171.13768076428    -5.775E-09 2.333E-05 3.322E-07 6.636E-06 4.807E-04
 ETOT  6  -171.13768077020    -5.920E-09 3.466E-05 2.507E-08 2.240E-05 4.583E-04
 ETOT  7  -171.13768077069    -4.902E-10 2.025E-05 1.216E-08 2.251E-06 4.563E-04
 ETOT  8  -171.13768077189    -1.200E-09 2.987E-05 7.827E-10 2.864E-06 4.535E-04
 ETOT  9  -171.13768077194    -5.303E-11 1.720E-05 1.871E-10 8.186E-07 4.526E-04
 ETOT 10  -171.13768077191     3.703E-11 2.522E-05 3.343E-11 2.358E-07 4.529E-04
 ETOT 11  -171.13768077194    -3.101E-11 1.435E-05 4.713E-12 1.385E-07 4.527E-04
 ETOT 12  -171.13768077195    -1.134E-11 2.094E-05 6.902E-13 5.601E-08 4.527E-04
 ETOT 13  -171.13768077196    -1.364E-11 1.179E-05 1.347E-13 9.700E-09 4.527E-04
 ETOT 14  -171.13768077197    -1.128E-11 1.714E-05 3.006E-14 6.173E-09 4.527E-04

 At SCF step   14, forces are converged : 
  for the second time, max diff in force=  6.173E-09 < toldff=  1.000E-08

 Cartesian components of stress tensor (hartree/bohr^3)
  sigma(1 1)= -6.85059371E-05  sigma(3 2)=  3.82592012E-14
  sigma(2 2)= -6.84209126E-05  sigma(3 1)= -7.62879366E-14
  sigma(3 3)= -6.85059371E-05  sigma(2 1)=  3.82582911E-14


--- !ResultsGS
iteration_state: {dtset: 1, itime: 2, icycle: 1, }
comment   : Summary of ground state results
lattice_vectors:
- [  0.0000000,  10.1963757,  10.2268926, ]
- [ 10.2268926,   0.0000000,  10.2268926, ]
- [ 10.2268926,  10.1963757,   0.0000000, ]
lattice_lengths: [  14.44145,   14.46301,   14.44145, ]
lattice_angles: [ 59.951,  60.099,  59.951, ] # degrees, (23, 13, 12)
lattice_volume:   2.1328642E+03
convergence: {deltae: -1.128E-11, res2:  3.006E-14, residm:  1.714E-05, diffor:  6.173E-09, }
etotal    :  -1.71137681E+02
entropy   :   0.00000000E+00
fermie    :  -5.95685773E-02
cartesian_stress_tensor: # hartree/bohr^3
- [ -6.85059371E-05,   3.82582911E-14,  -7.62879366E-14, ]
- [  3.82582911E-14,  -6.84209126E-05,   3.82592012E-14, ]
- [ -7.62879366E-14,   3.82592012E-14,  -6.85059371E-05, ]
pressure_GPa:   2.0147E+00
xred      :
- [  2.5229E-01,   2.4771E-01,   2.5229E-01, Cs]
- [  7.5229E-01,   7.4771E-01,   7.5229E-01, Cs]
- [  7.4104E-01,   2.5896E-01,   7.4104E-01,  I]
- [  2.4140E-01,   2.4015E-01,   7.5985E-01, Br]
- [  7.5985E-01,   7.5860E-01,   2.4140E-01, Br]
- [  2.4655E-01,   7.5345E-01,   2.4655E-01, Br]
- [  2.4140E-01,   7.5860E-01,   7.5985E-01, Br]
- [  7.5985E-01,   2.4015E-01,   2.4140E-01, Br]
- [  5.3385E-03,  -5.3385E-03,   5.3385E-03, Hf]
cartesian_forces: # hartree/bohr
- [  4.89073720E-22,  -8.75155591E-06,   5.52764225E-21, ]
- [  3.04633397E-22,  -8.75155591E-06,   5.71208258E-21, ]
- [  4.93030833E-20,  -3.58422675E-04,  -4.32863674E-20, ]
- [ -2.53391903E-15,  -1.22265719E-05,   4.46561443E-04, ]
- [  2.53387910E-15,  -1.22265719E-05,  -4.46561443E-04, ]
- [ -3.09553614E-20,   4.52680726E-04,   3.69720773E-20, ]
- [ -4.46561443E-04,  -1.22265719E-05,   2.53382699E-15, ]
- [  4.46561443E-04,  -1.22265719E-05,  -2.53384454E-15, ]
- [  3.50095637E-21,  -2.78486519E-05,   2.51575960E-21, ]
force_length_stats: {min:   8.75155591E-06, max:   4.52680726E-04, mean:   2.93707814E-04, }
...

 Integrated electronic density in atomic spheres:
 ------------------------------------------------
 Atom  Sphere_radius  Integrated_density
    1        2.20660          5.37146101
    2        2.20660          5.37146101
    3        2.30022          4.04237503
    4        2.20000          4.94414511
    5        2.20000          4.94414511
    6        2.20000          4.94358618
    7        2.20000          4.94414511
    8        2.20000          4.94414511
    9        2.41000          9.31224979

 PAW TEST:
 ==== Compensation charge inside spheres ============
 The following values must be close to each other ...
 Compensation charge over spherical meshes =     -0.326930148811400
 Compensation charge over fine fft grid    =     -0.326926230618872

 ==== Results concerning PAW augmentation regions ====

 Total pseudopotential strength Dij (hartree):
 Atom #  1
   0.42859  -0.14199  -0.00000   0.00000   0.00000   0.00000   0.00000   0.00000   0.00000   0.00000  -0.00000   0.00000 ...
  -0.14199   0.04270   0.00000   0.00000   0.00000  -0.00000   0.00000   0.00000   0.00000   0.00000   0.00000  -0.00000 ...
  -0.00000   0.00000  -0.09214   0.00000   0.00000  -0.16743   0.00000   0.00000   0.00000   0.00000   0.00000  -0.00000 ...
   0.00000   0.00000   0.00000  -0.09214   0.00000   0.00000  -0.16743  -0.00000  -0.00000  -0.00000   0.00000   0.00000 ...
   0.00000   0.00000   0.00000   0.00000  -0.09214   0.00000  -0.00000  -0.16743  -0.00000  -0.00000   0.00000   0.00000 ...
   0.00000  -0.00000  -0.16743   0.00000   0.00000   0.40050   0.00000   0.00000   0.00000   0.00000  -0.00000   0.00000 ...
   0.00000   0.00000   0.00000  -0.16743  -0.00000   0.00000   0.40049   0.00001   0.00000   0.00000   0.00000   0.00000 ...
   0.00000   0.00000   0.00000  -0.00000  -0.16743   0.00000   0.00001   0.40049   0.00000   0.00000   0.00000   0.00000 ...
   0.00000   0.00000   0.00000  -0.00000  -0.00000   0.00000   0.00000   0.00000   0.00543   0.00000   0.00000   0.00000 ...
   0.00000   0.00000   0.00000  -0.00000  -0.00000   0.00000   0.00000   0.00000   0.00000   0.00543   0.00000   0.00000 ...
  -0.00000   0.00000   0.00000   0.00000   0.00000  -0.00000   0.00000   0.00000   0.00000   0.00000   0.00543   0.00000 ...
   0.00000  -0.00000  -0.00000   0.00000   0.00000   0.00000   0.00000   0.00000   0.00000   0.00000   0.00000   0.00543 ...
   ...  only 12  components have been written...
 Atom #  9
  -3.50326   0.42280   0.00011   0.00000   0.00000  -0.00002   0.00000   0.00000   0.00000   0.00000   0.00002   0.00000 ...
   0.42280   0.00391  -0.00003   0.00000   0.00000   0.00001   0.00000   0.00000   0.00000   0.00000  -0.00000   0.00000 ...
   0.00011  -0.00003  -1.43118   0.00000   0.00000   0.11839   0.00000   0.00000   0.00000   0.00000  -0.00002   0.00000 ...
   0.00000   0.00000   0.00000  -1.43106   0.00000   0.00000   0.11837   0.00000   0.00000   0.00003   0.00000   0.00000 ...
   0.00000   0.00000   0.00000   0.00000  -1.43106   0.00000   0.00000   0.11837   0.00003   0.00000   0.00000   0.00000 ...
  -0.00002   0.00001   0.11839   0.00000   0.00000   0.01421   0.00000   0.00000   0.00000   0.00000   0.00000   0.00000 ...
   0.00000   0.00000   0.00000   0.11837   0.00000   0.00000   0.01422   0.00000   0.00000  -0.00001   0.00000   0.00000 ...
   0.00000   0.00000   0.00000   0.00000   0.11837   0.00000   0.00000   0.01422  -0.00001   0.00000   0.00000   0.00000 ...
   0.00000   0.00000   0.00000   0.00000   0.00003   0.00000   0.00000  -0.00001  -0.38924   0.00000   0.00000   0.00000 ...
   0.00000   0.00000   0.00000   0.00003   0.00000   0.00000  -0.00001   0.00000   0.00000  -0.38924   0.00000   0.00000 ...
   0.00002  -0.00000  -0.00002   0.00000   0.00000   0.00000   0.00000   0.00000   0.00000   0.00000  -0.38857   0.00000 ...
   0.00000   0.00000   0.00000   0.00000   0.00000   0.00000   0.00000   0.00000   0.00000   0.00000   0.00000  -0.38922 ...
   ...  only 12  components have been written...


 Augmentation waves occupancies Rhoij:
 Atom #  1
   1.99821  -0.01370   0.00000   0.00000   0.00000  -0.00001   0.00000   0.00000   0.00000   0.00000  -0.00064   0.00261 ...
  -0.01370   0.16950  -0.00073   0.00000   0.00000   0.00001   0.00000   0.00000   0.00000   0.00000   0.00667  -0.02164 ...
   0.00000  -0.00073   2.00788   0.00000   0.00000  -0.00481   0.00000   0.00000   0.00000   0.00000   0.00061  -0.00069 ...
   0.00000   0.00000   0.00000   2.00944  -0.00187   0.00000  -0.00507   0.00030  -0.00079  -0.00004   0.00000   0.00000 ...
   0.00000   0.00000   0.00000  -0.00187   2.00944   0.00000   0.00030  -0.00507  -0.00004  -0.00079   0.00000   0.00000 ...
  -0.00001   0.00001  -0.00481   0.00000   0.00000   0.00011   0.00000   0.00000   0.00000   0.00000  -0.00003  -0.00002 ...
   0.00000   0.00000   0.00000  -0.00507   0.00030   0.00000   0.00013  -0.00002  -0.00001  -0.00002   0.00000   0.00000 ...
   0.00000   0.00000   0.00000   0.00030  -0.00507   0.00000  -0.00002   0.00013  -0.00002  -0.00001   0.00000   0.00000 ...
   0.00000   0.00000   0.00000  -0.00079  -0.00004   0.00000  -0.00001  -0.00002   0.05187  -0.00064   0.00000   0.00000 ...
   0.00000   0.00000   0.00000  -0.00004  -0.00079   0.00000  -0.00002  -0.00001  -0.00064   0.05187   0.00000   0.00000 ...
  -0.00064   0.00667   0.00061   0.00000   0.00000  -0.00003   0.00000   0.00000   0.00000   0.00000   0.03628  -0.00732 ...
   0.00261  -0.02164  -0.00069   0.00000   0.00000  -0.00002   0.00000   0.00000   0.00000   0.00000  -0.00732   0.07267 ...
   ...  only 12  components have been written...
 Atom #  9
   1.99789  -0.02152   0.00007   0.00000   0.00000   0.00021   0.00000   0.00000   0.00000   0.00000  -0.00006   0.00000 ...
  -0.02152   1.01138  -0.00062   0.00000   0.00000   0.01571   0.00000   0.00000   0.00000   0.00000   0.00857   0.00000 ...
   0.00007  -0.00062   1.99258   0.00000   0.00000  -0.06309   0.00000   0.00000   0.00000   0.00000  -0.00040   0.00000 ...
   0.00000   0.00000   0.00000   1.99245   0.00000   0.00000  -0.06564   0.00000   0.00000   0.00137   0.00000   0.00000 ...
   0.00000   0.00000   0.00000   0.00000   1.99245   0.00000   0.00000  -0.06564   0.00137   0.00000   0.00000   0.00000 ...
   0.00021   0.01571  -0.06309   0.00000   0.00000   1.27075   0.00000   0.00000   0.00000   0.00000  -0.04216   0.00000 ...
   0.00000   0.00000   0.00000  -0.06564   0.00000   0.00000   1.34891   0.00000   0.00000  -0.03072   0.00000   0.00000 ...
   0.00000   0.00000   0.00000   0.00000  -0.06564   0.00000   0.00000   1.34891  -0.03072   0.00000   0.00000   0.00000 ...
   0.00000   0.00000   0.00000   0.00000   0.00137   0.00000   0.00000  -0.03072   0.49827   0.00000   0.00000   0.00000 ...
   0.00000   0.00000   0.00000   0.00137   0.00000   0.00000  -0.03072   0.00000   0.00000   0.49827   0.00000   0.00000 ...
  -0.00006   0.00857  -0.00040   0.00000   0.00000  -0.04216   0.00000   0.00000   0.00000   0.00000   1.52672   0.00000 ...
   0.00000   0.00000   0.00000   0.00000   0.00000   0.00000   0.00000   0.00000   0.00000   0.00000   0.00000   0.50613 ...
   ...  only 12  components have been written...



---OUTPUT-----------------------------------------------------------------------

 Cartesian coordinates (xcart) [bohr]
  5.11344627532304E+00  5.14484340273853E+00  5.11344627532304E+00
  1.53403388259696E+01  1.53412190959252E+01  1.53403388259696E+01
  1.02268925506186E+01  1.51118991793029E+01  1.02268925506186E+01
  1.02268925506164E+01  1.02090961081150E+01  4.92483421314657E+00
  1.02268925506766E+01  1.02090961081150E+01  1.55289508881465E+01
  1.02268925506760E+01  5.02779301253891E+00  1.02268925506760E+01
  1.55289508881465E+01  1.02090961081150E+01  1.02268925506766E+01
  4.92483421314657E+00  1.02090961081150E+01  1.02268925506164E+01
 -6.19785129387936E-13  1.08866422733878E-01 -6.19794612444486E-13
 Reduced coordinates (xred)
  2.52287849994404E-01  2.47712150005596E-01  2.52287849994404E-01
  7.52287849994404E-01  7.47712150005596E-01  7.52287849994404E-01
  7.41042681930641E-01  2.58957318069359E-01  7.41042681930641E-01
  2.41402394456961E-01  2.40154851672047E-01  7.59845148327953E-01
  7.59845148327953E-01  7.58597605543040E-01  2.41402394456961E-01
  2.46548046277784E-01  7.53451953722217E-01  2.46548046277784E-01
  2.41402394456961E-01  7.58597605543040E-01  7.59845148327953E-01
  7.59845148327953E-01  2.40154851672047E-01  2.41402394456961E-01
  5.33848624303946E-03 -5.33848624303948E-03  5.33848624303946E-03
 Cartesian forces (fcart) [Ha/bohr]; max,rms= 4.52681E-04 2.04811E-04 (free atoms)
  4.89073719908762E-22 -8.75155591427962E-06  5.52764225373232E-21
  3.04633397395045E-22 -8.75155591427962E-06  5.71208257624603E-21
  4.93030833307887E-20 -3.58422674834215E-04 -4.32863673571476E-20
 -2.53391902578346E-15 -1.22265719409738E-05  4.46561443276253E-04
  2.53387909763902E-15 -1.22265719460567E-05 -4.46561443276253E-04
 -3.09553613556231E-20  4.52680726363891E-04  3.69720773292642E-20
 -4.46561443276253E-04 -1.22265719460567E-05  2.53382699012583E-15
  4.46561443276253E-04 -1.22265719409738E-05 -2.53384453953174E-15
  3.50095637160579E-21 -2.78486519270564E-05  2.51575960203529E-21
 Reduced forces (fred)
  8.92341520019246E-05 -6.15323077705355E-20  8.92341520019247E-05
  8.92341520019246E-05 -6.15323077705355E-20  8.92341520019247E-05
  3.65461224956653E-03 -6.15323077705355E-20  3.65461224956653E-03
 -4.44226917667206E-03 -4.56693589764791E-03  1.24666720975858E-04
  4.69160261862377E-03  4.56693589764791E-03  1.24666720975857E-04
 -4.61570275507086E-03 -6.15323077705355E-20 -4.61570275507087E-03
  1.24666720975858E-04  4.56693589764791E-03  4.69160261862377E-03
  1.24666720975857E-04 -4.56693589764791E-03 -4.44226917667206E-03
  2.83955317597054E-04 -6.15323077705355E-20  2.83955317597054E-04
 Scale of Primitive Cell (acell) [bohr]
  1.44414475908024E+01  1.44630101461389E+01  1.44414475908024E+01
 Real space primitive translations (rprimd) [bohr]
  0.00000000000000E+00  1.01963756931867E+01  1.02268925505886E+01
  1.02268925507046E+01  0.00000000000000E+00  1.02268925507046E+01
  1.02268925505886E+01  1.01963756931867E+01  0.00000000000000E+00
 Unitary Cell Volume (ucvol) [Bohr^3]=  2.13286422969476E+03
 Angles (23,13,12)= [degrees]
  5.99505962780562E+01  6.00988074438876E+01  5.99505962780562E+01
 Lengths [Bohr]
  1.44414475908024E+01  1.44630101461389E+01  1.44414475908024E+01
 Stress tensor in cartesian coordinates (strten) [Ha/bohr^3]
 -6.85059371024416E-05  3.82582910544665E-14 -7.62879365713400E-14
  3.82582910544665E-14 -6.84209126381747E-05  3.82592012441793E-14
 -7.62879365713400E-14  3.82592012441793E-14 -6.85059371024381E-05
 Total energy (etotal) [Ha]= -1.71137680771973E+02

 Difference of energy with previous step (new-old):
           Absolute (Ha)=-1.36927E-06
           Relative     =-8.00098E-09

--- Iteration: (   3/1000) Internal Cycle: (1/1)
--------------------------------------------------------------------------------

---SELF-CONSISTENT-FIELD CONVERGENCE--------------------------------------------

--- !BeginCycle
iteration_state: {dtset: 1, itime: 3, icycle: 1, }
solver: {iscf: 17, nstep: 50, nline: 4, wfoptalg: 10, }
tolerances: {toldff: 1.00E-08, }
...

     iter   Etot(hartree)      deltaE(h)  residm     nres2    diffor    maxfor
 ETOT  1  -171.13784558768    -1.711E+02 1.509E-05 2.515E-02 1.581E-02 1.627E-02
 ETOT  2  -171.13769596966     1.496E-04 1.117E-05 2.419E-03 1.632E-02 1.250E-04
 ETOT  3  -171.13768553682     1.043E-05 1.567E-05 1.853E-04 1.563E-03 1.512E-03
 ETOT  4  -171.13768513379     4.030E-07 8.697E-06 4.463E-05 1.268E-03 2.435E-04
 ETOT  5  -171.13768524081    -1.070E-07 1.460E-05 1.695E-05 4.680E-05 2.068E-04
 ETOT  6  -171.13768531552    -7.471E-08 6.852E-06 1.266E-06 1.597E-04 4.993E-05
 ETOT  7  -171.13768532622    -1.070E-08 1.249E-05 6.118E-07 1.635E-05 4.535E-05
 ETOT  8  -171.13768534021    -1.400E-08 5.383E-06 3.970E-08 2.033E-05 4.440E-05
 ETOT  9  -171.13768534097    -7.568E-10 1.032E-05 9.585E-09 5.703E-06 4.434E-05
 ETOT 10  -171.13768534079     1.850E-10 4.212E-06 1.710E-09 1.700E-06 4.444E-05
 ETOT 11  -171.13768534099    -2.050E-10 8.188E-06 2.508E-10 1.018E-06 4.437E-05
 ETOT 12  -171.13768534104    -5.119E-11 3.287E-06 3.672E-11 4.203E-07 4.434E-05
 ETOT 13  -171.13768534114    -9.794E-11 6.189E-06 8.052E-12 8.106E-08 4.434E-05
 ETOT 14  -171.13768534119    -5.329E-11 2.724E-06 1.709E-12 4.950E-08 4.432E-05
 ETOT 15  -171.13768534126    -6.349E-11 4.471E-06 6.685E-13 1.127E-08 4.432E-05
 ETOT 16  -171.13768534130    -4.084E-11 2.682E-06 2.759E-13 6.473E-09 4.432E-05
 ETOT 17  -171.13768534132    -2.311E-11 3.307E-06 1.071E-13 3.991E-09 4.432E-05

 At SCF step   17, forces are converged : 
  for the second time, max diff in force=  3.991E-09 < toldff=  1.000E-08

 Cartesian components of stress tensor (hartree/bohr^3)
  sigma(1 1)= -6.68156553E-05  sigma(3 2)=  3.82681237E-14
  sigma(2 2)= -6.69188598E-05  sigma(3 1)= -7.63050713E-14
  sigma(3 3)= -6.68156553E-05  sigma(2 1)=  3.82674698E-14


--- !ResultsGS
iteration_state: {dtset: 1, itime: 3, icycle: 1, }
comment   : Summary of ground state results
lattice_vectors:
- [  0.0000000,  10.1962338,  10.2269637, ]
- [ 10.2269637,   0.0000000,  10.2269637, ]
- [ 10.2269637,  10.1962338,   0.0000000, ]
lattice_lengths: [  14.44140,   14.46311,   14.44140, ]
lattice_angles: [ 59.950,  60.099,  59.950, ] # degrees, (23, 13, 12)
lattice_volume:   2.1328642E+03
convergence: {deltae: -2.311E-11, res2:  1.071E-13, residm:  3.307E-06, diffor:  3.991E-09, }
etotal    :  -1.71137685E+02
entropy   :   0.00000000E+00
fermie    :  -5.95611776E-02
cartesian_stress_tensor: # hartree/bohr^3
- [ -6.68156553E-05,   3.82674698E-14,  -7.63050713E-14, ]
- [  3.82674698E-14,  -6.69188598E-05,   3.82681237E-14, ]
- [ -7.63050713E-14,   3.82681237E-14,  -6.68156553E-05, ]
pressure_GPa:   1.9668E+00
xred      :
- [  2.5228E-01,   2.4772E-01,   2.5228E-01, Cs]
- [  7.5228E-01,   7.4772E-01,   7.5228E-01, Cs]
- [  7.4090E-01,   2.5910E-01,   7.4090E-01,  I]
- [  2.4158E-01,   2.4034E-01,   7.5966E-01, Br]
- [  7.5966E-01,   7.5842E-01,   2.4158E-01, Br]
- [  2.4673E-01,   7.5327E-01,   2.4673E-01, Br]
- [  2.4158E-01,   7.5842E-01,   7.5966E-01, Br]
- [  7.5966E-01,   2.4034E-01,   2.4158E-01, Br]
- [  5.3273E-03,  -5.3273E-03,   5.3273E-03, Hf]
cartesian_forces: # hartree/bohr
- [  3.59593363E-22,  -6.82709116E-06,  -3.49943259E-22, ]
- [  3.59593363E-22,  -6.82709116E-06,  -3.49943259E-22, ]
- [  3.75994993E-22,  -3.68685823E-06,  -3.66344889E-22, ]
- [ -3.44236528E-18,  -8.42835036E-06,   6.06721397E-07, ]
- [  3.44316554E-18,  -8.42835036E-06,  -6.06721397E-07, ]
- [ -1.26269694E-21,   6.73103776E-06,   1.27234704E-21, ]
- [ -6.06721397E-07,  -8.42835036E-06,   3.44229622E-18, ]
- [  6.06721397E-07,  -8.42835036E-06,  -3.44241459E-18, ]
- [ -7.91737933E-22,   4.43234042E-05,   8.01388037E-22, ]
force_length_stats: {min:   3.68685823E-06, max:   4.43234042E-05, mean:   1.13551246E-05, }
...

 Integrated electronic density in atomic spheres:
 ------------------------------------------------
 Atom  Sphere_radius  Integrated_density
    1        2.20660          5.37146903
    2        2.20660          5.37146903
    3        2.30022          4.04089841
    4        2.20000          4.94303859
    5        2.20000          4.94303859
    6        2.20000          4.94447910
    7        2.20000          4.94303859
    8        2.20000          4.94303859
    9        2.41000          9.30934839

 PAW TEST:
 ==== Compensation charge inside spheres ============
 The following values must be close to each other ...
 Compensation charge over spherical meshes =     -0.327150755320857
 Compensation charge over fine fft grid    =     -0.327146974476963

 ==== Results concerning PAW augmentation regions ====

 Total pseudopotential strength Dij (hartree):
 Atom #  1
   0.42858  -0.14199  -0.00000   0.00000   0.00000   0.00000   0.00000   0.00000   0.00000   0.00000  -0.00000   0.00000 ...
  -0.14199   0.04270   0.00000   0.00000   0.00000  -0.00000   0.00000   0.00000   0.00000   0.00000   0.00000  -0.00000 ...
  -0.00000   0.00000  -0.09214   0.00000   0.00000  -0.16743   0.00000   0.00000   0.00000   0.00000   0.00000  -0.00000 ...
   0.00000   0.00000   0.00000  -0.09214   0.00000   0.00000  -0.16743  -0.00000  -0.00000  -0.00000   0.00000   0.00000 ...
   0.00000   0.00000   0.00000   0.00000  -0.09214   0.00000  -0.00000  -0.16743  -0.00000  -0.00000   0.00000   0.00000 ...
   0.00000  -0.00000  -0.16743   0.00000   0.00000   0.40050   0.00000   0.00000   0.00000   0.00000  -0.00000   0.00000 ...
   0.00000   0.00000   0.00000  -0.16743  -0.00000   0.00000   0.40049   0.00001   0.00000   0.00000   0.00000   0.00000 ...
   0.00000   0.00000   0.00000  -0.00000  -0.16743   0.00000   0.00001   0.40049   0.00000   0.00000   0.00000   0.00000 ...
   0.00000   0.00000   0.00000  -0.00000  -0.00000   0.00000   0.00000   0.00000   0.00543   0.00000   0.00000   0.00000 ...
   0.00000   0.00000   0.00000  -0.00000  -0.00000   0.00000   0.00000   0.00000   0.00000   0.00543   0.00000   0.00000 ...
  -0.00000   0.00000   0.00000   0.00000   0.00000  -0.00000   0.00000   0.00000   0.00000   0.00000   0.00543   0.00000 ...
   0.00000  -0.00000  -0.00000   0.00000   0.00000   0.00000   0.00000   0.00000   0.00000   0.00000   0.00000   0.00543 ...
   ...  only 12  components have been written...
 Atom #  9
  -3.50343   0.42286   0.00011   0.00000   0.00000  -0.00002   0.00000   0.00000   0.00000   0.00000   0.00002   0.00000 ...
   0.42286   0.00390  -0.00003   0.00000   0.00000   0.00001   0.00000   0.00000   0.00000   0.00000  -0.00000   0.00000 ...
   0.00011  -0.00003  -1.43142   0.00000   0.00000   0.11844   0.00000   0.00000   0.00000   0.00000  -0.00002   0.00000 ...
   0.00000   0.00000   0.00000  -1.43131   0.00000   0.00000   0.11842   0.00000   0.00000   0.00003   0.00000   0.00000 ...
   0.00000   0.00000   0.00000   0.00000  -1.43131   0.00000   0.00000   0.11842   0.00003   0.00000   0.00000   0.00000 ...
  -0.00002   0.00001   0.11844   0.00000   0.00000   0.01420   0.00000   0.00000   0.00000   0.00000   0.00000   0.00000 ...
   0.00000   0.00000   0.00000   0.11842   0.00000   0.00000   0.01421   0.00000   0.00000  -0.00001   0.00000   0.00000 ...
   0.00000   0.00000   0.00000   0.00000   0.11842   0.00000   0.00000   0.01421  -0.00001   0.00000   0.00000   0.00000 ...
   0.00000   0.00000   0.00000   0.00000   0.00003   0.00000   0.00000  -0.00001  -0.38929   0.00000   0.00000   0.00000 ...
   0.00000   0.00000   0.00000   0.00003   0.00000   0.00000  -0.00001   0.00000   0.00000  -0.38929   0.00000   0.00000 ...
   0.00002  -0.00000  -0.00002   0.00000   0.00000   0.00000   0.00000   0.00000   0.00000   0.00000  -0.38862   0.00000 ...
   0.00000   0.00000   0.00000   0.00000   0.00000   0.00000   0.00000   0.00000   0.00000   0.00000   0.00000  -0.38927 ...
   ...  only 12  components have been written...


 Augmentation waves occupancies Rhoij:
 Atom #  1
[...]
                       8.1295125891E+00  5.3608783959E+00  5.3668086438E+00
                       2.6041046983E+00  5.3608783959E+00  5.3668086437E+00
                      -3.3758469316E-13  5.9164096896E-02 -3.3758988511E-13
           xangst10    2.6805800531E+00  2.6982009472E+00  2.6805800531E+00
                       8.0417401593E+00  8.0491174344E+00  8.0417401593E+00
                       5.3611601062E+00  7.9169583449E+00  5.3611601062E+00
                       5.3611601062E+00  5.3557762721E+00  2.6036294830E+00
                       5.3611601062E+00  5.3557762721E+00  8.1186907293E+00
                       5.3611601062E+00  2.6605403377E+00  5.3611601062E+00
                       8.1186907293E+00  5.3557762721E+00  5.3611601062E+00
                       2.6036294830E+00  5.3557762721E+00  5.3611601062E+00
                      -3.3792812098E-13  5.9409745774E-02 -3.3793333930E-13
            xcart1     5.1133239607E+00  5.1447482180E+00  5.1133239607E+00
                       1.5339971882E+01  1.5341611727E+01  1.5339971882E+01
                       1.0226647921E+01  1.5110110026E+01  1.0226647921E+01
                       1.0226647921E+01  1.0209220524E+01  4.9283690200E+00
                       1.0226647921E+01  1.0209220524E+01  1.5524926823E+01
                       1.0226647921E+01  5.0321197529E+00  1.0226647921E+01
                       1.5524926823E+01  1.0209220524E+01  1.0226647921E+01
                       4.9283690200E+00  1.0209220524E+01  1.0226647921E+01
                      -6.2278960479E-13  1.0943625167E-01 -6.2278960479E-13
            xcart2     5.1079618999E+00  5.1394492710E+00  5.1079618999E+00
                       1.5323885700E+01  1.5327077415E+01  1.5323885700E+01
                       1.0215923800E+01  1.5094211618E+01  1.0215923800E+01
                       1.0215923800E+01  1.0199618662E+01  4.9277294220E+00
                       1.0215923800E+01  1.0199618662E+01  1.5504118178E+01
                       1.0215923800E+01  5.0318899637E+00  1.0215923800E+01
                       1.5504118178E+01  1.0199618662E+01  1.0215923800E+01
                       4.9277294220E+00  1.0199618662E+01  1.0215923800E+01
                      -6.2492964527E-13  1.0992223503E-01 -6.2578915270E-13
            xcart3     5.1019421951E+00  5.1359315770E+00  5.1019421951E+00
                       1.5305826585E+01  1.5316948668E+01  1.5305826585E+01
                       1.0203884390E+01  1.5082842032E+01  1.0203884390E+01
                       1.0203884390E+01  1.0192867437E+01  4.9268834152E+00
                       1.0203884390E+01  1.0192867437E+01  1.5480885365E+01
                       1.0203884390E+01  5.0310528834E+00  1.0203884390E+01
                       1.5480885365E+01  1.0192867437E+01  1.0203884390E+01
                       4.9268834152E+00  1.0192867437E+01  1.0203884390E+01
                      -6.2487135421E-13  1.0989181943E-01 -6.2602265023E-13
            xcart4     5.0972941570E+00  5.1298952164E+00  5.0972941570E+00
                       1.5291882471E+01  1.5298828096E+01  1.5291882471E+01
                       1.0194588314E+01  1.5061142281E+01  1.0194588314E+01
                       1.0194588314E+01  1.0180195205E+01  4.9259389198E+00
                       1.0194588314E+01  1.0180195205E+01  1.5463237708E+01
                       1.0194588314E+01  5.0305411402E+00  1.0194588314E+01
                       1.5463237708E+01  1.0180195205E+01  1.0194588314E+01
                       4.9259389198E+00  1.0180195205E+01  1.0194588314E+01
                      -6.2600697288E-13  1.1027548767E-01 -6.2715806299E-13
            xcart5     5.0916000222E+00  5.1252197416E+00  5.0916000222E+00
                       1.5274800067E+01  1.5286242917E+01  1.5274800067E+01
                       1.0183200044E+01  1.5047574241E+01  1.0183200044E+01
                       1.0183200044E+01  1.0172066030E+01  4.9250638316E+00
                       1.0183200044E+01  1.0172066030E+01  1.5441336257E+01
                       1.0183200044E+01  5.0303002595E+00  1.0183200044E+01
                       1.5441336257E+01  1.0172066030E+01  1.0183200044E+01
                       4.9250638316E+00  1.0172066030E+01  1.0183200044E+01
                      -6.2684381743E-13  1.1058412099E-01 -6.2683498491E-13
            xcart6     5.0864472463E+00  5.1193726101E+00  5.0864472463E+00
                       1.5259341739E+01  1.5270325752E+01  1.5259341739E+01
                       1.0172894493E+01  1.5029961022E+01  1.0172894493E+01
                       1.0172894493E+01  1.0161742281E+01  4.9240911263E+00
                       1.0172894493E+01  1.0161742281E+01  1.5421697859E+01
                       1.0172894493E+01  5.0298847018E+00  1.0172894493E+01
                       1.5421697859E+01  1.0161742281E+01  1.0172894493E+01
                       4.9240911263E+00  1.0161742281E+01  1.0172894493E+01
                      -6.2984618671E-13  1.1111193020E-01 -6.2981791920E-13
            xcart7     5.0809947365E+00  5.1154155928E+00  5.0809947365E+00
                       1.5242984209E+01  1.5257495187E+01  1.5242984209E+01
                       1.0161989473E+01  1.5014222354E+01  1.0161989473E+01
                       1.0161989473E+01  1.0152350144E+01  4.9231661027E+00
                       1.0161989473E+01  1.0152350144E+01  1.5400812843E+01
                       1.0161989473E+01  5.0289765561E+00  1.0161989473E+01
                       1.5400812843E+01  1.0152350144E+01  1.0161989473E+01
                       4.9231661027E+00  1.0152350144E+01  1.0161989473E+01
                      -6.3064391879E-13  1.1112648658E-01 -6.3179856863E-13
            xcart8     5.0758917600E+00  5.1102852355E+00  5.0758917600E+00
                       1.5227675280E+01  1.5242096020E+01  1.5227675280E+01
                       1.0151783520E+01  1.4995849372E+01  1.0151783520E+01
                       1.0151783520E+01  1.0141686152E+01  4.9220566471E+00
                       1.0151783520E+01  1.0141686152E+01  1.5381510393E+01
                       1.0151783520E+01  5.0282636491E+00  1.0151783520E+01
                       1.5381510393E+01  1.0141686152E+01  1.0151783520E+01
                       4.9220566471E+00  1.0141686152E+01  1.0151783520E+01
                      -6.3025200951E-13  1.1124739063E-01 -6.3138788915E-13
            xcart9     5.0708992721E+00  5.1042775759E+00  5.0708992721E+00
                       1.5212697816E+01  1.5225378484E+01  1.5212697816E+01
                       1.0141798544E+01  1.4977022502E+01  1.0141798544E+01
                       1.0141798544E+01  1.0130592000E+01  4.9210447012E+00
                       1.0141798544E+01  1.0130592000E+01  1.5362552387E+01
                       1.0141798544E+01  5.0279567629E+00  1.0141798544E+01
                       1.5362552387E+01  1.0130592000E+01  1.0141798544E+01
                       4.9210447012E+00  1.0130592000E+01  1.0141798544E+01
                      -6.3794261673E-13  1.1180394003E-01 -6.3795242810E-13
            xcart10    5.0655621776E+00  5.0988608417E+00  5.0655621776E+00
                       1.5196686533E+01  1.5210627563E+01  1.5196686533E+01
                       1.0131124355E+01  1.4960883077E+01  1.0131124355E+01
                       1.0131124355E+01  1.0120950383E+01  4.9201466744E+00
                       1.0131124355E+01  1.0120950383E+01  1.5342102036E+01
                       1.0131124355E+01  5.0276926038E+00  1.0131124355E+01
                       1.5342102036E+01  1.0120950383E+01  1.0131124355E+01
                       4.9201466744E+00  1.0120950383E+01  1.0131124355E+01
                      -6.3859160126E-13  1.1226814914E-01 -6.3860146245E-13
             xred1     2.5227111324E-01  2.4772888676E-01  2.5227111324E-01
                       7.5227111324E-01  7.4772888676E-01  7.5227111324E-01
                       7.4091950003E-01  2.5908049997E-01  7.4091950003E-01
                       2.4156312837E-01  2.4035128365E-01  7.5964871635E-01
                       7.5964871635E-01  7.5843687163E-01  2.4156312837E-01
                       2.4674841182E-01  7.5325158818E-01  2.4674841182E-01
                       2.4156312837E-01  7.5843687163E-01  7.5964871635E-01
                       7.5964871635E-01  2.4035128365E-01  2.4156312837E-01
                       5.3661722336E-03 -5.3661722336E-03  5.3661722336E-03
             xred2     2.5223973621E-01  2.4776026379E-01  2.5223973621E-01
                       7.5223973621E-01  7.4776026379E-01  7.5223973621E-01
                       7.4081088382E-01  2.5918911618E-01  7.4081088382E-01
                       2.4176733010E-01  2.4059036154E-01  7.5940963846E-01
                       7.5940963846E-01  7.5823266990E-01  2.4176733010E-01
                       2.4696081820E-01  7.5303918180E-01  2.4696081820E-01
                       2.4176733010E-01  7.5823266990E-01  7.5940963846E-01
                       7.5940963846E-01  2.4059036154E-01  2.4176733010E-01
                       5.3948884610E-03 -5.3948884610E-03  5.3948884610E-03
             xred3     2.5223077082E-01  2.4776922918E-01  2.5223077082E-01
                       7.5223077082E-01  7.4776922918E-01  7.5223077082E-01
                       7.4073355821E-01  2.5926644179E-01  7.4073355821E-01
                       2.4200393640E-01  2.4083997155E-01  7.5916002845E-01
                       7.5916002845E-01  7.5799606360E-01  2.4200393640E-01
                       2.4708007257E-01  7.5291992743E-01  2.4708007257E-01
                       2.4200393640E-01  7.5799606360E-01  7.5916002845E-01
                       7.5916002845E-01  2.4083997155E-01  2.4200393640E-01
                       5.3968978959E-03 -5.3968978959E-03  5.3968978959E-03
             xred4     2.5223370421E-01  2.4776629579E-01  2.5223370421E-01
                       7.5223370421E-01  7.4776629579E-01  7.5223370421E-01
                       7.4054684294E-01  2.5945315706E-01  7.4054684294E-01
                       2.4214953594E-01  2.4104201316E-01  7.5895798684E-01
                       7.5895798684E-01  7.5785046406E-01  2.4214953594E-01
                       2.4734852710E-01  7.5265147290E-01  2.4734852710E-01
                       2.4214953594E-01  7.5785046406E-01  7.5895798684E-01
                       7.5895798684E-01  2.4104201316E-01  2.4214953594E-01
                       5.4221760026E-03 -5.4221760026E-03  5.4221760026E-03
             xred5     2.5219998288E-01  2.4780001712E-01  2.5219998288E-01
                       7.5219998288E-01  7.4780001712E-01  7.5219998288E-01
                       7.4045565989E-01  2.5954434011E-01  7.4045565989E-01
                       2.4236638615E-01  2.4127960039E-01  7.5872039961E-01
                       7.5872039961E-01  7.5763361385E-01  2.4236638615E-01
                       2.4752921890E-01  7.5247078110E-01  2.4752921890E-01
                       2.4236638615E-01  7.5763361385E-01  7.5872039961E-01
                       7.5872039961E-01  2.4127960039E-01  2.4236638615E-01
                       5.4415839374E-03 -5.4415839374E-03  5.4415839374E-03
             xred6     2.5216216341E-01  2.4783783659E-01  2.5216216341E-01
                       7.5216216341E-01  7.4783783659E-01  7.5216216341E-01
                       7.4032264807E-01  2.5967735193E-01  7.4032264807E-01
                       2.4255159576E-01  2.4148872627E-01  7.5851127373E-01
                       7.5851127373E-01  7.5744840424E-01  2.4255159576E-01
                       2.4775430599E-01  7.5224569401E-01  2.4775430599E-01
                       2.4255159576E-01  7.5744840424E-01  7.5851127373E-01
                       7.5851127373E-01  2.4148872627E-01  2.4255159576E-01
                       5.4729801549E-03 -5.4729801549E-03  5.4729801549E-03
             xred7     2.5218770694E-01  2.4781229306E-01  2.5218770694E-01
                       7.5218770694E-01  7.4781229306E-01  7.5218770694E-01
                       7.4019446480E-01  2.5980553520E-01  7.4019446480E-01
                       2.4274069698E-01  2.4172802992E-01  7.5827197008E-01
                       7.5827197008E-01  7.5725930302E-01  2.4274069698E-01
                       2.4792630099E-01  7.5207369901E-01  2.4792630099E-01
                       2.4274069698E-01  7.5725930302E-01  7.5827197008E-01
                       7.5827197008E-01  2.4172802992E-01  2.4274069698E-01
                       5.4784862193E-03 -5.4784862193E-03  5.4784862193E-03
             xred8     2.5219012397E-01  2.4780987603E-01  2.5219012397E-01
                       7.5219012397E-01  7.4780987603E-01  7.5219012397E-01
                       7.4003797008E-01  2.5996202992E-01  7.4003797008E-01
                       2.4291059163E-01  2.4193590233E-01  7.5806409767E-01
                       7.5806409767E-01  7.5708940837E-01  2.4291059163E-01
                       2.4814239804E-01  7.5185760196E-01  2.4814239804E-01
                       2.4291059163E-01  7.5708940837E-01  7.5806409767E-01
                       7.5806409767E-01  2.4193590233E-01  2.4291059163E-01
                       5.4900053406E-03 -5.4900053406E-03  5.4900053406E-03
             xred9     2.5216019592E-01  2.4783980408E-01  2.5216019592E-01
                       7.5216019592E-01  7.4783980408E-01  7.5216019592E-01
                       7.3989097817E-01  2.6010902183E-01  7.3989097817E-01
                       2.4308090823E-01  2.4214315531E-01  7.5785684469E-01
                       7.5785684469E-01  7.5691909177E-01  2.4308090823E-01
                       2.4838981493E-01  7.5161018507E-01  2.4838981493E-01
                       2.4308090823E-01  7.5691909177E-01  7.5785684469E-01
                       7.5785684469E-01  2.4214315531E-01  2.4308090823E-01
                       5.5233092254E-03 -5.5233092254E-03  5.5233092254E-03
             xred10    2.5212512227E-01  2.4787487773E-01  2.5212512227E-01
                       7.5212512227E-01  7.4787487773E-01  7.5212512227E-01
                       7.3977592097E-01  2.6022407903E-01  7.3977592097E-01
                       2.4327743619E-01  2.4236922078E-01  7.5763077922E-01
                       7.5763077922E-01  7.5672256381E-01  2.4327743619E-01
                       2.4860604198E-01  7.5139395802E-01  2.4860604198E-01
                       2.4327743619E-01  7.5672256381E-01  7.5763077922E-01
                       7.5763077922E-01  2.4236922078E-01  2.4327743619E-01
                       5.5513617074E-03 -5.5513617074E-03  5.5513617074E-03
            znucl       55.00000   53.00000   72.00000   35.00000

================================================================================


- Timing analysis has been suppressed with timopt=0



================================================================================

 Suggested references for the acknowledgment of ABINIT usage.

 The users of ABINIT have little formal obligations with respect to the ABINIT group
 (those specified in the GNU General Public License, http://www.gnu.org/copyleft/gpl.txt).
 However, it is common practice in the scientific literature,
 to acknowledge the efforts of people that have made the research possible.
 In this spirit, please find below suggested citations of work written by ABINIT developers,
 corresponding to implementations inside of ABINIT that you have used in the present run.
 Note also that it will be of great value to readers of publications presenting these results,
 to read papers enabling them to understand the theoretical formalism and details
 of the ABINIT implementation.
 For information on why they are suggested, see also https://docs.abinit.org/theory/acknowledgments.
-
- [1] Implementation of the Projector Augmented-Wave Method in the ABINIT code.
- M. Torrent, F. Jollet, F. Bottin, G. Zerah, and X. Gonze Comput. Mat. Science 42, 337, (2008).
- Comment: PAW calculations. Strong suggestion to cite this paper.
- DOI and bibtex: see https://docs.abinit.org/theory/bibliography/#torrent2008
-
- [2] Libxc: A library of exchange and correlation functionals for density functional theory.
- M.A.L. Marques, M.J.T. Oliveira, T. Burnus, Computer Physics Communications 183, 2227 (2012).
- Comment: to be cited when LibXC is used (negative value of ixc)
- Strong suggestion to cite this paper.
- DOI and bibtex: see https://docs.abinit.org/theory/bibliography/#marques2012
-
- [3] The Abinit project: Impact, environment and recent developments.
- Computer Phys. Comm. 248, 107042 (2020).
- X.Gonze, B. Amadon, G. Antonius, F.Arnardi, L.Baguet, J.-M.Beuken,
- J.Bieder, F.Bottin, J.Bouchet, E.Bousquet, N.Brouwer, F.Bruneval,
- G.Brunin, T.Cavignac, J.-B. Charraud, Wei Chen, M.Cote, S.Cottenier,
- J.Denier, G.Geneste, Ph.Ghosez, M.Giantomassi, Y.Gillet, O.Gingras,
- D.R.Hamann, G.Hautier, Xu He, N.Helbig, N.Holzwarth, Y.Jia, F.Jollet,
- W.Lafargue-Dit-Hauret, K.Lejaeghere, M.A.L.Marques, A.Martin, C.Martins,
- H.P.C. Miranda, F.Naccarato, K. Persson, G.Petretto, V.Planes, Y.Pouillon,
- S.Prokhorenko, F.Ricci, G.-M.Rignanese, A.H.Romero, M.M.Schmitt, M.Torrent,
- M.J.van Setten, B.Van Troeye, M.J.Verstraete, G.Zerah and J.W.Zwanzig
- Comment: the fifth generic paper describing the ABINIT project.
- Note that a version of this paper, that is not formatted for Computer Phys. Comm. 
- is available at https://www.abinit.org/sites/default/files/ABINIT20.pdf .
- The licence allows the authors to put it on the Web.
- DOI and bibtex: see https://docs.abinit.org/theory/bibliography/#gonze2020
-
- [4] ABINIT: Overview, and focus on selected capabilities
- J. Chem. Phys. 152, 124102 (2020).
- A. Romero, D.C. Allan, B. Amadon, G. Antonius, T. Applencourt, L.Baguet,
- J.Bieder, F.Bottin, J.Bouchet, E.Bousquet, F.Bruneval,
- G.Brunin, D.Caliste, M.Cote,
- J.Denier, C. Dreyer, Ph.Ghosez, M.Giantomassi, Y.Gillet, O.Gingras,
- D.R.Hamann, G.Hautier, F.Jollet, G. Jomard,
- A.Martin, 
- H.P.C. Miranda, F.Naccarato, G.Petretto, N.A. Pike, V.Planes,
- S.Prokhorenko, T. Rangel, F.Ricci, G.-M.Rignanese, M.Royo, M.Stengel, M.Torrent,
- M.J.van Setten, B.Van Troeye, M.J.Verstraete, J.Wiktor, J.W.Zwanziger, and X.Gonze.
- Comment: a global overview of ABINIT, with focus on selected capabilities .
- Note that a version of this paper, that is not formatted for J. Chem. Phys 
- is available at https://www.abinit.org/sites/default/files/ABINIT20_JPC.pdf .
- The licence allows the authors to put it on the Web.
- DOI and bibtex: see https://docs.abinit.org/theory/bibliography/#romero2020
-
- [5] Recent developments in the ABINIT software package.
- Computer Phys. Comm. 205, 106 (2016).
- X.Gonze, F.Jollet, F.Abreu Araujo, D.Adams, B.Amadon, T.Applencourt,
- C.Audouze, J.-M.Beuken, J.Bieder, A.Bokhanchuk, E.Bousquet, F.Bruneval
- D.Caliste, M.Cote, F.Dahm, F.Da Pieve, M.Delaveau, M.Di Gennaro,
- B.Dorado, C.Espejo, G.Geneste, L.Genovese, A.Gerossier, M.Giantomassi,
- Y.Gillet, D.R.Hamann, L.He, G.Jomard, J.Laflamme Janssen, S.Le Roux,
- A.Levitt, A.Lherbier, F.Liu, I.Lukacevic, A.Martin, C.Martins,
- M.J.T.Oliveira, S.Ponce, Y.Pouillon, T.Rangel, G.-M.Rignanese,
- A.H.Romero, B.Rousseau, O.Rubel, A.A.Shukri, M.Stankovski, M.Torrent,
- M.J.Van Setten, B.Van Troeye, M.J.Verstraete, D.Waroquier, J.Wiktor,
- B.Xu, A.Zhou, J.W.Zwanziger.
- Comment: the fourth generic paper describing the ABINIT project.
- Note that a version of this paper, that is not formatted for Computer Phys. Comm. 
- is available at https://www.abinit.org/sites/default/files/ABINIT16.pdf .
- The licence allows the authors to put it on the Web.
- DOI and bibtex: see https://docs.abinit.org/theory/bibliography/#gonze2016
-
- Proc.   0 individual time (sec): cpu=      34392.8  wall=      34439.5

================================================================================

 Calculation completed.
.Delivered   0 WARNINGs and 173 COMMENTs to log file.
+Overall time at end (sec) : cpu=     206497.4  wall=     206636.8
