
.Version 9.2.2 of ABINIT 
.(MPI version, prepared for a x86_64_linux_gnu9.3 computer) 

.Copyright (C) 1998-2020 ABINIT group . 
 ABINIT comes with ABSOLUTELY NO WARRANTY.
 It is free software, and you are welcome to redistribute it
 under certain conditions (GNU General Public License,
 see ~abinit/COPYING or http://www.gnu.org/copyleft/gpl.txt).

 ABINIT is a project of the Universite Catholique de Louvain,
 Corning Inc. and other collaborators, see ~abinit/doc/developers/contributors.txt .
 Please read https://docs.abinit.org/theory/acknowledgments for suggested
 acknowledgments of the ABINIT effort.
 For more information, see https://www.abinit.org .

.Starting date : Sat 26 Nov 2022.
- ( at 13h51 )
  
- input  file    -> Cs2TiI6.in
- output file    -> Cs2TiI6.out
- root for input  files -> Cs2TiI6i
- root for output files -> Cs2TiI6o

- inpspheads : Reading pseudopotential header in XML form from 
-   ../../../Psps_for_tests/ATOMICDATA/Cs.GGA_PBE-JTH.xml
- inpspheads : Reading pseudopotential header in XML form from 
-   ../../../Psps_for_tests/ATOMICDATA/I.GGA_PBE-JTH.xml
- inpspheads : Reading pseudopotential header in XML form from 
-   ../../../Psps_for_tests/ATOMICDATA/Zr.GGA_PBE-JTH.xml
- inpspheads : Reading pseudopotential header in XML form from 
-   ../../../Psps_for_tests/ATOMICDATA/Br.GGA_PBE-JTH.xml

 DATASET    1 : space group Fm m 2 (# 42); Bravais oF (face-center ortho.)
================================================================================
 Values of the parameters that define the memory need for DATASET  1.
     intxc =       0    ionmov =       2      iscf =      17    lmnmax =      18
     lnmax =       6     mgfft =      64  mpssoang =       3    mqgrid =    3860
     natom =       9  nloc_mem =       2    nspden =       1   nspinor =       1
    nsppol =       1      nsym =       4    n1xccc =       1    ntypat =       4
    occopt =       1   xclevel =       2
-    mband =          42        mffmem =           1         mkmem =           6
       mpw =        9920          nfft =      262144          nkpt =          32
Pmy_natom=         2
 PAW method is used; the additional fine FFT grid is defined by:
   mgfftf=        96    nfftf =    884736
================================================================================
P This job should need less than                     315.119 Mbytes of memory.
  Rough estimation (10% accuracy) of disk space for files :
_ WF disk file :    203.440 Mbytes ; DEN or POT disk file :      6.752 Mbytes.
================================================================================


 DATASET    2 : space group Fm m 2 (# 42); Bravais oF (face-center ortho.)
================================================================================
 Values of the parameters that define the memory need for DATASET  2.
     intxc =       0    ionmov =       2      iscf =      17    lmnmax =      18
     lnmax =       6     mgfft =      64  mpssoang =       3    mqgrid =    3858
     natom =       9  nloc_mem =       2    nspden =       1   nspinor =       1
    nsppol =       1      nsym =       4    n1xccc =       1    ntypat =       4
    occopt =       1   xclevel =       2
-    mband =          42        mffmem =           1         mkmem =           6
       mpw =        9905          nfft =      262144          nkpt =          32
Pmy_natom=         2
 PAW method is used; the additional fine FFT grid is defined by:
   mgfftf=        96    nfftf =    884736
================================================================================
P This job should need less than                     315.086 Mbytes of memory.
  Rough estimation (10% accuracy) of disk space for files :
_ WF disk file :    203.132 Mbytes ; DEN or POT disk file :      6.752 Mbytes.
================================================================================


 DATASET    3 : space group Fm m 2 (# 42); Bravais oF (face-center ortho.)
================================================================================
 Values of the parameters that define the memory need for DATASET  3.
     intxc =       0    ionmov =       2      iscf =      17    lmnmax =      18
     lnmax =       6     mgfft =      64  mpssoang =       3    mqgrid =    3856
     natom =       9  nloc_mem =       2    nspden =       1   nspinor =       1
    nsppol =       1      nsym =       4    n1xccc =       1    ntypat =       4
    occopt =       1   xclevel =       2
-    mband =          42        mffmem =           1         mkmem =           6
       mpw =        9893          nfft =      262144          nkpt =          32
Pmy_natom=         2
 PAW method is used; the additional fine FFT grid is defined by:
   mgfftf=        96    nfftf =    884736
================================================================================
P This job should need less than                     315.067 Mbytes of memory.
  Rough estimation (10% accuracy) of disk space for files :
_ WF disk file :    202.886 Mbytes ; DEN or POT disk file :      6.752 Mbytes.
================================================================================


 DATASET    4 : space group Fm m 2 (# 42); Bravais oF (face-center ortho.)
================================================================================
 Values of the parameters that define the memory need for DATASET  4.
     intxc =       0    ionmov =       2      iscf =      17    lmnmax =      18
     lnmax =       6     mgfft =      64  mpssoang =       3    mqgrid =    3854
     natom =       9  nloc_mem =       2    nspden =       1   nspinor =       1
    nsppol =       1      nsym =       4    n1xccc =       1    ntypat =       4
    occopt =       1   xclevel =       2
-    mband =          42        mffmem =           1         mkmem =           6
       mpw =        9883          nfft =      262144          nkpt =          32
Pmy_natom=         2
 PAW method is used; the additional fine FFT grid is defined by:
   mgfftf=        96    nfftf =    884736
================================================================================
P This job should need less than                     315.057 Mbytes of memory.
  Rough estimation (10% accuracy) of disk space for files :
_ WF disk file :    202.681 Mbytes ; DEN or POT disk file :      6.752 Mbytes.
================================================================================


 DATASET    5 : space group Fm m 2 (# 42); Bravais oF (face-center ortho.)
================================================================================
 Values of the parameters that define the memory need for DATASET  5.
     intxc =       0    ionmov =       2      iscf =      17    lmnmax =      18
     lnmax =       6     mgfft =      64  mpssoang =       3    mqgrid =    3852
     natom =       9  nloc_mem =       2    nspden =       1   nspinor =       1
    nsppol =       1      nsym =       4    n1xccc =       1    ntypat =       4
    occopt =       1   xclevel =       2
-    mband =          42        mffmem =           1         mkmem =           6
       mpw =        9866          nfft =      262144          nkpt =          32
Pmy_natom=         2
 PAW method is used; the additional fine FFT grid is defined by:
   mgfftf=        96    nfftf =    884736
================================================================================
P This job should need less than                     315.016 Mbytes of memory.
  Rough estimation (10% accuracy) of disk space for files :
_ WF disk file :    202.332 Mbytes ; DEN or POT disk file :      6.752 Mbytes.
================================================================================


 DATASET    6 : space group Fm m 2 (# 42); Bravais oF (face-center ortho.)
================================================================================
 Values of the parameters that define the memory need for DATASET  6.
     intxc =       0    ionmov =       2      iscf =      17    lmnmax =      18
     lnmax =       6     mgfft =      64  mpssoang =       3    mqgrid =    3850
     natom =       9  nloc_mem =       2    nspden =       1   nspinor =       1
    nsppol =       1      nsym =       4    n1xccc =       1    ntypat =       4
    occopt =       1   xclevel =       2
-    mband =          42        mffmem =           1         mkmem =           6
       mpw =        9849          nfft =      262144          nkpt =          32
Pmy_natom=         2
 PAW method is used; the additional fine FFT grid is defined by:
   mgfftf=        96    nfftf =    884736
================================================================================
P This job should need less than                     314.975 Mbytes of memory.
  Rough estimation (10% accuracy) of disk space for files :
_ WF disk file :    201.983 Mbytes ; DEN or POT disk file :      6.752 Mbytes.
================================================================================


 DATASET    7 : space group Fm m 2 (# 42); Bravais oF (face-center ortho.)
================================================================================
 Values of the parameters that define the memory need for DATASET  7.
     intxc =       0    ionmov =       2      iscf =      17    lmnmax =      18
     lnmax =       6     mgfft =      64  mpssoang =       3    mqgrid =    3848
     natom =       9  nloc_mem =       2    nspden =       1   nspinor =       1
    nsppol =       1      nsym =       4    n1xccc =       1    ntypat =       4
    occopt =       1   xclevel =       2
-    mband =          42        mffmem =           1         mkmem =           6
       mpw =        9827          nfft =      262144          nkpt =          32
Pmy_natom=         2
 PAW method is used; the additional fine FFT grid is defined by:
   mgfftf=        96    nfftf =    884736
================================================================================
P This job should need less than                     314.913 Mbytes of memory.
  Rough estimation (10% accuracy) of disk space for files :
_ WF disk file :    201.532 Mbytes ; DEN or POT disk file :      6.752 Mbytes.
================================================================================


 DATASET    8 : space group Fm m 2 (# 42); Bravais oF (face-center ortho.)
================================================================================
 Values of the parameters that define the memory need for DATASET  8.
     intxc =       0    ionmov =       2      iscf =      17    lmnmax =      18
     lnmax =       6     mgfft =      64  mpssoang =       3    mqgrid =    3846
     natom =       9  nloc_mem =       2    nspden =       1   nspinor =       1
    nsppol =       1      nsym =       4    n1xccc =       1    ntypat =       4
    occopt =       1   xclevel =       2
-    mband =          42        mffmem =           1         mkmem =           6
       mpw =        9811          nfft =      262144          nkpt =          32
Pmy_natom=         2
 PAW method is used; the additional fine FFT grid is defined by:
   mgfftf=        96    nfftf =    884736
================================================================================
P This job should need less than                     314.877 Mbytes of memory.
  Rough estimation (10% accuracy) of disk space for files :
_ WF disk file :    201.204 Mbytes ; DEN or POT disk file :      6.752 Mbytes.
================================================================================


 DATASET    9 : space group Fm m 2 (# 42); Bravais oF (face-center ortho.)
================================================================================
 Values of the parameters that define the memory need for DATASET  9.
     intxc =       0    ionmov =       2      iscf =      17    lmnmax =      18
     lnmax =       6     mgfft =      64  mpssoang =       3    mqgrid =    3844
     natom =       9  nloc_mem =       2    nspden =       1   nspinor =       1
    nsppol =       1      nsym =       4    n1xccc =       1    ntypat =       4
    occopt =       1   xclevel =       2
-    mband =          42        mffmem =           1         mkmem =           6
       mpw =        9799          nfft =      262144          nkpt =          32
Pmy_natom=         2
 PAW method is used; the additional fine FFT grid is defined by:
   mgfftf=        96    nfftf =    884736
================================================================================
P This job should need less than                     314.857 Mbytes of memory.
  Rough estimation (10% accuracy) of disk space for files :
_ WF disk file :    200.958 Mbytes ; DEN or POT disk file :      6.752 Mbytes.
================================================================================


 DATASET   10 : space group Fm m 2 (# 42); Bravais oF (face-center ortho.)
================================================================================
 Values of the parameters that define the memory need for DATASET 10.
     intxc =       0    ionmov =       2      iscf =      17    lmnmax =      18
     lnmax =       6     mgfft =      64  mpssoang =       3    mqgrid =    3842
     natom =       9  nloc_mem =       2    nspden =       1   nspinor =       1
    nsppol =       1      nsym =       4    n1xccc =       1    ntypat =       4
    occopt =       1   xclevel =       2
-    mband =          42        mffmem =           1         mkmem =           6
       mpw =        9785          nfft =      262144          nkpt =          32
Pmy_natom=         2
 PAW method is used; the additional fine FFT grid is defined by:
   mgfftf=        96    nfftf =    884736
================================================================================
P This job should need less than                     314.831 Mbytes of memory.
  Rough estimation (10% accuracy) of disk space for files :
_ WF disk file :    200.671 Mbytes ; DEN or POT disk file :      6.752 Mbytes.
================================================================================

--------------------------------------------------------------------------------
------------- Echo of variables that govern the present computation ------------
--------------------------------------------------------------------------------
-
- outvars: echo of selected default values                                      
-   iomode0 =  0 , fftalg0 =112 , wfoptalg0 = 10
-
- outvars: echo of global parameters not present in the input file              
-  max_nthreads =    0
-
 -outvars: echo values of preprocessed input variables --------
            acell1     1.4571645994E+01  1.4377620295E+01  1.4371497348E+01 Bohr
            acell2     1.4564396419E+01  1.4370467250E+01  1.4364347349E+01 Bohr
            acell3     1.4557146844E+01  1.4363314205E+01  1.4357197350E+01 Bohr
            acell4     1.4549897269E+01  1.4356161160E+01  1.4350047352E+01 Bohr
            acell5     1.4542647694E+01  1.4349008116E+01  1.4342897353E+01 Bohr
            acell6     1.4535398119E+01  1.4341855071E+01  1.4335747354E+01 Bohr
            acell7     1.4528148543E+01  1.4334702026E+01  1.4328597356E+01 Bohr
            acell8     1.4520898968E+01  1.4327548981E+01  1.4321447357E+01 Bohr
            acell9     1.4513649393E+01  1.4320395936E+01  1.4314297358E+01 Bohr
            acell10    1.4506399818E+01  1.4313242891E+01  1.4307147360E+01 Bohr
              amu      1.32905430E+02  1.26904470E+02  9.12240000E+01
                       7.99040000E+01
           diemac      1.20000000E+01
          dilatmx      1.15000000E+00
             ecut      1.60000000E+01 Hartree
           ecutsm      5.00000000E-01 Hartree
-          fftalg         112
          getxred1          0
          getxred2         -1
          getxred3         -1
          getxred4         -1
          getxred5         -1
          getxred6         -1
          getxred7         -1
          getxred8         -1
          getxred9         -1
          getxred10        -1
           ionmov           2
              ixc     -101130
           jdtset        1    2    3    4    5    6    7    8    9   10
              kpt      0.00000000E+00 -1.25000000E-01  0.00000000E+00
                       0.00000000E+00 -3.75000000E-01  0.00000000E+00
                       1.25000000E-01 -2.50000000E-01  0.00000000E+00
                       0.00000000E+00 -2.50000000E-01  1.25000000E-01
                       1.25000000E-01 -1.25000000E-01  1.25000000E-01
                       1.25000000E-01  5.00000000E-01  0.00000000E+00
                       2.50000000E-01 -3.75000000E-01  0.00000000E+00
                       0.00000000E+00  5.00000000E-01  1.25000000E-01
                       1.25000000E-01 -3.75000000E-01  1.25000000E-01
                       2.50000000E-01 -2.50000000E-01  1.25000000E-01
                       0.00000000E+00 -3.75000000E-01  2.50000000E-01
                       1.25000000E-01 -2.50000000E-01  2.50000000E-01
                       2.50000000E-01 -1.25000000E-01  2.50000000E-01
                       1.25000000E-01  2.50000000E-01  0.00000000E+00
                       2.50000000E-01  3.75000000E-01  0.00000000E+00
                       3.75000000E-01  5.00000000E-01  0.00000000E+00
                       0.00000000E+00  2.50000000E-01  1.25000000E-01
                       1.25000000E-01  3.75000000E-01  1.25000000E-01
                       2.50000000E-01  5.00000000E-01  1.25000000E-01
                       3.75000000E-01 -3.75000000E-01  1.25000000E-01
                       0.00000000E+00  3.75000000E-01  2.50000000E-01
                       1.25000000E-01  5.00000000E-01  2.50000000E-01
                       2.50000000E-01 -3.75000000E-01  2.50000000E-01
                       3.75000000E-01 -2.50000000E-01  2.50000000E-01
                       0.00000000E+00  5.00000000E-01  3.75000000E-01
                       1.25000000E-01 -3.75000000E-01  3.75000000E-01
                       2.50000000E-01 -2.50000000E-01  3.75000000E-01
                       3.75000000E-01 -1.25000000E-01  3.75000000E-01
                       5.00000000E-01  2.50000000E-01  1.25000000E-01
                      -3.75000000E-01  3.75000000E-01  1.25000000E-01
                       1.25000000E-01  2.50000000E-01  5.00000000E-01
                       1.25000000E-01  3.75000000E-01 -3.75000000E-01
         kptrlatt        4    4   -4     -4    4    4      4   -4    4
          kptrlen1     8.01843944E+01
          kptrlen2     8.01445016E+01
          kptrlen3     8.01046089E+01
          kptrlen4     8.00647162E+01
          kptrlen5     8.00248234E+01
          kptrlen6     7.99849307E+01
          kptrlen7     7.99450380E+01
          kptrlen8     7.99051452E+01
          kptrlen9     7.98652525E+01
          kptrlen10    7.98253598E+01
P           mkmem           6
            natom           9
            nband          42
           ndtset          10
            ngfft          64      64      64
          ngfftdg          96      96      96
             nkpt          32
            nstep        2500
             nsym           4
            ntime        1000
           ntypat           4
              occ      2.000000  2.000000  2.000000  2.000000  2.000000  2.000000
                       2.000000  2.000000  2.000000  2.000000  2.000000  2.000000
                       2.000000  2.000000  2.000000  2.000000  2.000000  2.000000
                       2.000000  2.000000  2.000000  2.000000  2.000000  2.000000
                       2.000000  2.000000  2.000000  2.000000  2.000000  2.000000
                       2.000000  2.000000  2.000000  2.000000  2.000000  2.000000
                       0.000000  0.000000  0.000000  0.000000  0.000000  0.000000
          optcell           3
        optforces           1
        pawecutdg      4.00000000E+01 Hartree
            prtwf           0
            rprim      0.0000000000E+00  7.0681361568E-01  7.0739982520E-01
                       6.9712852967E-01  0.0000000000E+00  7.1694617170E-01
                       6.9742553987E-01  7.1665725164E-01  0.0000000000E+00
           shiftk     -5.00000000E-01  5.00000000E-01  5.00000000E-01
          spgroup          42
           symrel      1  0  0   0  1  0   0  0  1       1  0  0   1  0 -1   1 -1  0
                       0  1 -1   0  1  0  -1  1  0       0  1 -1   1  0 -1   0  0 -1
           toldff      1.00000000E-08
           tolmxf      1.00000000E-05
            typat      1  1  4  2  4  2  2  4  3
           useylm           1
              wtk        0.03125    0.03125    0.03125    0.03125    0.03125    0.03125
                         0.03125    0.03125    0.03125    0.03125    0.03125    0.03125
                         0.03125    0.03125    0.03125    0.03125    0.03125    0.03125
                         0.03125    0.03125    0.03125    0.03125    0.03125    0.03125
                         0.03125    0.03125    0.03125    0.03125    0.03125    0.03125
                         0.03125    0.03125
           xangst1     2.6519846242E+00  2.7251138703E+00  2.7315021824E+00
                       7.9559538725E+00  8.1753416108E+00  8.1862501745E+00
                       5.3039692483E+00  5.4502277405E+00  2.6975142957E+00
                       5.3039692483E+00  5.4502277405E+00  8.1320623191E+00
                       7.9947028000E+00  5.4502277405E+00  5.4683630530E+00
                       5.3039692483E+00  8.0548636504E+00  5.4377283624E+00
                       5.3039692483E+00  2.8455918306E+00  5.4377283623E+00
                       2.6132356966E+00  5.4502277405E+00  5.4683630531E+00
                       1.2967322777E-13  1.3345538606E-12  7.8472134464E-02
           xangst2     2.6506652288E+00  2.7237580922E+00  2.7301432261E+00
                       7.9519956865E+00  8.1712742766E+00  8.1821774132E+00
                       5.3013304576E+00  5.4475161844E+00  2.6961722488E+00
                       5.3013304576E+00  5.4475161845E+00  8.1280165170E+00
                       7.9907253359E+00  5.4475161844E+00  5.4656424744E+00
                       5.3013304576E+00  8.0508562555E+00  5.4350230249E+00
                       5.3013304576E+00  2.8441761133E+00  5.4350230248E+00
                       2.6119355794E+00  5.4475161845E+00  5.4656424745E+00
                       1.2959385700E-13  1.3338921774E-12  7.8433093601E-02
           xangst3     2.6493458335E+00  2.7224023142E+00  2.7287842698E+00
                       7.9480375005E+00  8.1672069425E+00  8.1781046519E+00
                       5.2986916670E+00  5.4448046283E+00  2.6948302019E+00
                       5.2986916670E+00  5.4448046284E+00  8.1239707148E+00
                       7.9867478718E+00  5.4448046283E+00  5.4629218958E+00
                       5.2986916670E+00  8.0468488607E+00  5.4323176874E+00
                       5.2986916670E+00  2.8427603960E+00  5.4323176873E+00
                       2.6106354621E+00  5.4448046284E+00  5.4629218959E+00
                       1.2955120069E-13  1.3332378332E-12  7.8394052738E-02
           xangst4     2.6480264381E+00  2.7210465361E+00  2.7274253135E+00
                       7.9440793144E+00  8.1631396083E+00  8.1740318907E+00
                       5.2960528763E+00  5.4420930722E+00  2.6934881549E+00
                       5.2960528763E+00  5.4420930723E+00  8.1199249127E+00
                       7.9827704077E+00  5.4420930722E+00  5.4602013171E+00
                       5.2960528763E+00  8.0428414658E+00  5.4296123499E+00
                       5.2960528763E+00  2.8413446786E+00  5.4296123498E+00
                       2.6093353449E+00  5.4420930723E+00  5.4602013172E+00
                       1.2947732118E-13  1.3325667001E-12  7.8355011875E-02
           xangst5     2.6467070428E+00  2.7196907581E+00  2.7260663572E+00
                       7.9401211284E+00  8.1590722742E+00  8.1699591294E+00
                       5.2934140856E+00  5.4393815161E+00  2.6921461080E+00
                       5.2934140856E+00  5.4393815162E+00  8.1158791105E+00
                       7.9787929436E+00  5.4393815161E+00  5.4574807385E+00
                       5.2934140856E+00  8.0388340710E+00  5.4269070124E+00
                       5.2934140856E+00  2.8399289613E+00  5.4269070123E+00
                       2.6080352276E+00  5.4393815162E+00  5.4574807386E+00
                       1.2940861989E-13  1.3319076333E-12  7.8315971012E-02
           xangst6     2.6453876475E+00  2.7183349800E+00  2.7247074008E+00
                       7.9361629424E+00  8.1550049401E+00  8.1658863681E+00
                       5.2907752949E+00  5.4366699600E+00  2.6908040611E+00
                       5.2907752950E+00  5.4366699601E+00  8.1118333084E+00
                       7.9748154796E+00  5.4366699600E+00  5.4547601599E+00
                       5.2907752950E+00  8.0348266761E+00  5.4242016749E+00
                       5.2907752950E+00  2.8385132440E+00  5.4242016748E+00
                       2.6067351103E+00  5.4366699601E+00  5.4547601600E+00
                       1.2934943487E-13  1.3312365072E-12  7.8276930149E-02
           xangst7     2.6440682521E+00  2.7169792020E+00  2.7233484445E+00
                       7.9322047564E+00  8.1509376059E+00  8.1618136068E+00
                       5.2881365043E+00  5.4339584039E+00  2.6894620142E+00
                       5.2881365043E+00  5.4339584040E+00  8.1077875062E+00
                       7.9708380155E+00  5.4339584039E+00  5.4520395812E+00
                       5.2881365043E+00  8.0308192813E+00  5.4214963374E+00
                       5.2881365043E+00  2.8370975266E+00  5.4214963373E+00
                       2.6054349931E+00  5.4339584040E+00  5.4520395813E+00
                       1.2927739646E-13  1.3305821560E-12  7.8237889286E-02
           xangst8     2.6427488568E+00  2.7156234239E+00  2.7219894882E+00
                       7.9282465704E+00  8.1468702718E+00  8.1577408455E+00
                       5.2854977136E+00  5.4312468478E+00  2.6881199673E+00
                       5.2854977136E+00  5.4312468479E+00  8.1037417041E+00
                       7.9668605514E+00  5.4312468478E+00  5.4493190026E+00
                       5.2854977136E+00  8.0268118864E+00  5.4187909999E+00
                       5.2854977136E+00  2.8356818093E+00  5.4187909998E+00
                       2.6041348758E+00  5.4312468479E+00  5.4493190027E+00
                       1.2921545665E-13  1.3299084016E-12  7.8198848423E-02
           xangst9     2.6414294615E+00  2.7142676459E+00  2.7206305319E+00
                       7.9242883844E+00  8.1428029377E+00  8.1536680843E+00
                       5.2828589229E+00  5.4285352917E+00  2.6867779204E+00
                       5.2828589229E+00  5.4285352918E+00  8.0996959019E+00
                       7.9628830873E+00  5.4285352917E+00  5.4465984240E+00
                       5.2828589229E+00  8.0228044916E+00  5.4160856624E+00
                       5.2828589229E+00  2.8342660920E+00  5.4160856624E+00
                       2.6028347586E+00  5.4285352918E+00  5.4465984241E+00
                       1.2914893469E-13  1.3292446263E-12  7.8159807560E-02
           xangst10    2.6401100661E+00  2.7129118678E+00  2.7192715756E+00
                       7.9203301984E+00  8.1387356035E+00  8.1495953230E+00
                       5.2802201323E+00  5.4258237356E+00  2.6854358735E+00
                       5.2802201323E+00  5.4258237357E+00  8.0956500998E+00
                       7.9589056233E+00  5.4258237356E+00  5.4438778453E+00
                       5.2802201323E+00  8.0187970967E+00  5.4133803250E+00
                       5.2802201323E+00  2.8328503747E+00  5.4133803249E+00
                       2.6015346413E+00  5.4258237357E+00  5.4438778454E+00
                       1.2909434098E-13  1.3285855619E-12  7.8120766697E-02
            xcart1     5.0115246483E+00  5.1497188957E+00  5.1617910561E+00
                       1.5034573945E+01  1.5449156687E+01  1.5469770885E+01
                       1.0023049297E+01  1.0299437791E+01  5.0975632584E+00
                       1.0023049297E+01  1.0299437791E+01  1.5367370679E+01
                       1.5107798806E+01  1.0299437791E+01  1.0333708565E+01
                       1.0023049297E+01  1.5221486337E+01  1.0275817390E+01
                       1.0023049297E+01  5.3773892458E+00  1.0275817390E+01
                       4.9382997873E+00  1.0299437791E+01  1.0333708566E+01
                       2.4504688726E-13  2.5219413062E-12  1.4829084320E-01
            xcart2     5.0090313524E+00  5.1471568465E+00  5.1592230009E+00
                       1.5027094057E+01  1.5441470540E+01  1.5462074482E+01
                       1.0018062705E+01  1.0294313693E+01  5.0950271573E+00
                       1.0018062705E+01  1.0294313693E+01  1.5359725221E+01
                       1.5100282488E+01  1.0294313693E+01  1.0328567417E+01
                       1.0018062705E+01  1.5213913458E+01  1.0270705043E+01
                       1.0018062705E+01  5.3747139278E+00  1.0270705043E+01
                       4.9358429218E+00  1.0294313693E+01  1.0328567417E+01
                       2.4489689823E-13  2.5206909061E-12  1.4821706666E-01
            xcart3     5.0065380566E+00  5.1445947973E+00  5.1566549456E+00
                       1.5019614170E+01  1.5433784392E+01  1.5454378078E+01
                       1.0013076113E+01  1.0289189595E+01  5.0924910561E+00
                       1.0013076113E+01  1.0289189595E+01  1.5352079763E+01
                       1.5092766170E+01  1.0289189595E+01  1.0323426268E+01
                       1.0013076113E+01  1.5206340579E+01  1.0265592696E+01
                       1.0013076113E+01  5.3720386098E+00  1.0265592696E+01
                       4.9333860562E+00  1.0289189595E+01  1.0323426269E+01
                       2.4481628948E-13  2.5194543748E-12  1.4814329012E-01
            xcart4     5.0040447607E+00  5.1420327481E+00  5.1540868903E+00
                       1.5012134282E+01  1.5426098244E+01  1.5446681675E+01
                       1.0008089521E+01  1.0284065496E+01  5.0899549550E+00
                       1.0008089521E+01  1.0284065496E+01  1.5344434305E+01
                       1.5085249852E+01  1.0284065496E+01  1.0318285120E+01
                       1.0008089521E+01  1.5198767701E+01  1.0260480349E+01
                       1.0008089521E+01  5.3693632917E+00  1.0260480349E+01
                       4.9309291907E+00  1.0284065496E+01  1.0318285120E+01
                       2.4467667746E-13  2.5181861169E-12  1.4806951358E-01
            xcart5     5.0015514649E+00  5.1394706989E+00  5.1515188351E+00
                       1.5004654395E+01  1.5418412097E+01  1.5438985271E+01
                       1.0003102930E+01  1.0278941398E+01  5.0874188539E+00
                       1.0003102930E+01  1.0278941398E+01  1.5336788847E+01
                       1.5077733534E+01  1.0278941398E+01  1.0313143971E+01
                       1.0003102930E+01  1.5191194822E+01  1.0255368002E+01
                       1.0003102930E+01  5.3666879737E+00  1.0255368002E+01
                       4.9284723251E+00  1.0278941398E+01  1.0313143971E+01
                       2.4454685083E-13  2.5169406612E-12  1.4799573704E-01
            xcart6     4.9990581691E+00  5.1369086497E+00  5.1489507798E+00
                       1.4997174507E+01  1.5410725949E+01  1.5431288868E+01
                       9.9981163381E+00  1.0273817299E+01  5.0848827528E+00
                       9.9981163381E+00  1.0273817299E+01  1.5329143388E+01
                       1.5070217217E+01  1.0273817299E+01  1.0308002823E+01
                       9.9981163381E+00  1.5183621943E+01  1.0250255655E+01
                       9.9981163381E+00  5.3640126557E+00  1.0250255655E+01
                       4.9260154595E+00  1.0273817299E+01  1.0308002823E+01
                       2.4443500735E-13  2.5156724166E-12  1.4792196050E-01
            xcart7     4.9965648732E+00  5.1343466005E+00  5.1463827246E+00
                       1.4989694620E+01  1.5403039801E+01  1.5423592465E+01
                       9.9931297464E+00  1.0268693201E+01  5.0823466516E+00
                       9.9931297464E+00  1.0268693201E+01  1.5321497930E+01
                       1.5062700899E+01  1.0268693201E+01  1.0302861674E+01
                       9.9931297464E+00  1.5176049064E+01  1.0245143308E+01
                       9.9931297464E+00  5.3613373376E+00  1.0245143308E+01
                       4.9235585940E+00  1.0268693201E+01  1.0302861674E+01
                       2.4429887448E-13  2.5144358721E-12  1.4784818397E-01
            xcart8     4.9940715774E+00  5.1317845513E+00  5.1438146693E+00
                       1.4982214732E+01  1.5395353654E+01  1.5415896061E+01
                       9.9881431547E+00  1.0263569102E+01  5.0798105505E+00
                       9.9881431547E+00  1.0263569103E+01  1.5313852472E+01
                       1.5055184581E+01  1.0263569102E+01  1.0297720526E+01
                       9.9881431547E+00  1.5168476186E+01  1.0240030961E+01
                       9.9881431547E+00  5.3586620196E+00  1.0240030961E+01
                       4.9211017284E+00  1.0263569103E+01  1.0297720526E+01
                       2.4418182521E-13  2.5131626608E-12  1.4777440743E-01
            xcart9     4.9915782815E+00  5.1292225021E+00  5.1412466141E+00
                       1.4974734845E+01  1.5387667506E+01  1.5408199658E+01
                       9.9831565630E+00  1.0258445004E+01  5.0772744494E+00
                       9.9831565630E+00  1.0258445004E+01  1.5306207014E+01
                       1.5047668263E+01  1.0258445004E+01  1.0292579377E+01
                       9.9831565630E+00  1.5160903307E+01  1.0234918614E+01
                       9.9831565630E+00  5.3559867016E+00  1.0234918614E+01
                       4.9186448628E+00  1.0258445004E+01  1.0292579377E+01
                       2.4405611692E-13  2.5119083074E-12  1.4770063089E-01
            xcart10    4.9890849857E+00  5.1266604529E+00  5.1386785588E+00
                       1.4967254957E+01  1.5379981359E+01  1.5400503254E+01
                       9.9781699713E+00  1.0253320906E+01  5.0747383483E+00
                       9.9781699714E+00  1.0253320906E+01  1.5298561556E+01
                       1.5040151945E+01  1.0253320906E+01  1.0287438229E+01
                       9.9781699713E+00  1.5153330428E+01  1.0229806267E+01
                       9.9781699713E+00  5.3533113835E+00  1.0229806267E+01
                       4.9161879973E+00  1.0253320906E+01  1.0287438229E+01
                       2.4395294976E-13  2.5106628561E-12  1.4762685435E-01
             xred      2.5037840303E-01  2.5037840303E-01  2.4962159697E-01
                       7.5037840303E-01  7.5037840303E-01  7.4962159697E-01
                       2.4726296243E-01  2.4726296243E-01  7.5273703757E-01
                       7.4541136739E-01  7.4541136739E-01  2.5458863261E-01
                       2.4759517737E-01  7.5490082446E-01  7.5240482263E-01
                       7.3738736317E-01  2.5949248723E-01  7.4050751277E-01
                       2.5949248723E-01  7.3738736317E-01  2.6261263683E-01
                       7.5490082446E-01  2.4759517737E-01  2.4509917554E-01
                       7.1930119024E-03  7.1930119024E-03 -7.1930119024E-03
            znucl       55.00000   53.00000   40.00000   35.00000

================================================================================

 chkinp: Checking input parameters for consistency, jdtset=   1.

 chkinp: Checking input parameters for consistency, jdtset=   2.

 chkinp: Checking input parameters for consistency, jdtset=   3.

 chkinp: Checking input parameters for consistency, jdtset=   4.

 chkinp: Checking input parameters for consistency, jdtset=   5.

 chkinp: Checking input parameters for consistency, jdtset=   6.

 chkinp: Checking input parameters for consistency, jdtset=   7.

 chkinp: Checking input parameters for consistency, jdtset=   8.

 chkinp: Checking input parameters for consistency, jdtset=   9.

 chkinp: Checking input parameters for consistency, jdtset=  10.

================================================================================
== DATASET  1 ==================================================================
-   mpi_nproc: 6, omp_nthreads: -1 (-1 if OMP is not activated)


--- !DatasetInfo
iteration_state: {dtset: 1, }
dimensions: {natom: 9, nkpt: 32, mband: 42, nsppol: 1, nspinor: 1, nspden: 1, mpw: 9920, }
cutoff_energies: {ecut:  16.0, pawecutdg:  40.0, }
electrons: {nelect:   7.20000000E+01, charge:   0.00000000E+00, occopt:   1.00000000E+00, tsmear:   1.00000000E-02, }
meta: {optdriver: 0, ionmov: 2, optcell: 3, iscf: 17, paral_kgb: 0, }
...

 Real(R)+Recip(G) space primitive vectors, cartesian coordinates (Bohr,Bohr^-1):
 R(1)=  0.0000000 10.2994378 10.3079798  G(1)= -0.0498850  0.0485463  0.0485061
 R(2)= 10.0230493  0.0000000 10.3079798  G(2)=  0.0498850 -0.0485463  0.0485061
 R(3)= 10.0230493 10.2994378  0.0000000  G(3)=  0.0498850  0.0485463 -0.0485061
 Unit cell volume ucvol=  2.1282221E+03 bohr^3
 Angles (23,13,12)=  6.09091889E+01  5.95661593E+01  5.95246517E+01 degrees

 Coarse grid specifications (used for wave-functions):

 getcut: wavevector=  0.0000  0.0000  0.0000  ngfft=  64  64  64
         ecut(hartree)=     21.160   => boxcut(ratio)=   2.12104

 Fine grid specifications (used for densities):

 getcut: wavevector=  0.0000  0.0000  0.0000  ngfft=  96  96  96
         ecut(hartree)=     52.900   => boxcut(ratio)=   2.01219

--- Pseudopotential description ------------------------------------------------
- pspini: atom type   1  psp file is ../../../Psps_for_tests/ATOMICDATA/Cs.GGA_PBE-JTH.xml
- pspatm: opening atomic psp file    ../../../Psps_for_tests/ATOMICDATA/Cs.GGA_PBE-JTH.xml
- pspatm : Reading pseudopotential header in XML form from ../../../Psps_for_tests/ATOMICDATA/Cs.GGA_PBE-JTH.xml
 Pseudopotential format is: paw10
 basis_size (lnmax)=  6 (lmn_size= 18), orbitals=   0   0   1   1   2   2
 Spheres core radius: rc_sph= 2.20660278
 1 radial meshes are used:
  - mesh 1: r(i)=AA*[exp(BB*(i-1))-1], size=1500 , AA= 0.15922E-03 BB= 0.87573E-02
 Shapefunction is SIN type: shapef(r)=[sin(pi*r/rshp)/(pi*r/rshp)]**2
 Radius for shape functions =  2.00394208
 mmax= 1500
 Radial grid used for partial waves is grid 1
 Radial grid used for projectors is grid 1
 Radial grid used for (t)core density is grid 1
 Radial grid used for Vloc is grid 1
 Radial grid used for pseudo valence density is grid 1
 Mesh size for Vloc has been set to 1341 to avoid numerical noise.
 Compensation charge density is not taken into account in XC energy/potential
 pspatm: atomic psp has been read  and splines computed

- pspini: atom type   2  psp file is ../../../Psps_for_tests/ATOMICDATA/I.GGA_PBE-JTH.xml
- pspatm: opening atomic psp file    ../../../Psps_for_tests/ATOMICDATA/I.GGA_PBE-JTH.xml
- pspatm : Reading pseudopotential header in XML form from ../../../Psps_for_tests/ATOMICDATA/I.GGA_PBE-JTH.xml
 Pseudopotential format is: paw10
 basis_size (lnmax)=  4 (lmn_size=  8), orbitals=   0   0   1   1
 Spheres core radius: rc_sph= 2.30022271
 1 radial meshes are used:
  - mesh 1: r(i)=AA*[exp(BB*(i-1))-1], size=2000 , AA= 0.12610E-03 BB= 0.66836E-02
 Shapefunction is SIN type: shapef(r)=[sin(pi*r/rshp)/(pi*r/rshp)]**2
 Radius for shape functions =  2.10879093
 mmax= 2000
 Radial grid used for partial waves is grid 1
 Radial grid used for projectors is grid 1
 Radial grid used for (t)core density is grid 1
 Radial grid used for Vloc is grid 1
 Radial grid used for pseudo valence density is grid 1
 Mesh size for Vloc has been set to 1792 to avoid numerical noise.
 Compensation charge density is not taken into account in XC energy/potential
 pspatm: atomic psp has been read  and splines computed

- pspini: atom type   3  psp file is ../../../Psps_for_tests/ATOMICDATA/Zr.GGA_PBE-JTH.xml
- pspatm: opening atomic psp file    ../../../Psps_for_tests/ATOMICDATA/Zr.GGA_PBE-JTH.xml
- pspatm : Reading pseudopotential header in XML form from ../../../Psps_for_tests/ATOMICDATA/Zr.GGA_PBE-JTH.xml
 Pseudopotential format is: paw10
 basis_size (lnmax)=  6 (lmn_size= 18), orbitals=   0   0   1   1   2   2
 Spheres core radius: rc_sph= 2.21000000
 1 radial meshes are used:
  - mesh 1: r(i)=AA*[exp(BB*(i-1))-1], size= 941 , AA= 0.35256E-03 BB= 0.14102E-01
 Shapefunction is BESSEL type: shapef(r,l)=aa(1,l)*jl(q(1,l)*r)+aa(2,l)*jl(q(2,l)*r)
 Radius for shape functions =  2.21000000
 mmax=  941
 Radial grid used for partial waves is grid 1
 Radial grid used for projectors is grid 1
 Radial grid used for (t)core density is grid 1
 Radial grid used for Vloc is grid 1
 Radial grid used for pseudo valence density is grid 1
 Mesh size for Vloc has been set to  777 to avoid numerical noise.
 Compensation charge density is not taken into account in XC energy/potential
 pspatm: atomic psp has been read  and splines computed

- pspini: atom type   4  psp file is ../../../Psps_for_tests/ATOMICDATA/Br.GGA_PBE-JTH.xml
- pspatm: opening atomic psp file    ../../../Psps_for_tests/ATOMICDATA/Br.GGA_PBE-JTH.xml
- pspatm : Reading pseudopotential header in XML form from ../../../Psps_for_tests/ATOMICDATA/Br.GGA_PBE-JTH.xml
 Pseudopotential format is: paw10
 basis_size (lnmax)=  4 (lmn_size=  8), orbitals=   0   0   1   1
 Spheres core radius: rc_sph= 2.20000000
 1 radial meshes are used:
  - mesh 1: r(i)=AA*[exp(BB*(i-1))-1], size= 927 , AA= 0.40483E-03 BB= 0.14169E-01
 Shapefunction is BESSEL type: shapef(r,l)=aa(1,l)*jl(q(1,l)*r)+aa(2,l)*jl(q(2,l)*r)
 Radius for shape functions =  2.02066386
 mmax=  927
 Radial grid used for partial waves is grid 1
 Radial grid used for projectors is grid 1
 Radial grid used for (t)core density is grid 1
 Radial grid used for Vloc is grid 1
 Radial grid used for pseudo valence density is grid 1
 Mesh size for Vloc has been set to  763 to avoid numerical noise.
 Compensation charge density is not taken into account in XC energy/potential
 pspatm: atomic psp has been read  and splines computed

   3.31466423E+04                                ecore*ucvol(ha*bohr**3)
--------------------------------------------------------------------------------

_setup2: Arith. and geom. avg. npw (full set) are    9894.188    9894.178

================================================================================

=== [ionmov= 2] Broyden-Fletcher-Goldfard-Shanno method (forces)            
================================================================================

--- Iteration: (   1/1000) Internal Cycle: (1/1)
--------------------------------------------------------------------------------

---SELF-CONSISTENT-FIELD CONVERGENCE--------------------------------------------

--- !BeginCycle
iteration_state: {dtset: 1, itime: 1, icycle: 1, }
solver: {iscf: 17, nstep: 2500, nline: 4, wfoptalg: 10, }
tolerances: {toldff: 1.00E-08, }
...

     iter   Etot(hartree)      deltaE(h)  residm     nres2    diffor    maxfor
 ETOT  1  -164.47795343803    -1.645E+02 2.024E-01 2.287E+01 6.394E-02 6.394E-02
 ETOT  2  -164.67921846147    -2.013E-01 1.190E-02 6.092E+00 1.521E-01 8.973E-02
 ETOT  3  -164.67506550049     4.153E-03 1.693E-03 1.252E+00 7.451E-02 1.522E-02
 ETOT  4  -164.67580448975    -7.390E-04 1.155E-03 1.018E-01 1.121E-02 2.634E-02
 ETOT  5  -164.67538356620     4.209E-04 7.126E-04 7.391E-03 2.221E-02 4.230E-03
 ETOT  6  -164.67543326340    -4.970E-05 6.931E-04 1.085E-03 1.978E-03 2.368E-03
 ETOT  7  -164.67543205960     1.204E-06 4.725E-04 2.609E-04 3.920E-04 2.673E-03
 ETOT  8  -164.67543329668    -1.237E-06 3.335E-04 4.337E-05 5.591E-04 2.254E-03
 ETOT  9  -164.67543335100    -5.432E-08 2.031E-04 1.680E-05 1.793E-04 2.348E-03
 ETOT 10  -164.67543341264    -6.163E-08 1.850E-04 1.992E-06 4.993E-05 2.302E-03
 ETOT 11  -164.67543342659    -1.396E-08 1.369E-04 2.069E-06 3.480E-05 2.321E-03
 ETOT 12  -164.67543342344     3.152E-09 1.207E-04 6.364E-07 1.373E-05 2.312E-03
 ETOT 13  -164.67543342297     4.765E-10 7.785E-05 3.801E-08 7.079E-06 2.318E-03
 ETOT 14  -164.67543342326    -2.912E-10 6.473E-05 1.417E-08 3.957E-06 2.321E-03
 ETOT 15  -164.67543342329    -2.873E-11 3.982E-05 1.402E-09 2.540E-06 2.320E-03
 ETOT 16  -164.67543342326     2.780E-11 3.122E-05 1.732E-10 2.269E-07 2.320E-03
 ETOT 17  -164.67543342326    -4.349E-12 2.589E-05 5.152E-11 4.938E-07 2.319E-03
 ETOT 18  -164.67543342327    -5.372E-12 1.430E-05 3.846E-11 1.496E-07 2.319E-03
 ETOT 19  -164.67543342326     2.927E-12 1.948E-05 1.677E-11 7.025E-08 2.319E-03
 ETOT 20  -164.67543342326    -7.390E-13 9.689E-06 4.779E-13 2.750E-08 2.319E-03
 ETOT 21  -164.67543342327    -1.194E-12 1.421E-05 2.087E-13 2.398E-08 2.319E-03
 ETOT 22  -164.67543342326     1.478E-12 6.957E-06 1.402E-13 5.403E-09 2.319E-03
 ETOT 23  -164.67543342326     6.025E-12 1.013E-05 7.648E-15 6.319E-09 2.319E-03

 At SCF step   23, forces are converged : 
  for the second time, max diff in force=  6.319E-09 < toldff=  1.000E-08

 Cartesian components of stress tensor (hartree/bohr^3)
  sigma(1 1)= -1.18358801E-04  sigma(3 2)= -2.49152346E-13
  sigma(2 2)= -1.19631744E-04  sigma(3 1)=  1.18324975E-13
  sigma(3 3)= -1.19022102E-04  sigma(2 1)=  1.37812668E-13


--- !ResultsGS
iteration_state: {dtset: 1, itime: 1, icycle: 1, }
comment   : Summary of ground state results
lattice_vectors:
- [  0.0000000,  10.2994378,  10.3079798, ]
- [ 10.0230493,   0.0000000,  10.3079798, ]
- [ 10.0230493,  10.2994378,   0.0000000, ]
lattice_lengths: [  14.57165,   14.37762,   14.37150, ]
lattice_angles: [ 60.909,  59.566,  59.525, ] # degrees, (23, 13, 12)
lattice_volume:   2.1282221E+03
convergence: {deltae:  6.025E-12, res2:  7.648E-15, residm:  1.013E-05, diffor:  6.319E-09, }
etotal    :  -1.64675433E+02
entropy   :   0.00000000E+00
fermie    :  -3.62800456E-02
cartesian_stress_tensor: # hartree/bohr^3
- [ -1.18358801E-04,   1.37812668E-13,   1.18324975E-13, ]
- [  1.37812668E-13,  -1.19631744E-04,  -2.49152346E-13, ]
- [  1.18324975E-13,  -2.49152346E-13,  -1.19022102E-04, ]
pressure_GPa:   3.5012E+00
xred      :
- [  2.5038E-01,   2.5038E-01,   2.4962E-01, Cs]
- [  7.5038E-01,   7.5038E-01,   7.4962E-01, Cs]
- [  2.4726E-01,   2.4726E-01,   7.5274E-01, Br]
- [  7.4541E-01,   7.4541E-01,   2.5459E-01,  I]
- [  2.4760E-01,   7.5490E-01,   7.5240E-01, Br]
- [  7.3739E-01,   2.5949E-01,   7.4051E-01,  I]
- [  2.5949E-01,   7.3739E-01,   2.6261E-01,  I]
- [  7.5490E-01,   2.4760E-01,   2.4510E-01, Br]
- [  7.1930E-03,   7.1930E-03,  -7.1930E-03, Zr]
cartesian_forces: # hartree/bohr
- [  2.15017429E-16,  -2.09287747E-16,   1.18899875E-05, ]
- [  2.15018791E-16,  -2.09289410E-16,   1.18899875E-05, ]
- [ -4.18847770E-14,   4.07604398E-14,  -2.31556804E-03, ]
- [  3.32558221E-14,  -3.23633309E-14,   1.83852927E-03, ]
- [  2.31944028E-03,   2.32967127E-15,   8.55596417E-05, ]
- [  3.48728196E-14,   1.89065269E-03,   9.97728438E-05, ]
- [ -3.12635283E-14,  -1.89065269E-03,   9.97728439E-05, ]
- [ -2.31944028E-03,  -5.34220995E-15,   8.55596417E-05, ]
- [  1.49392664E-15,  -1.45387525E-15,   8.25938325E-05, ]
force_length_stats: {min:   1.18899875E-05, max:   2.32101781E-03, mean:   1.40989707E-03, }
...

 Integrated electronic density in atomic spheres:
 ------------------------------------------------
 Atom  Sphere_radius  Integrated_density
    1        2.20660          5.36702953
    2        2.20660          5.36702953
    3        2.20000          4.93678103
    4        2.30022          4.03722260
    5        2.20000          4.94268166
    6        2.30022          4.03495736
    7        2.30022          4.03495736
    8        2.20000          4.94268166
    9        2.21000          8.85159387

 PAW TEST:
 ==== Compensation charge inside spheres ============
 The following values must be close to each other ...
 Compensation charge over spherical meshes =     -5.050507538459214
 Compensation charge over fine fft grid    =     -5.050506890527708

 ==== Results concerning PAW augmentation regions ====

 Total pseudopotential strength Dij (hartree):
 Atom #  1
   0.42622  -0.14122   0.00000  -0.00000   0.00000   0.00000   0.00000   0.00000   0.00000   0.00000  -0.00000   0.00000 ...
  -0.14122   0.04245   0.00000   0.00000   0.00000   0.00000  -0.00000   0.00000  -0.00000   0.00000   0.00000   0.00000 ...
   0.00000   0.00000  -0.09183   0.00000  -0.00000  -0.16762   0.00000  -0.00000   0.00000  -0.00000   0.00000  -0.00000 ...
  -0.00000   0.00000   0.00000  -0.09183   0.00000   0.00000  -0.16762   0.00000  -0.00000   0.00000  -0.00000   0.00000 ...
   0.00000   0.00000  -0.00000   0.00000  -0.09183  -0.00000   0.00000  -0.16762   0.00000  -0.00000   0.00000  -0.00000 ...
   0.00000   0.00000  -0.16762   0.00000  -0.00000   0.39980   0.00000   0.00001   0.00000   0.00000   0.00000   0.00000 ...
   0.00000  -0.00000   0.00000  -0.16762   0.00000   0.00000   0.39980   0.00000   0.00000   0.00000   0.00000   0.00000 ...
   0.00000   0.00000  -0.00000   0.00000  -0.16762   0.00001   0.00000   0.39980   0.00000   0.00000   0.00000   0.00000 ...
   0.00000  -0.00000   0.00000  -0.00000   0.00000   0.00000   0.00000   0.00000   0.00547   0.00000  -0.00000   0.00000 ...
   0.00000   0.00000  -0.00000   0.00000  -0.00000   0.00000   0.00000   0.00000   0.00000   0.00547   0.00000   0.00000 ...
  -0.00000   0.00000   0.00000  -0.00000   0.00000   0.00000   0.00000   0.00000  -0.00000   0.00000   0.00547   0.00000 ...
   0.00000   0.00000  -0.00000   0.00000  -0.00000   0.00000   0.00000   0.00000   0.00000   0.00000   0.00000   0.00547 ...
   ...  only 12  components have been written...
 Atom #  9
   3.06555  -0.89265   0.00000  -0.00003   0.00000   0.00000   0.00000   0.00000   0.00000   0.00000  -0.00001   0.00000 ...
  -0.89265   0.26669   0.00000   0.00001   0.00000   0.00000  -0.00000   0.00000   0.00000   0.00000   0.00000   0.00000 ...
   0.00000   0.00000   0.27233   0.00000   0.00000  -0.05552   0.00000   0.00000   0.00000   0.00005   0.00000   0.00000 ...
  -0.00003   0.00001   0.00000   0.27236   0.00000   0.00000  -0.05552   0.00000   0.00000   0.00000   0.00007   0.00000 ...
   0.00000   0.00000   0.00000   0.00000   0.27241   0.00000   0.00000  -0.05553   0.00000   0.00000   0.00000   0.00005 ...
   0.00000   0.00000  -0.05552   0.00000   0.00000   0.01518   0.00000   0.00000   0.00000  -0.00001   0.00000   0.00000 ...
   0.00000  -0.00000   0.00000  -0.05552   0.00000   0.00000   0.01518   0.00000   0.00000   0.00000  -0.00001   0.00000 ...
   0.00000   0.00000   0.00000   0.00000  -0.05553   0.00000   0.00000   0.01518   0.00000   0.00000   0.00000  -0.00001 ...
   0.00000   0.00000   0.00000   0.00000   0.00000   0.00000   0.00000   0.00000  -0.01030   0.00000   0.00000   0.00000 ...
   0.00000   0.00000   0.00005   0.00000   0.00000  -0.00001   0.00000   0.00000   0.00000  -0.01032   0.00000   0.00000 ...
  -0.00001   0.00000   0.00000   0.00007   0.00000   0.00000  -0.00001   0.00000   0.00000   0.00000  -0.01023   0.00000 ...
   0.00000   0.00000   0.00000   0.00000   0.00005   0.00000   0.00000  -0.00001   0.00000   0.00000   0.00000  -0.01030 ...
   ...  only 12  components have been written...


 Augmentation waves occupancies Rhoij:
 Atom #  1
   1.99854  -0.01271   0.00000  -0.00002   0.00000   0.00000  -0.00001   0.00000   0.00242   0.00000  -0.00022   0.00000 ...
  -0.01271   0.20719   0.00000  -0.00074   0.00000   0.00000   0.00003   0.00000  -0.01987   0.00000   0.00003   0.00000 ...
   0.00000   0.00000   2.00661   0.00000  -0.00159  -0.00475   0.00000   0.00027   0.00000   0.00092   0.00000  -0.00222 ...
  -0.00002  -0.00074   0.00000   2.00788   0.00000   0.00000  -0.00497   0.00000  -0.00228   0.00000  -0.00057   0.00000 ...
   0.00000   0.00000  -0.00159   0.00000   2.00838   0.00027   0.00000  -0.00512   0.00000  -0.00213   0.00000  -0.00143 ...
   0.00000   0.00000  -0.00475   0.00000   0.00027   0.00014   0.00000  -0.00002   0.00000  -0.00008   0.00000   0.00008 ...
  -0.00001   0.00003   0.00000  -0.00497   0.00000   0.00000   0.00016   0.00000   0.00008   0.00000   0.00003   0.00000 ...
   0.00000   0.00000   0.00027   0.00000  -0.00512  -0.00002   0.00000   0.00017   0.00000   0.00008   0.00000   0.00007 ...
   0.00242  -0.01987   0.00000  -0.00228   0.00000   0.00000   0.00008   0.00000   0.07787   0.00000   0.01604   0.00000 ...
   0.00000   0.00000   0.00092   0.00000  -0.00213  -0.00008   0.00000   0.00008   0.00000   0.04917   0.00000  -0.00005 ...
  -0.00022   0.00003   0.00000  -0.00057   0.00000   0.00000   0.00003   0.00000   0.01604   0.00000   0.05260   0.00000 ...
   0.00000   0.00000  -0.00222   0.00000  -0.00143   0.00008   0.00000   0.00007   0.00000  -0.00005   0.00000   0.09800 ...
   ...  only 12  components have been written...
 Atom #  9
   1.99353  -0.06248   0.00000   0.00054   0.00000   0.00000   0.00220   0.00000   0.00000   0.00000  -0.00013   0.00000 ...
  -0.06248   1.06378   0.00000  -0.00014   0.00000   0.00000   0.01066   0.00000   0.00000   0.00000  -0.00647   0.00000 ...
   0.00000   0.00000   1.96923   0.00000   0.00000  -0.18255   0.00000   0.00000   0.00000   0.00355   0.00000   0.00000 ...
   0.00054  -0.00014   0.00000   1.96864   0.00000   0.00000  -0.18764   0.00000   0.00000   0.00000   0.00092   0.00000 ...
   0.00000   0.00000   0.00000   0.00000   1.96775   0.00000   0.00000  -0.19346   0.00000   0.00000   0.00000   0.00352 ...
   0.00000   0.00000  -0.18255   0.00000   0.00000   1.53572   0.00000   0.00000   0.00000  -0.05704   0.00000   0.00000 ...
   0.00220   0.01066   0.00000  -0.18764   0.00000   0.00000   1.60921   0.00000   0.00000   0.00000   0.07420   0.00000 ...
   0.00000   0.00000   0.00000   0.00000  -0.19346   0.00000   0.00000   1.72119   0.00000   0.00000   0.00000  -0.04691 ...
   0.00000   0.00000   0.00000   0.00000   0.00000   0.00000   0.00000   0.00000   0.49888   0.00000   0.00000   0.00000 ...
   0.00000   0.00000   0.00355   0.00000   0.00000  -0.05704   0.00000   0.00000   0.00000   0.49114   0.00000   0.00000 ...
  -0.00013  -0.00647   0.00000   0.00092   0.00000   0.00000   0.07420   0.00000   0.00000   0.00000   1.41525   0.00000 ...
   0.00000   0.00000   0.00000   0.00000   0.00352   0.00000   0.00000  -0.04691   0.00000   0.00000   0.00000   0.50133 ...
   ...  only 12  components have been written...



---OUTPUT-----------------------------------------------------------------------

 Cartesian coordinates (xcart) [bohr]
  5.01152464827512E+00  5.14971889570253E+00  5.16179105610228E+00
  1.50345739448253E+01  1.54491566871073E+01  1.54697708851050E+01
  1.00230492965416E+01  1.02994377913162E+01  5.09756325837577E+00
  1.00230492965586E+01  1.02994377914908E+01  1.53673706787308E+01
  1.51077988057516E+01  1.02994377913163E+01  1.03337085654275E+01
  1.00230492965420E+01  1.52214863369794E+01  1.02758173899490E+01
  1.00230492965583E+01  5.37738924582910E+00  1.02758173897758E+01
  4.93829978734888E+00  1.02994377914942E+01  1.03337085656114E+01
  2.45046887258153E-13  2.52194130621097E-12  1.48290843199431E-01
 Reduced coordinates (xred)
  2.50378403030000E-01  2.50378403030000E-01  2.49621596970000E-01
  7.50378403030000E-01  7.50378403030000E-01  7.49621596970000E-01
  2.47262962430000E-01  2.47262962430000E-01  7.52737037570000E-01
  7.45411367390000E-01  7.45411367390000E-01  2.54588632610000E-01
  2.47595177370000E-01  7.54900824460000E-01  7.52404822630000E-01
  7.37387363170000E-01  2.59492487230000E-01  7.40507512770000E-01
  2.59492487230000E-01  7.37387363170000E-01  2.62612636830000E-01
  7.54900824460000E-01  2.47595177370000E-01  2.45099175540000E-01
  7.19301190240000E-03  7.19301190240000E-03 -7.19301190240000E-03
 Cartesian forces (fcart) [Ha/bohr]; max,rms= 2.31944E-03 9.94288E-04 (free atoms)
  2.15017429073539E-16 -2.09287747449922E-16  1.18899875389933E-05
  2.15018790681675E-16 -2.09289409567618E-16  1.18899875389933E-05
 -4.18847770246237E-14  4.07604398439865E-14 -2.31556804393562E-03
  3.32558221373524E-14 -3.23633309419145E-14  1.83852926535759E-03
  2.31944027796073E-03  2.32967126851161E-15  8.55596416849355E-05
  3.48728195809057E-14  1.89065269089550E-03  9.97728437943437E-05
 -3.12635283263189E-14 -1.89065269089901E-03  9.97728438586518E-05
 -2.31944027795764E-03 -5.34220995444034E-15  8.55596416926007E-05
  1.49392663611868E-15 -1.45387525002150E-15  8.25938324695098E-05
 Reduced forces (fred)
 -1.22561751719036E-04 -1.22561751719035E-04  4.15844109110935E-19
 -1.22561751719036E-04 -1.22561751719035E-04  4.19315521462188E-19
  2.38688286895715E-02  2.38688286895715E-02  3.57037581322489E-18
 -1.89515225823372E-02 -1.89515225823372E-02 -6.30926201564656E-19
 -8.81947060704518E-04 -2.41298113070936E-02 -2.32478642463890E-02
 -2.05011162366941E-02 -1.02845646164577E-03 -1.94726597750484E-02
  1.84442033134026E-02 -1.02845646164577E-03  1.94726597750484E-02
 -8.81947060704515E-04  2.23659171856845E-02  2.32478642463890E-02
 -8.51375559095733E-04 -8.51375559095732E-04  3.97374583184543E-19
 Scale of Primitive Cell (acell) [bohr]
  1.45716459942150E+01  1.43776202952300E+01  1.43714973478050E+01
 Real space primitive translations (rprimd) [bohr]
  0.00000000000000E+00  1.02994377915801E+01  1.03079798291840E+01
  1.00230492965672E+01  0.00000000000000E+00  1.03079798288214E+01
  1.00230492965332E+01  1.02994377912295E+01  0.00000000000000E+00
 Unitary Cell Volume (ucvol) [Bohr^3]=  2.12822206161379E+03
 Angles (23,13,12)= [degrees]
  6.09091889274999E+01  5.95661593299751E+01  5.95246517425250E+01
 Lengths [Bohr]
  1.45716459942414E+01  1.43776202951951E+01  1.43714973477415E+01
 Stress tensor in cartesian coordinates (strten) [Ha/bohr^3]
 -1.18358800517178E-04  1.37812668432237E-13  1.18324974824547E-13
  1.37812668432237E-13 -1.19631743819716E-04 -2.49152345560144E-13
  1.18324974824547E-13 -2.49152345560144E-13 -1.19022102182647E-04
 Total energy (etotal) [Ha]= -1.64675433423259E+02

--- Iteration: (   2/1000) Internal Cycle: (1/1)
--------------------------------------------------------------------------------

---SELF-CONSISTENT-FIELD CONVERGENCE--------------------------------------------

--- !BeginCycle
iteration_state: {dtset: 1, itime: 2, icycle: 1, }
solver: {iscf: 17, nstep: 2500, nline: 4, wfoptalg: 10, }
tolerances: {toldff: 1.00E-08, }
...

     iter   Etot(hartree)      deltaE(h)  residm     nres2    diffor    maxfor
 ETOT  1  -164.67551091572    -1.647E+02 5.029E-03 7.958E-03 9.794E-03 1.211E-02
 ETOT  2  -164.67546489375     4.602E-05 3.068E-05 1.980E-03 1.076E-02 1.347E-03
 ETOT  3  -164.67545873951     6.154E-06 2.787E-06 8.388E-05 1.722E-03 3.068E-03
 ETOT  4  -164.67545846085     2.787E-07 3.392E-06 1.467E-05 8.879E-04 2.181E-03
 ETOT  5  -164.67545851529    -5.444E-08 2.636E-06 6.757E-06 3.096E-05 2.150E-03
 ETOT  6  -164.67545853254    -1.725E-08 2.316E-06 9.556E-07 9.568E-05 2.054E-03
 ETOT  7  -164.67545853419    -1.651E-09 2.425E-06 2.840E-07 5.929E-06 2.060E-03
 ETOT  8  -164.67545854231    -8.123E-09 1.586E-06 2.054E-08 1.239E-05 2.047E-03
 ETOT  9  -164.67545854284    -5.343E-10 2.208E-06 1.276E-08 1.501E-06 2.048E-03
 ETOT 10  -164.67545854366    -8.206E-10 1.084E-06 1.040E-09 2.162E-06 2.046E-03
 ETOT 11  -164.67545854393    -2.681E-10 1.993E-06 4.460E-10 3.793E-07 2.047E-03
 ETOT 12  -164.67545854435    -4.134E-10 8.974E-07 9.187E-11 2.335E-07 2.047E-03
 ETOT 13  -164.67545854458    -2.339E-10 1.787E-06 1.495E-11 1.443E-07 2.047E-03
 ETOT 14  -164.67545854470    -1.214E-10 7.998E-07 5.607E-13 1.887E-08 2.047E-03
 ETOT 15  -164.67545854484    -1.419E-10 1.595E-06 9.943E-14 5.417E-09 2.047E-03
 ETOT 16  -164.67545854491    -6.850E-11 7.117E-07 5.067E-14 1.229E-09 2.047E-03

 At SCF step   16, forces are converged : 
  for the second time, max diff in force=  1.229E-09 < toldff=  1.000E-08

 Cartesian components of stress tensor (hartree/bohr^3)
  sigma(1 1)= -1.19321266E-04  sigma(3 2)= -2.49123120E-13
  sigma(2 2)= -1.20335457E-04  sigma(3 1)=  1.18313867E-13
  sigma(3 3)= -1.19843592E-04  sigma(2 1)=  1.37801003E-13


--- !ResultsGS
iteration_state: {dtset: 1, itime: 2, icycle: 1, }
comment   : Summary of ground state results
lattice_vectors:
- [  0.0000000,  10.2996317,  10.3079854, ]
- [ 10.0228552,   0.0000000,  10.3079854, ]
- [ 10.0228552,  10.2996317,   0.0000000, ]
lattice_lengths: [  14.57179,   14.37749,   14.37150, ]
lattice_angles: [ 60.910,  59.565,  59.525, ] # degrees, (23, 13, 12)
lattice_volume:   2.1282221E+03
convergence: {deltae: -6.850E-11, res2:  5.067E-14, residm:  7.117E-07, diffor:  1.229E-09, }
etotal    :  -1.64675459E+02
entropy   :   0.00000000E+00
fermie    :  -3.62966395E-02
cartesian_stress_tensor: # hartree/bohr^3
- [ -1.19321266E-04,   1.37801003E-13,   1.18313867E-13, ]
- [  1.37801003E-13,  -1.20335457E-04,  -2.49123120E-13, ]
- [  1.18313867E-13,  -2.49123120E-13,  -1.19843592E-04, ]
pressure_GPa:   3.5256E+00
xred      :
- [  2.5038E-01,   2.5038E-01,   2.4962E-01, Cs]
- [  7.5038E-01,   7.5038E-01,   7.4962E-01, Cs]
- [  2.4715E-01,   2.4715E-01,   7.5285E-01, Br]
- [  7.4550E-01,   7.4550E-01,   2.5450E-01,  I]
- [  2.4748E-01,   7.5502E-01,   7.5252E-01, Br]
- [  7.3748E-01,   2.5941E-01,   7.4059E-01,  I]
- [  2.5941E-01,   7.3748E-01,   2.6252E-01,  I]
- [  7.5502E-01,   2.4748E-01,   2.4498E-01, Br]
- [  7.1970E-03,   7.1970E-03,  -7.1970E-03, Zr]
cartesian_forces: # hartree/bohr
- [  2.12889401E-16,  -2.07184061E-16,   1.17715236E-05, ]
- [  2.12889257E-16,  -2.07184201E-16,   1.17715236E-05, ]
- [ -3.70207990E-14,   3.60261519E-14,  -2.04662797E-03, ]
- [  2.90526324E-14,  -2.82720438E-14,   1.60612072E-03, ]
- [  2.03348438E-03,   1.90889100E-15,   8.25960164E-05, ]
- [  3.08724486E-14,   1.66282803E-03,   9.88994873E-05, ]
- [ -2.72948114E-14,  -1.66282803E-03,   9.88994873E-05, ]
- [ -2.03348438E-03,  -4.81700818E-15,   8.25960164E-05, ]
- [  9.76268224E-16,  -9.50051485E-16,   5.39731889E-05, ]
force_length_stats: {min:   1.17715236E-05, max:   2.04662797E-03, mean:   1.23690225E-03, }
...

 Integrated electronic density in atomic spheres:
 ------------------------------------------------
 Atom  Sphere_radius  Integrated_density
    1        2.20660          5.36702717
    2        2.20660          5.36702717
    3        2.20000          4.93675608
    4        2.30022          4.03788872
    5        2.20000          4.94197127
    6        2.30022          4.03513569
    7        2.30022          4.03513569
    8        2.20000          4.94197127
    9        2.21000          8.85255465

 PAW TEST:
 ==== Compensation charge inside spheres ============
 The following values must be close to each other ...
 Compensation charge over spherical meshes =     -5.050420425992446
 Compensation charge over fine fft grid    =     -5.050419778911517

 ==== Results concerning PAW augmentation regions ====

 Total pseudopotential strength Dij (hartree):
 Atom #  1
   0.42622  -0.14122   0.00000  -0.00000   0.00000   0.00000   0.00000   0.00000   0.00000   0.00000  -0.00000   0.00000 ...
  -0.14122   0.04245   0.00000   0.00000   0.00000   0.00000  -0.00000   0.00000  -0.00000   0.00000   0.00000   0.00000 ...
   0.00000   0.00000  -0.09183   0.00000  -0.00000  -0.16762   0.00000  -0.00000   0.00000  -0.00000   0.00000  -0.00000 ...
  -0.00000   0.00000   0.00000  -0.09184   0.00000   0.00000  -0.16762   0.00000  -0.00000   0.00000  -0.00000   0.00000 ...
   0.00000   0.00000  -0.00000   0.00000  -0.09184  -0.00000   0.00000  -0.16762   0.00000  -0.00000   0.00000  -0.00000 ...
   0.00000   0.00000  -0.16762   0.00000  -0.00000   0.39980   0.00000   0.00001   0.00000   0.00000   0.00000   0.00000 ...
   0.00000  -0.00000   0.00000  -0.16762   0.00000   0.00000   0.39980   0.00000   0.00000   0.00000   0.00000   0.00000 ...
   0.00000   0.00000  -0.00000   0.00000  -0.16762   0.00001   0.00000   0.39980   0.00000   0.00000   0.00000   0.00000 ...
   0.00000  -0.00000   0.00000  -0.00000   0.00000   0.00000   0.00000   0.00000   0.00547   0.00000  -0.00000   0.00000 ...
   0.00000   0.00000  -0.00000   0.00000  -0.00000   0.00000   0.00000   0.00000   0.00000   0.00547   0.00000   0.00000 ...
  -0.00000   0.00000   0.00000  -0.00000   0.00000   0.00000   0.00000   0.00000  -0.00000   0.00000   0.00547   0.00000 ...
   0.00000   0.00000  -0.00000   0.00000  -0.00000   0.00000   0.00000   0.00000   0.00000   0.00000   0.00000   0.00547 ...
   ...  only 12  components have been written...
 Atom #  9
   3.06546  -0.89262   0.00000  -0.00003   0.00000   0.00000   0.00000   0.00000   0.00000   0.00000  -0.00001   0.00000 ...
  -0.89262   0.26669   0.00000   0.00001   0.00000   0.00000  -0.00000   0.00000   0.00000   0.00000   0.00000   0.00000 ...
   0.00000   0.00000   0.27235   0.00000   0.00000  -0.05552   0.00000   0.00000   0.00000   0.00005   0.00000   0.00000 ...
  -0.00003   0.00001   0.00000   0.27239   0.00000   0.00000  -0.05553   0.00000   0.00000   0.00000   0.00006   0.00000 ...
   0.00000   0.00000   0.00000   0.00000   0.27243   0.00000   0.00000  -0.05553   0.00000   0.00000   0.00000   0.00005 ...
   0.00000   0.00000  -0.05552   0.00000   0.00000   0.01518   0.00000   0.00000   0.00000  -0.00001   0.00000   0.00000 ...
   0.00000  -0.00000   0.00000  -0.05553   0.00000   0.00000   0.01518   0.00000   0.00000   0.00000  -0.00001   0.00000 ...
   0.00000   0.00000   0.00000   0.00000  -0.05553   0.00000   0.00000   0.01519   0.00000   0.00000   0.00000  -0.00001 ...
   0.00000   0.00000   0.00000   0.00000   0.00000   0.00000   0.00000   0.00000  -0.01028   0.00000   0.00000   0.00000 ...
   0.00000   0.00000   0.00005   0.00000   0.00000  -0.00001   0.00000   0.00000   0.00000  -0.01029   0.00000   0.00000 ...
  -0.00001   0.00000   0.00000   0.00006   0.00000   0.00000  -0.00001   0.00000   0.00000   0.00000  -0.01021   0.00000 ...
   0.00000   0.00000   0.00000   0.00000   0.00005   0.00000   0.00000  -0.00001   0.00000   0.00000   0.00000  -0.01028 ...
   ...  only 12  components have been written...


 Augmentation waves occupancies Rhoij:
 Atom #  1
   1.99854  -0.01271   0.00000  -0.00002   0.00000   0.00000  -0.00001   0.00000   0.00243   0.00000  -0.00022   0.00000 ...
  -0.01271   0.20719   0.00000  -0.00073   0.00000   0.00000   0.00003   0.00000  -0.01989   0.00000   0.00004   0.00000 ...
   0.00000   0.00000   2.00660   0.00000  -0.00160  -0.00475   0.00000   0.00027   0.00000   0.00094   0.00000  -0.00222 ...
  -0.00002  -0.00073   0.00000   2.00788   0.00000   0.00000  -0.00497   0.00000  -0.00227   0.00000  -0.00057   0.00000 ...
   0.00000   0.00000  -0.00160   0.00000   2.00838   0.00027   0.00000  -0.00512   0.00000  -0.00212   0.00000  -0.00142 ...
   0.00000   0.00000  -0.00475   0.00000   0.00027   0.00014   0.00000  -0.00002   0.00000  -0.00008   0.00000   0.00008 ...
  -0.00001   0.00003   0.00000  -0.00497   0.00000   0.00000   0.00016   0.00000   0.00008   0.00000   0.00003   0.00000 ...
   0.00000   0.00000   0.00027   0.00000  -0.00512  -0.00002   0.00000   0.00017   0.00000   0.00008   0.00000   0.00007 ...
   0.00243  -0.01989   0.00000  -0.00227   0.00000   0.00000   0.00008   0.00000   0.07786   0.00000   0.01605   0.00000 ...
   0.00000   0.00000   0.00094   0.00000  -0.00212  -0.00008   0.00000   0.00008   0.00000   0.04915   0.00000  -0.00005 ...
  -0.00022   0.00004   0.00000  -0.00057   0.00000   0.00000   0.00003   0.00000   0.01605   0.00000   0.05261   0.00000 ...
   0.00000   0.00000  -0.00222   0.00000  -0.00142   0.00008   0.00000   0.00007   0.00000  -0.00005   0.00000   0.09802 ...
   ...  only 12  components have been written...
 Atom #  9
   1.99356  -0.06239   0.00000   0.00053   0.00000   0.00000   0.00219   0.00000   0.00000   0.00000  -0.00013   0.00000 ...
  -0.06239   1.06465   0.00000  -0.00015   0.00000   0.00000   0.01097   0.00000   0.00000   0.00000  -0.00649   0.00000 ...
   0.00000   0.00000   1.96929   0.00000   0.00000  -0.18219   0.00000   0.00000   0.00000   0.00355   0.00000   0.00000 ...
   0.00053  -0.00015   0.00000   1.96870   0.00000   0.00000  -0.18729   0.00000   0.00000   0.00000   0.00093   0.00000 ...
   0.00000   0.00000   0.00000   0.00000   1.96780   0.00000   0.00000  -0.19312   0.00000   0.00000   0.00000   0.00352 ...
   0.00000   0.00000  -0.18219   0.00000   0.00000   1.53794   0.00000   0.00000   0.00000  -0.05708   0.00000   0.00000 ...
   0.00219   0.01097   0.00000  -0.18729   0.00000   0.00000   1.61222   0.00000   0.00000   0.00000   0.07489   0.00000 ...
   0.00000   0.00000   0.00000   0.00000  -0.19312   0.00000   0.00000   1.72522   0.00000   0.00000   0.00000  -0.04702 ...
   0.00000   0.00000   0.00000   0.00000   0.00000   0.00000   0.00000   0.00000   0.49994   0.00000   0.00000   0.00000 ...
   0.00000   0.00000   0.00355   0.00000   0.00000  -0.05708   0.00000   0.00000   0.00000   0.49200   0.00000   0.00000 ...
  -0.00013  -0.00649   0.00000   0.00093   0.00000   0.00000   0.07489   0.00000   0.00000   0.00000   1.41823   0.00000 ...
   0.00000   0.00000   0.00000   0.00000   0.00352   0.00000   0.00000  -0.04702   0.00000   0.00000   0.00000   0.50257 ...
   ...  only 12  components have been written...



---OUTPUT-----------------------------------------------------------------------

 Cartesian coordinates (xcart) [bohr]
  5.01142761349069E+00  5.14981584416111E+00  5.16180571654243E+00
  1.50342828404720E+01  1.54494475324831E+01  1.54697910780635E+01
  1.00228552269727E+01  1.02996316882333E+01  5.09525042506278E+00
  1.00228552269897E+01  1.02996316884080E+01  1.53692174569871E+01
  1.51098256789628E+01  1.02996316882334E+01  1.03337996714426E+01
  1.00228552269732E+01  1.52236635845240E+01  1.02759226781025E+01
  1.00228552269894E+01  5.37559979211883E+00  1.02759226779292E+01
  4.93588477500003E+00  1.02996316884114E+01  1.03337996716266E+01
  2.45171029971819E-13  2.52334506280019E-12  1.48373516667171E-01
 Reduced coordinates (xred)
  2.50378979767040E-01  2.50378979767040E-01  2.49621020232960E-01
  7.50378979767039E-01  7.50378979767039E-01  7.49621020232960E-01
  2.47150643232526E-01  2.47150643232526E-01  7.52849356767473E-01
  7.45500547292166E-01  7.45500547292166E-01  2.54499452707834E-01
  2.47483622214091E-01  7.55020679946634E-01  7.52516377785909E-01
  7.37483987029237E-01  2.59405542555771E-01  7.40594457444229E-01
  2.59405542555771E-01  7.37483987029237E-01  2.62516012970763E-01
  7.55020679946634E-01  2.47483622214091E-01  2.44979320053366E-01
  7.19701820789534E-03  7.19701820789534E-03 -7.19701820789534E-03
 Cartesian forces (fcart) [Ha/bohr]; max,rms= 2.04663E-03 8.73580E-04 (free atoms)
  2.12889401322800E-16 -2.07184060902067E-16  1.17715235724120E-05
  2.12889257391459E-16 -2.07184200965618E-16  1.17715235724120E-05
 -3.70207989539744E-14  3.60261518734811E-14 -2.04662796516259E-03
  2.90526324407674E-14 -2.82720437752469E-14  1.60612072182438E-03
  2.03348438257918E-03  1.90889100266062E-15  8.25960163543488E-05
  3.08724485983665E-14  1.66282803010903E-03  9.88994872703849E-05
 -2.72948114166085E-14 -1.66282803011252E-03  9.88994873269434E-05
 -2.03348438257619E-03 -4.81700817676973E-15  8.25960163610690E-05
  9.76268224144629E-16 -9.50051484809931E-16  5.39731888806401E-05
 Reduced forces (fred)
 -1.21340692667223E-04 -1.21340692667222E-04  1.59870132302994E-19
 -1.21340692667223E-04 -1.21340692667222E-04  1.62755338279581E-19
  2.10966111053755E-02  2.10966111053755E-02 -1.98713585296491E-18
 -1.65558688894013E-02 -1.65558688894013E-02  1.30904018353002E-18
 -8.51398527535215E-04 -2.12327181004389E-02 -2.03813195729037E-02
 -1.81459707384955E-02 -1.01945446733656E-03 -1.71265162711589E-02
  1.61070618038223E-02 -1.01945446733656E-03  1.71265162711589E-02
 -8.51398527535213E-04  1.95299210453685E-02  2.03813195729037E-02
 -5.56354840896248E-04 -5.56354840896247E-04  1.85305031974297E-19
 Scale of Primitive Cell (acell) [bohr]
  1.45717869575343E+01  1.43774889709908E+01  1.43715009589173E+01
 Real space primitive translations (rprimd) [bohr]
  0.00000000000000E+00  1.02996316884973E+01  1.03079853617023E+01
  1.00228552269984E+01  0.00000000000000E+00  1.03079853613397E+01
  1.00228552269643E+01  1.02996316881467E+01  0.00000000000000E+00
 Unitary Cell Volume (ucvol) [Bohr^3]=  2.12822206161379E+03
 Angles (23,13,12)= [degrees]
  6.09101402342917E+01  5.95652260162784E+01  5.95246337494299E+01
 Lengths [Bohr]
  1.45717869575343E+01  1.43774889709908E+01  1.43715009589173E+01
 Stress tensor in cartesian coordinates (strten) [Ha/bohr^3]
 -1.19321265893678E-04  1.37801002620612E-13  1.18313867220378E-13
  1.37801002620612E-13 -1.20335456616825E-04 -2.49123120061117E-13
  1.18313867220378E-13 -2.49123120061117E-13 -1.19843591800911E-04
 Total energy (etotal) [Ha]= -1.64675458544912E+02

 Difference of energy with previous step (new-old):
           Absolute (Ha)=-2.51217E-05
           Relative     =-1.52553E-07

--- Iteration: (   3/1000) Internal Cycle: (1/1)
--------------------------------------------------------------------------------

---SELF-CONSISTENT-FIELD CONVERGENCE--------------------------------------------

--- !BeginCycle
iteration_state: {dtset: 1, itime: 3, icycle: 1, }
solver: {iscf: 17, nstep: 2500, nline: 4, wfoptalg: 10, }
tolerances: {toldff: 1.00E-08, }
...

     iter   Etot(hartree)      deltaE(h)  residm     nres2    diffor    maxfor
 ETOT  1  -164.67827252813    -1.647E+02 7.340E-05 4.189E-01 7.089E-02 7.294E-02
 ETOT  2  -164.67588949990     2.383E-03 5.877E-05 1.062E-01 7.806E-02 5.573E-03
 ETOT  3  -164.67555245034     3.370E-04 4.485E-05 4.640E-03 1.230E-02 7.148E-03
 ETOT  4  -164.67553850712     1.394E-05 2.584E-06 7.797E-04 6.026E-03 1.122E-03
 ETOT  5  -164.67554092103    -2.414E-06 7.675E-07 3.597E-04 2.924E-04 8.294E-04
 ETOT  6  -164.67554130628    -3.852E-07 1.915E-06 5.588E-05 7.099E-04 1.840E-04
 ETOT  7  -164.67554128004     2.624E-08 6.328E-07 1.581E-05 5.684E-05 1.764E-04
 ETOT  8  -164.67554142646    -1.464E-07 1.644E-06 1.245E-06 1.027E-04 1.515E-04
 ETOT  9  -164.67554143169    -5.237E-09 5.527E-07 7.499E-07 1.416E-05 1.555E-04
 ETOT 10  -164.67554143787    -6.179E-09 1.438E-06 5.971E-08 1.655E-05 1.585E-04
 ETOT 11  -164.67554143991    -2.036E-09 4.791E-07 2.552E-08 3.089E-06 1.588E-04
 ETOT 12  -164.67554144269    -2.783E-09 1.241E-06 5.264E-09 1.749E-06 1.571E-04
 ETOT 13  -164.67554144428    -1.592E-09 4.115E-07 9.188E-10 1.136E-06 1.576E-04
 ETOT 14  -164.67554144509    -8.091E-10 1.066E-06 3.015E-11 1.141E-07 1.577E-04
 ETOT 15  -164.67554144606    -9.678E-10 3.521E-07 5.178E-12 4.932E-08 1.577E-04
 ETOT 16  -164.67554144650    -4.368E-10 9.115E-07 2.652E-12 8.385E-09 1.577E-04
 ETOT 17  -164.67554144699    -4.894E-10 3.004E-07 8.506E-13 1.057E-08 1.577E-04
 ETOT 18  -164.67554144732    -3.379E-10 7.774E-07 3.769E-13 2.962E-09 1.577E-04
 ETOT 19  -164.67554144755    -2.227E-10 2.560E-07 1.174E-13 3.196E-09 1.577E-04

 At SCF step   19, forces are converged : 
  for the second time, max diff in force=  3.196E-09 < toldff=  1.000E-08

 Cartesian components of stress tensor (hartree/bohr^3)
  sigma(1 1)= -1.26392602E-04  sigma(3 2)= -2.48900760E-13
  sigma(2 2)= -1.25542262E-04  sigma(3 1)=  1.18231597E-13
  sigma(3 3)= -1.25904765E-04  sigma(2 1)=  1.37704567E-13


--- !ResultsGS
iteration_state: {dtset: 1, itime: 3, icycle: 1, }
comment   : Summary of ground state results
lattice_vectors:
- [  0.0000000,  10.3009082,  10.3080113, ]
- [ 10.0215880,   0.0000000,  10.3080113, ]
- [ 10.0215880,  10.3009082,   0.0000000, ]
lattice_lengths: [  14.57271,   14.37662,   14.37153, ]
lattice_angles: [ 60.916,  59.559,  59.525, ] # degrees, (23, 13, 12)
lattice_volume:   2.1282221E+03
convergence: {deltae: -2.227E-10, res2:  1.174E-13, residm:  2.560E-07, diffor:  3.196E-09, }
etotal    :  -1.64675541E+02
entropy   :   0.00000000E+00
fermie    :  -3.64122735E-02
cartesian_stress_tensor: # hartree/bohr^3
- [ -1.26392602E-04,   1.37704567E-13,   1.18231597E-13, ]
- [  1.37704567E-13,  -1.25542262E-04,  -2.48900760E-13, ]
- [  1.18231597E-13,  -2.48900760E-13,  -1.25904765E-04, ]
pressure_GPa:   3.7055E+00
xred      :
- [  2.5038E-01,   2.5038E-01,   2.4962E-01, Cs]
- [  7.5038E-01,   7.5038E-01,   7.4962E-01, Cs]
- [  2.4633E-01,   2.4633E-01,   7.5367E-01, Br]
- [  7.4614E-01,   7.4614E-01,   2.5386E-01,  I]
- [  2.4668E-01,   7.5589E-01,   7.5332E-01, Br]
- [  7.3819E-01,   2.5878E-01,   7.4122E-01,  I]
- [  2.5878E-01,   7.3819E-01,   2.6181E-01,  I]
- [  7.5589E-01,   2.4668E-01,   2.4411E-01, Br]
- [  7.2186E-03,   7.2186E-03,  -7.2186E-03, Zr]
cartesian_forces: # hartree/bohr
- [  2.14131970E-16,  -2.08326774E-16,   1.18365888E-05, ]
- [  2.14132845E-16,  -2.08327594E-16,   1.18365888E-05, ]
- [ -1.27920920E-15,   1.24452176E-15,  -7.07104102E-05, ]
- [ -1.55161946E-15,   1.50954138E-15,  -8.57680291E-05, ]
- [ -4.98066930E-05,  -1.09871155E-15,   5.77459381E-05, ]
- [  1.52029999E-15,  -3.58963594E-06,   8.75076099E-05, ]
- [  1.64586728E-15,   3.58963593E-06,   8.75076099E-05, ]
- [  4.98066930E-05,  -9.33984984E-16,   5.77459381E-05, ]
- [ -2.85295451E-15,   2.77559870E-15,  -1.57701834E-04, ]
force_length_stats: {min:   1.18365888E-05, max:   1.57701834E-04, mean:   7.39480098E-05, }
...

 Integrated electronic density in atomic spheres:
 ------------------------------------------------
 Atom  Sphere_radius  Integrated_density
    1        2.20660          5.36639663
    2        2.20660          5.36639663
    3        2.20000          4.94362059
    4        2.30022          4.03678317
    5        2.20000          4.94402375
    6        2.30022          4.03435486
    7        2.30022          4.03435486
    8        2.20000          4.94402375
    9        2.21000          8.85998557

 PAW TEST:
 ==== Compensation charge inside spheres ============
 The following values must be close to each other ...
 Compensation charge over spherical meshes =     -5.049794583972092
 Compensation charge over fine fft grid    =     -5.049793954513246

 ==== Results concerning PAW augmentation regions ====

 Total pseudopotential strength Dij (hartree):
 Atom #  1
   0.42627  -0.14123   0.00000  -0.00000   0.00000   0.00000   0.00000   0.00000   0.00000   0.00000  -0.00000   0.00000 ...
  -0.14123   0.04246   0.00000   0.00000   0.00000   0.00000  -0.00000   0.00000  -0.00000   0.00000   0.00000   0.00000 ...
   0.00000   0.00000  -0.09184   0.00000  -0.00000  -0.16762   0.00000  -0.00000   0.00000  -0.00000   0.00000  -0.00000 ...
  -0.00000   0.00000   0.00000  -0.09184   0.00000   0.00000  -0.16762   0.00000  -0.00000   0.00000  -0.00000   0.00000 ...
   0.00000   0.00000  -0.00000   0.00000  -0.09184  -0.00000   0.00000  -0.16762   0.00000  -0.00000   0.00000  -0.00000 ...
   0.00000   0.00000  -0.16762   0.00000  -0.00000   0.39982   0.00000   0.00001   0.00000   0.00000   0.00000   0.00000 ...
   0.00000  -0.00000   0.00000  -0.16762   0.00000   0.00000   0.39981   0.00000   0.00000   0.00000   0.00000   0.00000 ...
   0.00000   0.00000  -0.00000   0.00000  -0.16762   0.00001   0.00000   0.39982   0.00000   0.00000   0.00000   0.00000 ...
   0.00000  -0.00000   0.00000  -0.00000   0.00000   0.00000   0.00000   0.00000   0.00547   0.00000  -0.00000   0.00000 ...
   0.00000   0.00000  -0.00000   0.00000  -0.00000   0.00000   0.00000   0.00000   0.00000   0.00547   0.00000   0.00000 ...
  -0.00000   0.00000   0.00000  -0.00000   0.00000   0.00000   0.00000   0.00000  -0.00000   0.00000   0.00547   0.00000 ...
   0.00000   0.00000  -0.00000   0.00000  -0.00000   0.00000   0.00000   0.00000   0.00000   0.00000   0.00000   0.00547 ...
   ...  only 12  components have been written...
 Atom #  9
   3.06481  -0.89242   0.00000  -0.00003   0.00000   0.00000   0.00000   0.00000   0.00000   0.00000  -0.00001   0.00000 ...
  -0.89242   0.26662   0.00000   0.00001   0.00000   0.00000  -0.00000   0.00000   0.00000   0.00000   0.00000   0.00000 ...
   0.00000   0.00000   0.27250   0.00000   0.00000  -0.05556   0.00000   0.00000   0.00000   0.00006   0.00000   0.00000 ...
[...]
                       5.2832250244E+00  2.8326877060E+00  5.4164111458E+00
                       2.6008802633E+00  5.4283528447E+00  5.4462975077E+00
                       1.2858168468E-13  1.3228966857E-12  7.7786213020E-02
           xangst10    2.6401919077E+00  2.7129192802E+00  2.7193957554E+00
                       7.9205757230E+00  8.1387578407E+00  8.1495363352E+00
                       5.2803838153E+00  5.4258385604E+00  2.6842585013E+00
                       5.2803838154E+00  5.4258385605E+00  8.0958935773E+00
                       7.9602538916E+00  5.4258385604E+00  5.4434612113E+00
                       5.2803838153E+00  8.0196076130E+00  5.4135898792E+00
                       5.2803838154E+00  2.8320695080E+00  5.4135898791E+00
                       2.6005137391E+00  5.4258385605E+00  5.4434612114E+00
                       1.2880444316E-13  1.3255137262E-12  7.7938288438E-02
            xcart1     5.0139763291E+00  5.1469979508E+00  5.1644980305E+00
                       1.5041928987E+01  1.5440993852E+01  1.5472884191E+01
                       1.0027952658E+01  1.0293995902E+01  5.0744621915E+00
                       1.0027952658E+01  1.0293995902E+01  1.5380257717E+01
                       1.5136054900E+01  1.0293995902E+01  1.0336186049E+01
                       1.0027952658E+01  1.5226123539E+01  1.0279233200E+01
                       1.0027952658E+01  5.3618682648E+00  1.0279233200E+01
                       4.9198504163E+00  1.0293995902E+01  1.0336186049E+01
                       2.3874761224E-13  2.4508424511E-12  1.4414865436E-01
            xcart2     5.0114905275E+00  5.1446287145E+00  5.1615051615E+00
                       1.5034471582E+01  1.5433886144E+01  1.5464361418E+01
                       1.0022981055E+01  1.0289257429E+01  5.0742000436E+00
                       1.0022981055E+01  1.0289257429E+01  1.5370773574E+01
                       1.5126724927E+01  1.0289257429E+01  1.0330247765E+01
                       1.0022981055E+01  1.5217703561E+01  1.0273470155E+01
                       1.0022981055E+01  5.3608112970E+00  1.0273470155E+01
                       4.9192371824E+00  1.0289257429E+01  1.0330247765E+01
                       2.3905121570E-13  2.4588630465E-12  1.4457401238E-01
            xcart3     5.0087562459E+00  5.1421988019E+00  5.1587695590E+00
                       1.5026268738E+01  1.5426596406E+01  1.5456728293E+01
                       1.0017512492E+01  1.0284397604E+01  5.0740415940E+00
                       1.0017512492E+01  1.0284397604E+01  1.5362304251E+01
                       1.5116391978E+01  1.0284397604E+01  1.0325217863E+01
                       1.0017512492E+01  1.5209145683E+01  1.0268261387E+01
                       1.0017512492E+01  5.3596495249E+00  1.0268261387E+01
                       4.9186330061E+00  1.0284397604E+01  1.0325217864E+01
                       2.3933048500E-13  2.4642617184E-12  1.4486767624E-01
            xcart4     5.0057918127E+00  5.1402651940E+00  5.1559420359E+00
                       1.5017375438E+01  1.5420795582E+01  1.5448482663E+01
                       1.0011583625E+01  1.0280530388E+01  5.0739161882E+00
                       1.0011583625E+01  1.0280530388E+01  1.5352809661E+01
                       1.5105116172E+01  1.0280530388E+01  1.0319373833E+01
                       1.0011583625E+01  1.5202448023E+01  1.0262597789E+01
                       1.0011583625E+01  5.3586127534E+00  1.0262597789E+01
                       4.9180510787E+00  1.0280530388E+01  1.0319373833E+01
                       2.3995376001E-13  2.4704610887E-12  1.4523122721E-01
            xcart5     5.0031905994E+00  5.1379665146E+00  5.1528647974E+00
                       1.5009571798E+01  1.5413899544E+01  1.5439971635E+01
                       1.0006381199E+01  1.0275933029E+01  5.0737004241E+00
                       1.0006381199E+01  1.0275933029E+01  1.5343410241E+01
                       1.5095319384E+01  1.0275933029E+01  1.0313698022E+01
                       1.0006381199E+01  1.5194356961E+01  1.0256940342E+01
                       1.0006381199E+01  5.3575090970E+00  1.0256940342E+01
                       4.9174430142E+00  1.0275933029E+01  1.0313698022E+01
                       2.4060260137E-13  2.4771615622E-12  1.4563087182E-01
            xcart6     5.0002507927E+00  5.1358913640E+00  5.1499417925E+00
                       1.5000752378E+01  1.5407674092E+01  1.5431863588E+01
                       1.0000501585E+01  1.0271782728E+01  5.0736379638E+00
                       1.0000501585E+01  1.0271782728E+01  1.5334490539E+01
                       1.5084299054E+01  1.0271782728E+01  1.0308166848E+01
                       1.0000501585E+01  1.5187281016E+01  1.0251514970E+01
                       1.0000501585E+01  5.3562844402E+00  1.0251514970E+01
                       4.9167041171E+00  1.0271782728E+01  1.0308166848E+01
                       2.4135889121E-13  2.4846172475E-12  1.4607684494E-01
            xcart7     4.9971290509E+00  5.1338607940E+00  5.1474426094E+00
                       1.4991387153E+01  1.5401582382E+01  1.5424464450E+01
                       9.9942581018E+00  1.0267721588E+01  5.0730068091E+00
                       9.9942581018E+00  1.0267721588E+01  1.5325719074E+01
                       1.5072345105E+01  1.0267721588E+01  1.0303183998E+01
                       9.9942581018E+00  1.5180147291E+01  1.0246619041E+01
                       9.9942581018E+00  5.3552958849E+00  1.0246619041E+01
                       4.9161710989E+00  1.0267721588E+01  1.0303183998E+01
                       2.4114063797E-13  2.4821020241E-12  1.4593570303E-01
            xcart8     4.9945157343E+00  5.1314117133E+00  5.1446179415E+00
                       1.4983547203E+01  1.5394235140E+01  1.5416532130E+01
                       9.9890314687E+00  1.0262823427E+01  5.0731425024E+00
                       9.9890314687E+00  1.0262823427E+01  1.5317026834E+01
                       1.5062481690E+01  1.0262823427E+01  1.0297597657E+01
                       9.9890314687E+00  1.5171580765E+01  1.0241066678E+01
                       9.9890314687E+00  5.3540660880E+00  1.0241066678E+01
                       4.9155812471E+00  1.0262823427E+01  1.0297597657E+01
                       2.4169701123E-13  2.4956648855E-12  1.4666543083E-01
            xcart9     4.9919241973E+00  5.1290501145E+00  5.1416847032E+00
                       1.4975772592E+01  1.5387150344E+01  1.5408271346E+01
                       9.9838483945E+00  1.0258100229E+01  5.0728537711E+00
                       9.9838483945E+00  1.0258100229E+01  1.5307799852E+01
                       1.5052745387E+01  1.0258100229E+01  1.0292010728E+01
                       9.9838483945E+00  1.5163196474E+01  1.0235533689E+01
                       9.9838483945E+00  5.3530039844E+00  1.0235533689E+01
                       4.9149514020E+00  1.0258100229E+01  1.0292010728E+01
                       2.4298416976E-13  2.4999124380E-12  1.4699463952E-01
            xcart10    4.9892396438E+00  5.1266744603E+00  5.1389132246E+00
                       1.4967718931E+01  1.5380023381E+01  1.5400391784E+01
                       9.9784792875E+00  1.0253348920E+01  5.0725134373E+00
                       9.9784792875E+00  1.0253348921E+01  1.5299021662E+01
                       1.5042699803E+01  1.0253348920E+01  1.0286650904E+01
                       9.9784792875E+00  1.5154862082E+01  1.0230202268E+01
                       9.9784792875E+00  5.3518357593E+00  1.0230202267E+01
                       4.9142587717E+00  1.0253348921E+01  1.0286650904E+01
                       2.4340512228E-13  2.5048579280E-12  1.4728202041E-01
             xred1     2.5049983335E-01  2.5049983335E-01  2.4950016665E-01
                       7.5049983335E-01  7.5049983335E-01  7.4950016665E-01
                       2.4613271722E-01  2.4613271722E-01  7.5386728278E-01
                       7.4600706056E-01  7.4600706056E-01  2.5399293944E-01
                       2.4665523434E-01  7.5604158827E-01  7.5334476566E-01
                       7.3814927752E-01  2.5902264059E-01  7.4097735941E-01
                       2.5902264059E-01  7.3814927752E-01  2.6185072248E-01
                       7.5604158827E-01  2.4665523434E-01  2.4395841173E-01
                       6.9918148253E-03  6.9918148253E-03 -6.9918148253E-03
             xred2     2.5048904076E-01  2.5048904076E-01  2.4951095924E-01
                       7.5048904076E-01  7.5048904076E-01  7.4951095924E-01
                       2.4625210318E-01  2.4625210318E-01  7.5374789682E-01
                       7.4594720103E-01  7.4594720103E-01  2.5405279897E-01
                       2.4672722512E-01  7.5593140745E-01  7.5327277488E-01
                       7.3806862894E-01  2.5907914247E-01  7.4092085753E-01
                       2.5907914247E-01  7.3806862894E-01  2.6193137106E-01
                       7.5593140745E-01  2.4672722512E-01  2.4406859255E-01
                       7.0162103008E-03  7.0162103008E-03 -7.0162103008E-03
             xred3     2.5047534624E-01  2.5047534624E-01  2.4952465376E-01
                       7.5047534624E-01  7.5047534624E-01  7.4952465376E-01
                       2.4636152295E-01  2.4636152295E-01  7.5363847705E-01
                       7.4589074628E-01  7.4589074628E-01  2.5410925372E-01
                       2.4682523662E-01  7.5582180537E-01  7.5317476338E-01
                       7.3798622086E-01  2.5912997001E-01  7.4087002999E-01
                       2.5912997001E-01  7.3798622086E-01  2.6201377914E-01
                       7.5582180537E-01  2.4682523662E-01  2.4417819463E-01
                       7.0338054356E-03  7.0338054356E-03 -7.0338054356E-03
             xred4     2.5046984134E-01  2.5046984134E-01  2.4953015866E-01
                       7.5046984134E-01  7.5046984134E-01  7.4953015866E-01
                       2.4648511829E-01  2.4648511829E-01  7.5351488171E-01
                       7.4582215496E-01  7.4582215496E-01  2.5417784504E-01
                       2.4692156601E-01  7.5568548761E-01  7.5307843399E-01
                       7.3792594115E-01  2.5916488031E-01  7.4083511969E-01
                       2.5916488031E-01  7.3792594115E-01  2.6207405885E-01
                       7.5568548761E-01  2.4692156601E-01  2.4431451239E-01
                       7.0551690039E-03  7.0551690039E-03 -7.0551690039E-03
             xred5     2.5045257520E-01  2.5045257520E-01  2.4954742480E-01
                       7.5045257520E-01  7.5045257520E-01  7.4954742480E-01
                       2.4660482799E-01  2.4660482799E-01  7.5339517201E-01
                       7.4575925400E-01  7.4575925400E-01  2.5424074600E-01
                       2.4700780691E-01  7.5557709719E-01  7.5299219309E-01
                       7.3785140435E-01  2.5921613900E-01  7.4078386100E-01
                       2.5921613900E-01  7.3785140435E-01  2.6214859565E-01
                       7.5557709719E-01  2.4700780691E-01  2.4442290281E-01
                       7.0783201792E-03  7.0783201792E-03 -7.0783201792E-03
             xred6     2.5043673231E-01  2.5043673231E-01  2.4956326769E-01
                       7.5043673231E-01  7.5043673231E-01  7.4956326769E-01
                       2.4672615027E-01  2.4672615027E-01  7.5327384973E-01
                       7.4570157428E-01  7.4570157428E-01  2.5429842572E-01
                       2.4709914746E-01  7.5545339599E-01  7.5290085254E-01
                       7.3779326220E-01  2.5924942828E-01  7.4075057172E-01
                       2.5924942828E-01  7.3779326220E-01  2.6220673780E-01
                       7.5545339599E-01  2.4709914746E-01  2.4454660401E-01
                       7.1035769310E-03  7.1035769310E-03 -7.1035769310E-03
             xred7     2.5043454658E-01  2.5043454658E-01  2.4956545342E-01
                       7.5043454658E-01  7.5043454658E-01  7.4956545342E-01
                       2.4681307912E-01  2.4681307912E-01  7.5318692088E-01
                       7.4563036413E-01  7.4563036413E-01  2.5436963587E-01
                       2.4722262403E-01  7.5532307042E-01  7.5277737597E-01
                       7.3773776757E-01  2.5930390462E-01  7.4069609538E-01
                       2.5930390462E-01  7.3773776757E-01  2.6226223243E-01
                       7.5532307042E-01  2.4722262403E-01  2.4467692958E-01
                       7.1000969590E-03  7.1000969590E-03 -7.1000969590E-03
             xred8     2.5042157902E-01  2.5042157902E-01  2.4957842098E-01
                       7.5042157902E-01  7.5042157902E-01  7.4957842098E-01
                       2.4694241059E-01  2.4694241059E-01  7.5305758941E-01
                       7.4557801754E-01  7.4557801754E-01  2.5442198246E-01
                       2.4729912118E-01  7.5520123736E-01  7.5270087882E-01
                       7.3765083573E-01  2.5934607158E-01  7.4065392842E-01
                       2.5934607158E-01  7.3765083573E-01  2.6234916427E-01
                       7.5520123736E-01  2.4729912118E-01  2.4479876264E-01
                       7.1391479783E-03  7.1391479783E-03 -7.1391479783E-03
             xred9     2.5040867437E-01  2.5040867437E-01  2.4959132563E-01
                       7.5040867437E-01  7.5040867437E-01  7.4959132563E-01
                       2.4705649246E-01  2.4705649246E-01  7.5294350754E-01
                       7.4551554397E-01  7.4551554397E-01  2.5448445603E-01
                       2.4738332960E-01  7.5509306158E-01  7.5261667040E-01
                       7.3757171650E-01  2.5940362152E-01  7.4059637848E-01
                       2.5940362152E-01  7.3757171650E-01  2.6242828350E-01
                       7.5509306158E-01  2.4738332960E-01  2.4490693842E-01
                       7.1588856468E-03  7.1588856468E-03 -7.1588856468E-03
             xred10    2.5039828301E-01  2.5039828301E-01  2.4960171699E-01
                       7.5039828301E-01  7.5039828301E-01  7.4960171699E-01
                       2.4716289218E-01  2.4716289218E-01  7.5283710782E-01
                       7.4545893042E-01  7.4545893042E-01  2.5454106958E-01
                       2.4746941652E-01  7.5498367495E-01  7.5253058348E-01
                       7.3749614326E-01  2.5945592448E-01  7.4054407552E-01
                       2.5945592448E-01  7.3749614326E-01  2.6250385674E-01
                       7.5498367495E-01  2.4746941652E-01  2.4501632505E-01
                       7.1764521832E-03  7.1764521832E-03 -7.1764521832E-03
            znucl       55.00000   53.00000   40.00000   35.00000

================================================================================


- Timing analysis has been suppressed with timopt=0



================================================================================

 Suggested references for the acknowledgment of ABINIT usage.

 The users of ABINIT have little formal obligations with respect to the ABINIT group
 (those specified in the GNU General Public License, http://www.gnu.org/copyleft/gpl.txt).
 However, it is common practice in the scientific literature,
 to acknowledge the efforts of people that have made the research possible.
 In this spirit, please find below suggested citations of work written by ABINIT developers,
 corresponding to implementations inside of ABINIT that you have used in the present run.
 Note also that it will be of great value to readers of publications presenting these results,
 to read papers enabling them to understand the theoretical formalism and details
 of the ABINIT implementation.
 For information on why they are suggested, see also https://docs.abinit.org/theory/acknowledgments.
-
- [1] Implementation of the Projector Augmented-Wave Method in the ABINIT code.
- M. Torrent, F. Jollet, F. Bottin, G. Zerah, and X. Gonze Comput. Mat. Science 42, 337, (2008).
- Comment: PAW calculations. Strong suggestion to cite this paper.
- DOI and bibtex: see https://docs.abinit.org/theory/bibliography/#torrent2008
-
- [2] Libxc: A library of exchange and correlation functionals for density functional theory.
- M.A.L. Marques, M.J.T. Oliveira, T. Burnus, Computer Physics Communications 183, 2227 (2012).
- Comment: to be cited when LibXC is used (negative value of ixc)
- Strong suggestion to cite this paper.
- DOI and bibtex: see https://docs.abinit.org/theory/bibliography/#marques2012
-
- [3] The Abinit project: Impact, environment and recent developments.
- Computer Phys. Comm. 248, 107042 (2020).
- X.Gonze, B. Amadon, G. Antonius, F.Arnardi, L.Baguet, J.-M.Beuken,
- J.Bieder, F.Bottin, J.Bouchet, E.Bousquet, N.Brouwer, F.Bruneval,
- G.Brunin, T.Cavignac, J.-B. Charraud, Wei Chen, M.Cote, S.Cottenier,
- J.Denier, G.Geneste, Ph.Ghosez, M.Giantomassi, Y.Gillet, O.Gingras,
- D.R.Hamann, G.Hautier, Xu He, N.Helbig, N.Holzwarth, Y.Jia, F.Jollet,
- W.Lafargue-Dit-Hauret, K.Lejaeghere, M.A.L.Marques, A.Martin, C.Martins,
- H.P.C. Miranda, F.Naccarato, K. Persson, G.Petretto, V.Planes, Y.Pouillon,
- S.Prokhorenko, F.Ricci, G.-M.Rignanese, A.H.Romero, M.M.Schmitt, M.Torrent,
- M.J.van Setten, B.Van Troeye, M.J.Verstraete, G.Zerah and J.W.Zwanzig
- Comment: the fifth generic paper describing the ABINIT project.
- Note that a version of this paper, that is not formatted for Computer Phys. Comm. 
- is available at https://www.abinit.org/sites/default/files/ABINIT20.pdf .
- The licence allows the authors to put it on the Web.
- DOI and bibtex: see https://docs.abinit.org/theory/bibliography/#gonze2020
-
- [4] ABINIT: Overview, and focus on selected capabilities
- J. Chem. Phys. 152, 124102 (2020).
- A. Romero, D.C. Allan, B. Amadon, G. Antonius, T. Applencourt, L.Baguet,
- J.Bieder, F.Bottin, J.Bouchet, E.Bousquet, F.Bruneval,
- G.Brunin, D.Caliste, M.Cote,
- J.Denier, C. Dreyer, Ph.Ghosez, M.Giantomassi, Y.Gillet, O.Gingras,
- D.R.Hamann, G.Hautier, F.Jollet, G. Jomard,
- A.Martin, 
- H.P.C. Miranda, F.Naccarato, G.Petretto, N.A. Pike, V.Planes,
- S.Prokhorenko, T. Rangel, F.Ricci, G.-M.Rignanese, M.Royo, M.Stengel, M.Torrent,
- M.J.van Setten, B.Van Troeye, M.J.Verstraete, J.Wiktor, J.W.Zwanziger, and X.Gonze.
- Comment: a global overview of ABINIT, with focus on selected capabilities .
- Note that a version of this paper, that is not formatted for J. Chem. Phys 
- is available at https://www.abinit.org/sites/default/files/ABINIT20_JPC.pdf .
- The licence allows the authors to put it on the Web.
- DOI and bibtex: see https://docs.abinit.org/theory/bibliography/#romero2020
-
- [5] Recent developments in the ABINIT software package.
- Computer Phys. Comm. 205, 106 (2016).
- X.Gonze, F.Jollet, F.Abreu Araujo, D.Adams, B.Amadon, T.Applencourt,
- C.Audouze, J.-M.Beuken, J.Bieder, A.Bokhanchuk, E.Bousquet, F.Bruneval
- D.Caliste, M.Cote, F.Dahm, F.Da Pieve, M.Delaveau, M.Di Gennaro,
- B.Dorado, C.Espejo, G.Geneste, L.Genovese, A.Gerossier, M.Giantomassi,
- Y.Gillet, D.R.Hamann, L.He, G.Jomard, J.Laflamme Janssen, S.Le Roux,
- A.Levitt, A.Lherbier, F.Liu, I.Lukacevic, A.Martin, C.Martins,
- M.J.T.Oliveira, S.Ponce, Y.Pouillon, T.Rangel, G.-M.Rignanese,
- A.H.Romero, B.Rousseau, O.Rubel, A.A.Shukri, M.Stankovski, M.Torrent,
- M.J.Van Setten, B.Van Troeye, M.J.Verstraete, D.Waroquier, J.Wiktor,
- B.Xu, A.Zhou, J.W.Zwanziger.
- Comment: the fourth generic paper describing the ABINIT project.
- Note that a version of this paper, that is not formatted for Computer Phys. Comm. 
- is available at https://www.abinit.org/sites/default/files/ABINIT16.pdf .
- The licence allows the authors to put it on the Web.
- DOI and bibtex: see https://docs.abinit.org/theory/bibliography/#gonze2016
-
- Proc.   0 individual time (sec): cpu=      32549.7  wall=      32550.5

================================================================================

 Calculation completed.
.Delivered   0 WARNINGs and 127 COMMENTs to log file.
+Overall time at end (sec) : cpu=     195297.5  wall=     195302.9
