
.Version 9.2.2 of ABINIT 
.(MPI version, prepared for a x86_64_linux_gnu9.3 computer) 

.Copyright (C) 1998-2020 ABINIT group . 
 ABINIT comes with ABSOLUTELY NO WARRANTY.
 It is free software, and you are welcome to redistribute it
 under certain conditions (GNU General Public License,
 see ~abinit/COPYING or http://www.gnu.org/copyleft/gpl.txt).

 ABINIT is a project of the Universite Catholique de Louvain,
 Corning Inc. and other collaborators, see ~abinit/doc/developers/contributors.txt .
 Please read https://docs.abinit.org/theory/acknowledgments for suggested
 acknowledgments of the ABINIT effort.
 For more information, see https://www.abinit.org .

.Starting date : Sat 22 Oct 2022.
- ( at 11h42 )
  
- input  file    -> Cs2TiI6.in
- output file    -> Cs2TiI6.out
- root for input  files -> Cs2TiI6i
- root for output files -> Cs2TiI6o

- inpspheads : Reading pseudopotential header in XML form from 
-   ../../../Psps_for_tests/ATOMICDATA/Cs.GGA_PBE-JTH.xml
- inpspheads : Reading pseudopotential header in XML form from 
-   ../../../Psps_for_tests/ATOMICDATA/I.GGA_PBE-JTH.xml
- inpspheads : Reading pseudopotential header in XML form from 
-   ../../../Psps_for_tests/ATOMICDATA/Hf.GGA_PBE-JTH.xml
- inpspheads : Reading pseudopotential header in XML form from 
-   ../../../Psps_for_tests/ATOMICDATA/Cl.GGA_PBE-JTH.xml

 DATASET    1 : space group I4/m m m (#139); Bravais tI (body-center tetrag.)
================================================================================
 Values of the parameters that define the memory need for DATASET  1.
     intxc =       0    ionmov =       2      iscf =      17    lmnmax =      18
     lnmax =       6     mgfft =      72  mpssoang =       3    mqgrid =    4146
     natom =       9  nloc_mem =       2    nspden =       1   nspinor =       1
    nsppol =       1      nsym =      16    n1xccc =       1    ntypat =       4
    occopt =       1   xclevel =       2
-    mband =          42        mffmem =           1         mkmem =           5
       mpw =       12320          nfft =      373248          nkpt =          20
Pmy_natom=         3
 PAW method is used; the additional fine FFT grid is defined by:
   mgfftf=       108    nfftf =   1259712
================================================================================
P This job should need less than                     426.474 Mbytes of memory.
  Rough estimation (10% accuracy) of disk space for files :
_ WF disk file :    157.912 Mbytes ; DEN or POT disk file :      9.613 Mbytes.
================================================================================


 DATASET    2 : space group I4/m m m (#139); Bravais tI (body-center tetrag.)
================================================================================
 Values of the parameters that define the memory need for DATASET  2.
     intxc =       0    ionmov =       2      iscf =      17    lmnmax =      18
     lnmax =       6     mgfft =      72  mpssoang =       3    mqgrid =    4104
     natom =       9  nloc_mem =       2    nspden =       1   nspinor =       1
    nsppol =       1      nsym =      16    n1xccc =       1    ntypat =       4
    occopt =       1   xclevel =       2
-    mband =          42        mffmem =           1         mkmem =           5
       mpw =       11934          nfft =      373248          nkpt =          20
Pmy_natom=         3
 PAW method is used; the additional fine FFT grid is defined by:
   mgfftf=       108    nfftf =   1259712
================================================================================
P This job should need less than                     425.937 Mbytes of memory.
  Rough estimation (10% accuracy) of disk space for files :
_ WF disk file :    152.965 Mbytes ; DEN or POT disk file :      9.613 Mbytes.
================================================================================


 DATASET    3 : space group I4/m m m (#139); Bravais tI (body-center tetrag.)
================================================================================
 Values of the parameters that define the memory need for DATASET  3.
     intxc =       0    ionmov =       2      iscf =      17    lmnmax =      18
     lnmax =       6     mgfft =      72  mpssoang =       3    mqgrid =    4062
     natom =       9  nloc_mem =       2    nspden =       1   nspinor =       1
    nsppol =       1      nsym =      16    n1xccc =       1    ntypat =       4
    occopt =       1   xclevel =       2
-    mband =          42        mffmem =           1         mkmem =           5
       mpw =       11575          nfft =      373248          nkpt =          20
Pmy_natom=         3
 PAW method is used; the additional fine FFT grid is defined by:
   mgfftf=       108    nfftf =   1259712
================================================================================
P This job should need less than                     425.535 Mbytes of memory.
  Rough estimation (10% accuracy) of disk space for files :
_ WF disk file :    148.363 Mbytes ; DEN or POT disk file :      9.613 Mbytes.
================================================================================


 DATASET    4 : space group I4/m m m (#139); Bravais tI (body-center tetrag.)
================================================================================
 Values of the parameters that define the memory need for DATASET  4.
     intxc =       0    ionmov =       2      iscf =      17    lmnmax =      18
     lnmax =       6     mgfft =      64  mpssoang =       3    mqgrid =    4020
     natom =       9  nloc_mem =       2    nspden =       1   nspinor =       1
    nsppol =       1      nsym =      16    n1xccc =       1    ntypat =       4
    occopt =       1   xclevel =       2
-    mband =          42        mffmem =           1         mkmem =           5
       mpw =       11228          nfft =      262144          nkpt =          20
Pmy_natom=         3
 PAW method is used; the additional fine FFT grid is defined by:
   mgfftf=       108    nfftf =   1259712
================================================================================
P This job should need less than                     408.676 Mbytes of memory.
  Rough estimation (10% accuracy) of disk space for files :
_ WF disk file :    143.916 Mbytes ; DEN or POT disk file :      9.613 Mbytes.
================================================================================


 DATASET    5 : space group I4/m m m (#139); Bravais tI (body-center tetrag.)
================================================================================
 Values of the parameters that define the memory need for DATASET  5.
     intxc =       0    ionmov =       2      iscf =      17    lmnmax =      18
     lnmax =       6     mgfft =      64  mpssoang =       3    mqgrid =    3978
     natom =       9  nloc_mem =       2    nspden =       1   nspinor =       1
    nsppol =       1      nsym =      16    n1xccc =       1    ntypat =       4
    occopt =       1   xclevel =       2
-    mband =          42        mffmem =           1         mkmem =           5
       mpw =       10867          nfft =      262144          nkpt =          20
Pmy_natom=         3
 PAW method is used; the additional fine FFT grid is defined by:
   mgfftf=       100    nfftf =   1000000
================================================================================
P This job should need less than                     341.339 Mbytes of memory.
  Rough estimation (10% accuracy) of disk space for files :
_ WF disk file :    139.288 Mbytes ; DEN or POT disk file :      7.631 Mbytes.
================================================================================


 DATASET    6 : space group I4/m m m (#139); Bravais tI (body-center tetrag.)
================================================================================
 Values of the parameters that define the memory need for DATASET  6.
     intxc =       0    ionmov =       2      iscf =      17    lmnmax =      18
     lnmax =       6     mgfft =      64  mpssoang =       3    mqgrid =    3936
     natom =       9  nloc_mem =       2    nspden =       1   nspinor =       1
    nsppol =       1      nsym =      16    n1xccc =       1    ntypat =       4
    occopt =       1   xclevel =       2
-    mband =          42        mffmem =           1         mkmem =           5
       mpw =       10532          nfft =      262144          nkpt =          20
Pmy_natom=         3
 PAW method is used; the additional fine FFT grid is defined by:
   mgfftf=       100    nfftf =   1000000
================================================================================
P This job should need less than                     340.932 Mbytes of memory.
  Rough estimation (10% accuracy) of disk space for files :
_ WF disk file :    134.995 Mbytes ; DEN or POT disk file :      7.631 Mbytes.
================================================================================


 DATASET    7 : space group I4/m m m (#139); Bravais tI (body-center tetrag.)
================================================================================
 Values of the parameters that define the memory need for DATASET  7.
     intxc =       0    ionmov =       2      iscf =      17    lmnmax =      18
     lnmax =       6     mgfft =      64  mpssoang =       3    mqgrid =    3895
     natom =       9  nloc_mem =       2    nspden =       1   nspinor =       1
    nsppol =       1      nsym =      16    n1xccc =       1    ntypat =       4
    occopt =       1   xclevel =       2
-    mband =          42        mffmem =           1         mkmem =           5
       mpw =       10205          nfft =      262144          nkpt =          20
Pmy_natom=         3
 PAW method is used; the additional fine FFT grid is defined by:
   mgfftf=       100    nfftf =   1000000
================================================================================
P This job should need less than                     340.590 Mbytes of memory.
  Rough estimation (10% accuracy) of disk space for files :
_ WF disk file :    130.803 Mbytes ; DEN or POT disk file :      7.631 Mbytes.
================================================================================


 DATASET    8 : space group I4/m m m (#139); Bravais tI (body-center tetrag.)
================================================================================
 Values of the parameters that define the memory need for DATASET  8.
     intxc =       0    ionmov =       2      iscf =      17    lmnmax =      18
     lnmax =       6     mgfft =      64  mpssoang =       3    mqgrid =    3853
     natom =       9  nloc_mem =       2    nspden =       1   nspinor =       1
    nsppol =       1      nsym =      16    n1xccc =       1    ntypat =       4
    occopt =       1   xclevel =       2
-    mband =          42        mffmem =           1         mkmem =           5
       mpw =        9888          nfft =      262144          nkpt =          20
Pmy_natom=         3
 PAW method is used; the additional fine FFT grid is defined by:
   mgfftf=       100    nfftf =   1000000
================================================================================
P This job should need less than                     340.321 Mbytes of memory.
  Rough estimation (10% accuracy) of disk space for files :
_ WF disk file :    126.740 Mbytes ; DEN or POT disk file :      7.631 Mbytes.
================================================================================


 DATASET    9 : space group I4/m m m (#139); Bravais tI (body-center tetrag.)
================================================================================
 Values of the parameters that define the memory need for DATASET  9.
     intxc =       0    ionmov =       2      iscf =      17    lmnmax =      18
     lnmax =       6     mgfft =      64  mpssoang =       3    mqgrid =    3811
     natom =       9  nloc_mem =       2    nspden =       1   nspinor =       1
    nsppol =       1      nsym =      16    n1xccc =       1    ntypat =       4
    occopt =       1   xclevel =       2
-    mband =          42        mffmem =           1         mkmem =           5
       mpw =        9569          nfft =      262144          nkpt =          20
Pmy_natom=         3
 PAW method is used; the additional fine FFT grid is defined by:
   mgfftf=        96    nfftf =    884736
================================================================================
P This job should need less than                     309.946 Mbytes of memory.
  Rough estimation (10% accuracy) of disk space for files :
_ WF disk file :    122.652 Mbytes ; DEN or POT disk file :      6.752 Mbytes.
================================================================================


 DATASET   10 : space group I4/m m m (#139); Bravais tI (body-center tetrag.)
================================================================================
 Values of the parameters that define the memory need for DATASET 10.
     intxc =       0    ionmov =       2      iscf =      17    lmnmax =      18
     lnmax =       6     mgfft =      60  mpssoang =       3    mqgrid =    3769
     natom =       9  nloc_mem =       2    nspden =       1   nspinor =       1
    nsppol =       1      nsym =      16    n1xccc =       1    ntypat =       4
    occopt =       1   xclevel =       2
-    mband =          42        mffmem =           1         mkmem =           5
       mpw =        9246          nfft =      216000          nkpt =          20
Pmy_natom=         3
 PAW method is used; the additional fine FFT grid is defined by:
   mgfftf=        96    nfftf =    884736
================================================================================
P This job should need less than                     302.756 Mbytes of memory.
  Rough estimation (10% accuracy) of disk space for files :
_ WF disk file :    118.512 Mbytes ; DEN or POT disk file :      6.752 Mbytes.
================================================================================

--------------------------------------------------------------------------------
------------- Echo of variables that govern the present computation ------------
--------------------------------------------------------------------------------
-
- outvars: echo of selected default values                                      
-   iomode0 =  0 , fftalg0 =112 , wfoptalg0 = 10
-
- outvars: echo of global parameters not present in the input file              
-  max_nthreads =    0
-
 -outvars: echo values of preprocessed input variables --------
            acell1     1.5386184254E+01  1.5805287436E+01  1.5386184254E+01 Bohr
            acell2     1.5230768252E+01  1.5645638068E+01  1.5230768252E+01 Bohr
            acell3     1.5075352249E+01  1.5485988700E+01  1.5075352249E+01 Bohr
            acell4     1.4919936247E+01  1.5326339332E+01  1.4919936247E+01 Bohr
            acell5     1.4764520244E+01  1.5166689964E+01  1.4764520244E+01 Bohr
            acell6     1.4609104242E+01  1.5007040596E+01  1.4609104242E+01 Bohr
            acell7     1.4453688239E+01  1.4847391228E+01  1.4453688239E+01 Bohr
            acell8     1.4298272236E+01  1.4687741860E+01  1.4298272236E+01 Bohr
            acell9     1.4142856234E+01  1.4528092492E+01  1.4142856234E+01 Bohr
            acell10    1.3987440231E+01  1.4368443124E+01  1.3987440231E+01 Bohr
              amu      1.32905430E+02  1.26904470E+02  1.78490000E+02
                       3.54527000E+01
           diemac      1.20000000E+01
          dilatmx      1.15000000E+00
             ecut      1.60000000E+01 Hartree
           ecutsm      5.00000000E-01 Hartree
-          fftalg         112
          getxred1          0
          getxred2         -1
          getxred3         -1
          getxred4         -1
          getxred5         -1
          getxred6         -1
          getxred7         -1
          getxred8         -1
          getxred9         -1
          getxred10        -1
           ionmov           2
              ixc     -101130
           jdtset        1    2    3    4    5    6    7    8    9   10
              kpt      0.00000000E+00 -1.25000000E-01  0.00000000E+00
                       0.00000000E+00 -3.75000000E-01  0.00000000E+00
                       1.25000000E-01 -2.50000000E-01  0.00000000E+00
                       1.25000000E-01 -1.25000000E-01  1.25000000E-01
                       1.25000000E-01  5.00000000E-01  0.00000000E+00
                       2.50000000E-01 -3.75000000E-01  0.00000000E+00
                       1.25000000E-01 -3.75000000E-01  1.25000000E-01
                       2.50000000E-01 -2.50000000E-01  1.25000000E-01
                       2.50000000E-01 -1.25000000E-01  2.50000000E-01
                       1.25000000E-01  2.50000000E-01  0.00000000E+00
                       2.50000000E-01  3.75000000E-01  0.00000000E+00
                       3.75000000E-01  5.00000000E-01  0.00000000E+00
                       1.25000000E-01  3.75000000E-01  1.25000000E-01
                       2.50000000E-01  5.00000000E-01  1.25000000E-01
                       3.75000000E-01 -3.75000000E-01  1.25000000E-01
                       2.50000000E-01 -3.75000000E-01  2.50000000E-01
                       3.75000000E-01 -2.50000000E-01  2.50000000E-01
                       3.75000000E-01 -1.25000000E-01  3.75000000E-01
                       5.00000000E-01  2.50000000E-01  1.25000000E-01
                      -3.75000000E-01  3.75000000E-01  1.25000000E-01
         kptrlatt        4    4   -4     -4    4    4      4   -4    4
          kptrlen1     8.46001836E+01
          kptrlen2     8.37456363E+01
          kptrlen3     8.28910890E+01
          kptrlen4     8.20365417E+01
          kptrlen5     8.11819944E+01
          kptrlen6     8.03274471E+01
          kptrlen7     7.94728998E+01
          kptrlen8     7.86183525E+01
          kptrlen9     7.77638051E+01
          kptrlen10    7.69092578E+01
P           mkmem           5
            natom           9
            nband          42
           ndtset          10
            ngfft1         72      72      72
            ngfft2         72      72      72
            ngfft3         72      72      72
            ngfft4         64      64      64
            ngfft5         64      64      64
            ngfft6         64      64      64
            ngfft7         64      64      64
            ngfft8         64      64      64
            ngfft9         64      64      64
            ngfft10        60      60      60
          ngfftdg1        108     108     108
          ngfftdg2        108     108     108
          ngfftdg3        108     108     108
          ngfftdg4        108     108     108
          ngfftdg5        100     100     100
          ngfftdg6        100     100     100
          ngfftdg7        100     100     100
          ngfftdg8        100     100     100
          ngfftdg9         96      96      96
          ngfftdg10        96      96      96
             nkpt          20
            nstep        2500
             nsym          16
            ntime        1000
           ntypat           4
              occ      2.000000  2.000000  2.000000  2.000000  2.000000  2.000000
                       2.000000  2.000000  2.000000  2.000000  2.000000  2.000000
                       2.000000  2.000000  2.000000  2.000000  2.000000  2.000000
                       2.000000  2.000000  2.000000  2.000000  2.000000  2.000000
                       2.000000  2.000000  2.000000  2.000000  2.000000  2.000000
                       2.000000  2.000000  2.000000  2.000000  2.000000  2.000000
                       0.000000  0.000000  0.000000  0.000000  0.000000  0.000000
          optcell           3
        optforces           1
        pawecutdg      4.00000000E+01 Hartree
            prtwf           0
            rprim      0.0000000000E+00  6.8730640280E-01  7.2636761262E-01
                       7.0710678119E-01  0.0000000000E+00  7.0710678119E-01
                       7.2636761262E-01  6.8730640280E-01  0.0000000000E+00
           shiftk     -5.00000000E-01  5.00000000E-01  5.00000000E-01
          spgroup         139
           symrel      1  0  0   0  1  0   0  0  1      -1  0  0   0 -1  0   0  0 -1
                       0  0 -1   0 -1  0  -1  0  0       0  0  1   0  1  0   1  0  0
                       0 -1  1   0 -1  0   1 -1  0       0  1 -1   0  1  0  -1  1  0
                      -1  1  0   0  1  0   0  1 -1       1 -1  0   0 -1  0   0 -1  1
                       0 -1  1  -1  0  1   0  0  1       0  1 -1   1  0 -1   0  0 -1
                       0  0 -1   1  0 -1   0  1 -1       0  0  1  -1  0  1   0 -1  1
                       1  0  0   1  0 -1   1 -1  0      -1  0  0  -1  0  1  -1  1  0
                      -1  1  0  -1  0  1  -1  0  0       1 -1  0   1  0 -1   1  0  0
           toldff      1.00000000E-08
           tolmxf      1.00000000E-05
            typat      1  1  4  2  2  4  2  2  3
           useylm           1
              wtk        0.03125    0.03125    0.06250    0.03125    0.06250    0.06250
                         0.03125    0.06250    0.03125    0.06250    0.06250    0.06250
                         0.03125    0.06250    0.06250    0.03125    0.06250    0.03125
                         0.06250    0.06250
           xangst1     2.9570491009E+00  2.7980305635E+00  2.9570491009E+00
                       8.8711473027E+00  8.3940916904E+00  8.8711473027E+00
                       5.9140982018E+00  8.7886830078E+00  5.9140982018E+00
                       5.9140982018E+00  5.5960611269E+00  2.8592031897E+00
                       5.9140982019E+00  5.5960611269E+00  8.9689932140E+00
                       5.9140982019E+00  2.4034392460E+00  5.9140982019E+00
                       8.9689932140E+00  5.5960611269E+00  5.9140982019E+00
                       2.8592031897E+00  5.5960611269E+00  5.9140982018E+00
                      -2.4006540527E-19 -6.3908571442E-20 -8.1225263135E-20
           xangst2     2.9271799181E+00  2.7697676285E+00  2.9271799181E+00
                       8.7815397542E+00  8.3093028854E+00  8.7815397542E+00
                       5.8543598361E+00  8.6999084320E+00  5.8543598361E+00
                       5.8543598361E+00  5.5395352569E+00  2.8303223494E+00
                       5.8543598362E+00  5.5395352569E+00  8.8783973229E+00
                       5.8543598362E+00  2.3791620819E+00  5.8543598362E+00
                       8.8783973229E+00  5.5395352569E+00  5.8543598362E+00
                       2.8303223494E+00  5.5395352569E+00  5.8543598361E+00
                      -2.3764050218E-19 -6.3263030316E-20 -8.0404805932E-20
           xangst3     2.8973107352E+00  2.7415046935E+00  2.8973107352E+00
                       8.6919322057E+00  8.2245140804E+00  8.6919322057E+00
                       5.7946214704E+00  8.6111338562E+00  5.7946214704E+00
                       5.7946214704E+00  5.4830093870E+00  2.8014415091E+00
                       5.7946214705E+00  5.4830093870E+00  8.7878014319E+00
                       5.7946214705E+00  2.3548849178E+00  5.7946214705E+00
                       8.7878014319E+00  5.4830093870E+00  5.7946214705E+00
                       2.8014415091E+00  5.4830093870E+00  5.7946214704E+00
                      -2.3521559910E-19 -6.2617489190E-20 -7.9584348728E-20
           xangst4     2.8674415524E+00  2.7132417585E+00  2.8674415524E+00
                       8.6023246572E+00  8.1397252755E+00  8.6023246572E+00
                       5.7348831047E+00  8.5223592803E+00  5.7348831047E+00
                       5.7348831047E+00  5.4264835170E+00  2.7725606688E+00
                       5.7348831048E+00  5.4264835170E+00  8.6972055408E+00
                       5.7348831048E+00  2.3306077537E+00  5.7348831048E+00
                       8.6972055408E+00  5.4264835170E+00  5.7348831048E+00
                       2.7725606688E+00  5.4264835170E+00  5.7348831047E+00
                      -2.3279069602E-19 -6.1971948065E-20 -7.8763891525E-20
           xangst5     2.8375723696E+00  2.6849788235E+00  2.8375723696E+00
                       8.5127171087E+00  8.0549364705E+00  8.5127171087E+00
                       5.6751447391E+00  8.4335847045E+00  5.6751447391E+00
                       5.6751447391E+00  5.3699576470E+00  2.7436798285E+00
                       5.6751447392E+00  5.3699576470E+00  8.6066096498E+00
                       5.6751447392E+00  2.3063305896E+00  5.6751447392E+00
                       8.6066096498E+00  5.3699576470E+00  5.6751447392E+00
                       2.7436798285E+00  5.3699576470E+00  5.6751447391E+00
                      -2.3036579293E-19 -6.1326406939E-20 -7.7943434321E-20
           xangst6     2.8077031867E+00  2.6567158885E+00  2.8077031867E+00
                       8.4231095602E+00  7.9701476656E+00  8.4231095602E+00
                       5.6154063734E+00  8.3448101287E+00  5.6154063734E+00
                       5.6154063734E+00  5.3134317771E+00  2.7147989882E+00
                       5.6154063735E+00  5.3134317771E+00  8.5160137587E+00
                       5.6154063735E+00  2.2820534254E+00  5.6154063735E+00
                       8.5160137587E+00  5.3134317771E+00  5.6154063735E+00
                       2.7147989882E+00  5.3134317771E+00  5.6154063734E+00
                      -2.2794088985E-19 -6.0680865813E-20 -7.7122977118E-20
           xangst7     2.7778340039E+00  2.6284529535E+00  2.7778340039E+00
                       8.3335020116E+00  7.8853588606E+00  8.3335020116E+00
                       5.5556680077E+00  8.2560355528E+00  5.5556680077E+00
                       5.5556680077E+00  5.2569059071E+00  2.6859181479E+00
                       5.5556680078E+00  5.2569059071E+00  8.4254178677E+00
                       5.5556680078E+00  2.2577762613E+00  5.5556680078E+00
                       8.4254178677E+00  5.2569059071E+00  5.5556680078E+00
                       2.6859181479E+00  5.2569059071E+00  5.5556680077E+00
                      -2.2551598677E-19 -6.0035324688E-20 -7.6302519915E-20
           xangst8     2.7479648210E+00  2.6001900186E+00  2.7479648210E+00
                       8.2438944631E+00  7.8005700557E+00  8.2438944631E+00
                       5.4959296420E+00  8.1672609770E+00  5.4959296420E+00
                       5.4959296420E+00  5.2003800371E+00  2.6570373076E+00
                       5.4959296421E+00  5.2003800371E+00  8.3348219766E+00
                       5.4959296421E+00  2.2334990972E+00  5.4959296421E+00
                       8.3348219766E+00  5.2003800371E+00  5.4959296421E+00
                       2.6570373076E+00  5.2003800371E+00  5.4959296420E+00
                      -2.2309108368E-19 -5.9389783562E-20 -7.5482062711E-20
           xangst9     2.7180956382E+00  2.5719270836E+00  2.7180956382E+00
                       8.1542869146E+00  7.7157812507E+00  8.1542869146E+00
                       5.4361912764E+00  8.0784864012E+00  5.4361912764E+00
                       5.4361912764E+00  5.1438541672E+00  2.6281564673E+00
                       5.4361912765E+00  5.1438541672E+00  8.2442260856E+00
                       5.4361912765E+00  2.2092219331E+00  5.4361912765E+00
                       8.2442260856E+00  5.1438541672E+00  5.4361912765E+00
                       2.6281564673E+00  5.1438541672E+00  5.4361912764E+00
                      -2.2066618060E-19 -5.8744242436E-20 -7.4661605508E-20
           xangst10    2.6882264554E+00  2.5436641486E+00  2.6882264554E+00
                       8.0646793661E+00  7.6309924458E+00  8.0646793661E+00
                       5.3764529107E+00  7.9897118253E+00  5.3764529107E+00
                       5.3764529107E+00  5.0873282972E+00  2.5992756270E+00
                       5.3764529108E+00  5.0873282972E+00  8.1536301945E+00
                       5.3764529108E+00  2.1849447690E+00  5.3764529108E+00
                       8.1536301945E+00  5.0873282972E+00  5.3764529108E+00
                       2.5992756270E+00  5.0873282972E+00  5.3764529107E+00
                      -2.1824127752E-19 -5.8098701311E-20 -7.3841148305E-20
            xcart1     5.5880129622E+00  5.2875114764E+00  5.5880129622E+00
                       1.6764038887E+01  1.5862534429E+01  1.6764038887E+01
                       1.1176025924E+01  1.6608203954E+01  1.1176025924E+01
                       1.1176025924E+01  1.0575022953E+01  5.4031109867E+00
                       1.1176025925E+01  1.0575022953E+01  1.6948940862E+01
                       1.1176025925E+01  4.5418419519E+00  1.1176025925E+01
                       1.6948940862E+01  1.0575022953E+01  1.1176025925E+01
                       5.4031109867E+00  1.0575022953E+01  1.1176025924E+01
                      -4.5365786994E-19 -1.2076969757E-19 -1.5349350240E-19
            xcart2     5.5315683868E+00  5.2341022695E+00  5.5315683868E+00
                       1.6594705161E+01  1.5702306809E+01  1.6594705161E+01
                       1.1063136774E+01  1.6440444318E+01  1.1063136774E+01
                       1.1063136774E+01  1.0468204539E+01  5.3485341081E+00
                       1.1063136774E+01  1.0468204539E+01  1.6777739439E+01
                       1.1063136774E+01  4.4959647604E+00  1.1063136774E+01
                       1.6777739439E+01  1.0468204539E+01  1.1063136774E+01
                       5.3485341081E+00  1.0468204539E+01  1.1063136774E+01
                      -4.4907546721E-19 -1.1954980163E-19 -1.5194306298E-19
            xcart3     5.4751238115E+00  5.1806930627E+00  5.4751238115E+00
                       1.6425371434E+01  1.5542079188E+01  1.6425371434E+01
                       1.0950247623E+01  1.6272684682E+01  1.0950247623E+01
                       1.0950247623E+01  1.0361386125E+01  5.2939572294E+00
                       1.0950247623E+01  1.0361386125E+01  1.6606538016E+01
                       1.0950247623E+01  4.4500875690E+00  1.0950247623E+01
                       1.6606538016E+01  1.0361386125E+01  1.0950247623E+01
                       5.2939572294E+00  1.0361386125E+01  1.0950247623E+01
                      -4.4449306448E-19 -1.1832990570E-19 -1.5039262356E-19
            xcart4     5.4186792361E+00  5.1272838559E+00  5.4186792361E+00
                       1.6256037708E+01  1.5381851568E+01  1.6256037708E+01
                       1.0837358472E+01  1.6104925046E+01  1.0837358472E+01
                       1.0837358472E+01  1.0254567712E+01  5.2393803508E+00
                       1.0837358472E+01  1.0254567712E+01  1.6435336594E+01
                       1.0837358472E+01  4.4042103776E+00  1.0837358472E+01
                       1.6435336594E+01  1.0254567712E+01  1.0837358472E+01
                       5.2393803508E+00  1.0254567712E+01  1.0837358472E+01
                      -4.3991066176E-19 -1.1711000976E-19 -1.4884218414E-19
            xcart5     5.3622346607E+00  5.0738746490E+00  5.3622346607E+00
                       1.6086703982E+01  1.5221623947E+01  1.6086703982E+01
                       1.0724469321E+01  1.5937165410E+01  1.0724469321E+01
                       1.0724469321E+01  1.0147749298E+01  5.1848034721E+00
                       1.0724469322E+01  1.0147749298E+01  1.6264135171E+01
                       1.0724469322E+01  4.3583331861E+00  1.0724469322E+01
                       1.6264135171E+01  1.0147749298E+01  1.0724469322E+01
                       5.1848034721E+00  1.0147749298E+01  1.0724469321E+01
                      -4.3532825903E-19 -1.1589011383E-19 -1.4729174472E-19
            xcart6     5.3057900853E+00  5.0204654422E+00  5.3057900853E+00
                       1.5917370256E+01  1.5061396327E+01  1.5917370256E+01
                       1.0611580171E+01  1.5769405774E+01  1.0611580171E+01
                       1.0611580171E+01  1.0040930884E+01  5.1302265935E+00
                       1.0611580171E+01  1.0040930884E+01  1.6092933748E+01
                       1.0611580171E+01  4.3124559947E+00  1.0611580171E+01
                       1.6092933748E+01  1.0040930884E+01  1.0611580171E+01
                       5.1302265935E+00  1.0040930884E+01  1.0611580171E+01
                      -4.3074585630E-19 -1.1467021789E-19 -1.4574130531E-19
            xcart7     5.2493455100E+00  4.9670562354E+00  5.2493455100E+00
                       1.5748036530E+01  1.4901168706E+01  1.5748036530E+01
                       1.0498691020E+01  1.5601646138E+01  1.0498691020E+01
                       1.0498691020E+01  9.9341124707E+00  5.0756497148E+00
                       1.0498691020E+01  9.9341124707E+00  1.5921732325E+01
                       1.0498691020E+01  4.2665788033E+00  1.0498691020E+01
                       1.5921732325E+01  9.9341124707E+00  1.0498691020E+01
                       5.0756497148E+00  9.9341124707E+00  1.0498691020E+01
                      -4.2616345358E-19 -1.1345032196E-19 -1.4419086589E-19
            xcart8     5.1929009346E+00  4.9136470285E+00  5.1929009346E+00
                       1.5578702804E+01  1.4740941086E+01  1.5578702804E+01
                       1.0385801869E+01  1.5433886502E+01  1.0385801869E+01
                       1.0385801869E+01  9.8272940571E+00  5.0210728361E+00
                       1.0385801869E+01  9.8272940571E+00  1.5750530902E+01
                       1.0385801869E+01  4.2207016118E+00  1.0385801869E+01
                       1.5750530902E+01  9.8272940571E+00  1.0385801869E+01
                       5.0210728361E+00  9.8272940571E+00  1.0385801869E+01
                      -4.2158105085E-19 -1.1223042602E-19 -1.4264042647E-19
            xcart9     5.1364563592E+00  4.8602378217E+00  5.1364563592E+00
                       1.5409369078E+01  1.4580713465E+01  1.5409369078E+01
                       1.0272912718E+01  1.5266126866E+01  1.0272912718E+01
                       1.0272912718E+01  9.7204756434E+00  4.9664959575E+00
                       1.0272912719E+01  9.7204756434E+00  1.5579329479E+01
                       1.0272912719E+01  4.1748244204E+00  1.0272912719E+01
                       1.5579329479E+01  9.7204756434E+00  1.0272912719E+01
                       4.9664959575E+00  9.7204756434E+00  1.0272912718E+01
                      -4.1699864812E-19 -1.1101053009E-19 -1.4108998705E-19
            xcart10    5.0800117838E+00  4.8068286149E+00  5.0800117838E+00
                       1.5240035351E+01  1.4420485845E+01  1.5240035351E+01
                       1.0160023568E+01  1.5098367231E+01  1.0160023568E+01
                       1.0160023568E+01  9.6136572298E+00  4.9119190788E+00
                       1.0160023568E+01  9.6136572298E+00  1.5408128056E+01
                       1.0160023568E+01  4.1289472290E+00  1.0160023568E+01
                       1.5408128056E+01  9.6136572298E+00  1.0160023568E+01
                       4.9119190788E+00  9.6136572298E+00  1.0160023568E+01
                      -4.1241624540E-19 -1.0979063415E-19 -1.3953954763E-19
             xred      2.5000000000E-01  2.5000000000E-01  2.5000000000E-01
                       7.5000000000E-01  7.5000000000E-01  7.5000000000E-01
                       7.8525616577E-01  2.1474383423E-01  7.8525616577E-01
                       2.4172774040E-01  2.4172774040E-01  7.5827225960E-01
                       7.5827225960E-01  7.5827225960E-01  2.4172774040E-01
                       2.1474383423E-01  7.8525616577E-01  2.1474383423E-01
                       2.4172774040E-01  7.5827225960E-01  7.5827225960E-01
                       7.5827225960E-01  2.4172774040E-01  2.4172774040E-01
                       7.7188014048E-21 -2.1452976990E-20 -1.9139078988E-20
            znucl       55.00000   53.00000   72.00000   17.00000

================================================================================

 chkinp: Checking input parameters for consistency, jdtset=   1.

 chkinp: Checking input parameters for consistency, jdtset=   2.

 chkinp: Checking input parameters for consistency, jdtset=   3.

 chkinp: Checking input parameters for consistency, jdtset=   4.

 chkinp: Checking input parameters for consistency, jdtset=   5.

 chkinp: Checking input parameters for consistency, jdtset=   6.

 chkinp: Checking input parameters for consistency, jdtset=   7.

 chkinp: Checking input parameters for consistency, jdtset=   8.

 chkinp: Checking input parameters for consistency, jdtset=   9.

 chkinp: Checking input parameters for consistency, jdtset=  10.

================================================================================
== DATASET  1 ==================================================================
-   mpi_nproc: 4, omp_nthreads: -1 (-1 if OMP is not activated)


--- !DatasetInfo
iteration_state: {dtset: 1, }
dimensions: {natom: 9, nkpt: 20, mband: 42, nsppol: 1, nspinor: 1, nspden: 1, mpw: 12320, }
cutoff_energies: {ecut:  16.0, pawecutdg:  40.0, }
electrons: {nelect:   7.20000000E+01, charge:   0.00000000E+00, occopt:   1.00000000E+00, tsmear:   1.00000000E-02, }
meta: {optdriver: 0, ionmov: 2, optcell: 3, iscf: 17, paral_kgb: 0, }
...

 Real(R)+Recip(G) space primitive vectors, cartesian coordinates (Bohr,Bohr^-1):
 R(1)=  0.0000000 10.5750230 11.1760259  G(1)= -0.0447386  0.0472812  0.0447386
 R(2)= 11.1760259  0.0000000 11.1760259  G(2)=  0.0447386 -0.0472812  0.0447386
 R(3)= 11.1760259 10.5750230  0.0000000  G(3)=  0.0447386  0.0472812 -0.0447386
 Unit cell volume ucvol=  2.6417159E+03 bohr^3
 Angles (23,13,12)=  5.90947774E+01  6.18104453E+01  5.90947774E+01 degrees

 Coarse grid specifications (used for wave-functions):

 getcut: wavevector=  0.0000  0.0000  0.0000  ngfft=  72  72  72
         ecut(hartree)=     21.160   => boxcut(ratio)=   2.19992

 Fine grid specifications (used for densities):

 getcut: wavevector=  0.0000  0.0000  0.0000  ngfft= 108 108 108
         ecut(hartree)=     52.900   => boxcut(ratio)=   2.08703

--- Pseudopotential description ------------------------------------------------
- pspini: atom type   1  psp file is ../../../Psps_for_tests/ATOMICDATA/Cs.GGA_PBE-JTH.xml
- pspatm: opening atomic psp file    ../../../Psps_for_tests/ATOMICDATA/Cs.GGA_PBE-JTH.xml
- pspatm : Reading pseudopotential header in XML form from ../../../Psps_for_tests/ATOMICDATA/Cs.GGA_PBE-JTH.xml
 Pseudopotential format is: paw10
 basis_size (lnmax)=  6 (lmn_size= 18), orbitals=   0   0   1   1   2   2
 Spheres core radius: rc_sph= 2.20660278
 1 radial meshes are used:
  - mesh 1: r(i)=AA*[exp(BB*(i-1))-1], size=1500 , AA= 0.15922E-03 BB= 0.87573E-02
 Shapefunction is SIN type: shapef(r)=[sin(pi*r/rshp)/(pi*r/rshp)]**2
 Radius for shape functions =  2.00394208
 mmax= 1500
 Radial grid used for partial waves is grid 1
 Radial grid used for projectors is grid 1
 Radial grid used for (t)core density is grid 1
 Radial grid used for Vloc is grid 1
 Radial grid used for pseudo valence density is grid 1
 Mesh size for Vloc has been set to 1341 to avoid numerical noise.
 Compensation charge density is not taken into account in XC energy/potential
 pspatm: atomic psp has been read  and splines computed

- pspini: atom type   2  psp file is ../../../Psps_for_tests/ATOMICDATA/I.GGA_PBE-JTH.xml
- pspatm: opening atomic psp file    ../../../Psps_for_tests/ATOMICDATA/I.GGA_PBE-JTH.xml
- pspatm : Reading pseudopotential header in XML form from ../../../Psps_for_tests/ATOMICDATA/I.GGA_PBE-JTH.xml
 Pseudopotential format is: paw10
 basis_size (lnmax)=  4 (lmn_size=  8), orbitals=   0   0   1   1
 Spheres core radius: rc_sph= 2.30022271
 1 radial meshes are used:
  - mesh 1: r(i)=AA*[exp(BB*(i-1))-1], size=2000 , AA= 0.12610E-03 BB= 0.66836E-02
 Shapefunction is SIN type: shapef(r)=[sin(pi*r/rshp)/(pi*r/rshp)]**2
 Radius for shape functions =  2.10879093
 mmax= 2000
 Radial grid used for partial waves is grid 1
 Radial grid used for projectors is grid 1
 Radial grid used for (t)core density is grid 1
 Radial grid used for Vloc is grid 1
 Radial grid used for pseudo valence density is grid 1
 Mesh size for Vloc has been set to 1792 to avoid numerical noise.
 Compensation charge density is not taken into account in XC energy/potential
 pspatm: atomic psp has been read  and splines computed

- pspini: atom type   3  psp file is ../../../Psps_for_tests/ATOMICDATA/Hf.GGA_PBE-JTH.xml
- pspatm: opening atomic psp file    ../../../Psps_for_tests/ATOMICDATA/Hf.GGA_PBE-JTH.xml
- pspatm : Reading pseudopotential header in XML form from ../../../Psps_for_tests/ATOMICDATA/Hf.GGA_PBE-JTH.xml
 Pseudopotential format is: paw10
 basis_size (lnmax)=  6 (lmn_size= 18), orbitals=   0   0   1   1   2   2
 Spheres core radius: rc_sph= 2.41000000
 1 radial meshes are used:
  - mesh 1: r(i)=AA*[exp(BB*(i-1))-1], size= 972 , AA= 0.19796E-03 BB= 0.14253E-01
 Shapefunction is SIN type: shapef(r)=[sin(pi*r/rshp)/(pi*r/rshp)]**2
 Radius for shape functions =  2.41000000
 mmax=  972
 Radial grid used for partial waves is grid 1
 Radial grid used for projectors is grid 1
 Radial grid used for (t)core density is grid 1
 Radial grid used for Vloc is grid 1
 Radial grid used for pseudo valence density is grid 1
 Mesh size for Vloc has been set to  809 to avoid numerical noise.
 Compensation charge density is not taken into account in XC energy/potential
 pspatm: atomic psp has been read  and splines computed

- pspini: atom type   4  psp file is ../../../Psps_for_tests/ATOMICDATA/Cl.GGA_PBE-JTH.xml
- pspatm: opening atomic psp file    ../../../Psps_for_tests/ATOMICDATA/Cl.GGA_PBE-JTH.xml
- pspatm : Reading pseudopotential header in XML form from ../../../Psps_for_tests/ATOMICDATA/Cl.GGA_PBE-JTH.xml
 Pseudopotential format is: paw10
 basis_size (lnmax)=  4 (lmn_size=  8), orbitals=   0   0   1   1
 Spheres core radius: rc_sph= 1.80315674
 1 radial meshes are used:
  - mesh 1: r(i)=AA*[exp(BB*(i-1))-1], size=1400 , AA= 0.50355E-03 BB= 0.85603E-02
 Shapefunction is SIN type: shapef(r)=[sin(pi*r/rshp)/(pi*r/rshp)]**2
 Radius for shape functions =  1.61320365
 mmax= 1400
 Radial grid used for partial waves is grid 1
 Radial grid used for projectors is grid 1
 Radial grid used for (t)core density is grid 1
 Radial grid used for Vloc is grid 1
 Radial grid used for pseudo valence density is grid 1
 Mesh size for Vloc has been set to 1238 to avoid numerical noise.
 Compensation charge density is not taken into account in XC energy/potential
 pspatm: atomic psp has been read  and splines computed

   3.86254194E+04                                ecore*ucvol(ha*bohr**3)
--------------------------------------------------------------------------------

_setup2: Arith. and geom. avg. npw (full set) are   12280.938   12280.931

================================================================================

=== [ionmov= 2] Broyden-Fletcher-Goldfard-Shanno method (forces)            
================================================================================

--- Iteration: (   1/1000) Internal Cycle: (1/1)
--------------------------------------------------------------------------------

---SELF-CONSISTENT-FIELD CONVERGENCE--------------------------------------------

--- !BeginCycle
iteration_state: {dtset: 1, itime: 1, icycle: 1, }
solver: {iscf: 17, nstep: 2500, nline: 4, wfoptalg: 10, }
tolerances: {toldff: 1.00E-08, }
...

     iter   Etot(hartree)      deltaE(h)  residm     nres2    diffor    maxfor
 ETOT  1  -166.84322454644    -1.668E+02 7.466E+00 1.041E+01 6.498E-03 6.498E-03
 ETOT  2  -168.35915478581    -1.516E+00 1.726E-02 4.334E+00 2.589E-02 2.062E-02
 ETOT  3  -168.34703561549     1.212E-02 1.263E-02 7.086E-01 4.500E-02 2.438E-02
 ETOT  4  -168.34790565673    -8.700E-04 6.301E-03 1.719E-01 3.514E-02 1.076E-02
 ETOT  5  -168.34801271718    -1.071E-04 3.507E-03 2.602E-02 1.006E-02 1.232E-03
 ETOT  6  -168.34809159336    -7.888E-05 1.391E-03 2.662E-03 5.339E-03 6.038E-03
 ETOT  7  -168.34810148085    -9.887E-06 1.035E-03 8.367E-04 8.275E-05 6.121E-03
 ETOT  8  -168.34810823490    -6.754E-06 5.050E-04 9.385E-05 3.599E-04 6.481E-03
 ETOT  9  -168.34810842568    -1.908E-07 3.725E-04 9.671E-06 1.931E-04 6.674E-03
 ETOT 10  -168.34810850162    -7.594E-08 2.815E-04 2.578E-06 2.895E-05 6.645E-03
 ETOT 11  -168.34810850160     1.990E-11 1.789E-04 1.658E-07 1.515E-05 6.629E-03
 ETOT 12  -168.34810850250    -9.064E-10 1.245E-04 8.670E-08 4.594E-06 6.630E-03
 ETOT 13  -168.34810850216     3.452E-10 7.388E-05 7.664E-09 1.661E-06 6.632E-03
 ETOT 14  -168.34810850217    -1.134E-11 5.570E-05 3.591E-09 2.471E-07 6.632E-03
 ETOT 15  -168.34810850223    -5.639E-11 2.995E-05 3.090E-10 5.843E-07 6.631E-03
 ETOT 16  -168.34810850224    -1.137E-11 2.540E-05 6.261E-11 1.167E-07 6.631E-03
 ETOT 17  -168.34810850224    -2.984E-12 1.881E-05 9.614E-12 1.194E-07 6.631E-03
 ETOT 18  -168.34810850224     9.095E-13 1.468E-05 4.977E-13 5.917E-08 6.631E-03
 ETOT 19  -168.34810850224     4.121E-12 1.166E-05 1.157E-13 4.605E-09 6.631E-03
 ETOT 20  -168.34810850223     2.188E-12 1.276E-05 1.640E-14 2.071E-09 6.631E-03

 At SCF step   20, forces are converged : 
  for the second time, max diff in force=  2.071E-09 < toldff=  1.000E-08

 Cartesian components of stress tensor (hartree/bohr^3)
  sigma(1 1)= -2.31956377E-05  sigma(3 2)=  1.04933777E-13
  sigma(2 2)= -2.84944902E-05  sigma(3 1)= -1.98582121E-13
  sigma(3 3)= -2.31956377E-05  sigma(2 1)=  1.04933679E-13


--- !ResultsGS
iteration_state: {dtset: 1, itime: 1, icycle: 1, }
comment   : Summary of ground state results
lattice_vectors:
- [  0.0000000,  10.5750230,  11.1760259, ]
- [ 11.1760259,   0.0000000,  11.1760259, ]
- [ 11.1760259,  10.5750230,   0.0000000, ]
lattice_lengths: [  15.38618,   15.80529,   15.38618, ]
lattice_angles: [ 59.095,  61.810,  59.095, ] # degrees, (23, 13, 12)
lattice_volume:   2.6417159E+03
convergence: {deltae:  2.188E-12, res2:  1.640E-14, residm:  1.276E-05, diffor:  2.071E-09, }
etotal    :  -1.68348109E+02
entropy   :   0.00000000E+00
fermie    :  -1.05831844E-01
cartesian_stress_tensor: # hartree/bohr^3
- [ -2.31956377E-05,   1.04933679E-13,  -1.98582121E-13, ]
- [  1.04933679E-13,  -2.84944902E-05,   1.04933777E-13, ]
- [ -1.98582121E-13,   1.04933777E-13,  -2.31956377E-05, ]
pressure_GPa:   7.3440E-01
xred      :
- [  2.5000E-01,   2.5000E-01,   2.5000E-01, Cs]
- [  7.5000E-01,   7.5000E-01,   7.5000E-01, Cs]
- [  7.8526E-01,   2.1474E-01,   7.8526E-01, Cl]
- [  2.4173E-01,   2.4173E-01,   7.5827E-01,  I]
- [  7.5827E-01,   7.5827E-01,   2.4173E-01,  I]
- [  2.1474E-01,   7.8526E-01,   2.1474E-01, Cl]
- [  2.4173E-01,   7.5827E-01,   7.5827E-01,  I]
- [  7.5827E-01,   2.4173E-01,   2.4173E-01,  I]
- [  7.7188E-21,  -2.1453E-20,  -1.9139E-20, Hf]
cartesian_forces: # hartree/bohr
- [  9.39628849E-28,  -4.81867632E-20,  -7.54597337E-20, ]
- [ -1.08418713E-28,  -4.81867624E-20,  -7.54597327E-20, ]
- [ -1.88224143E-19,  -6.63092203E-03,   1.12764410E-19, ]
- [ -7.80265892E-14,   8.24606649E-14,   4.33124579E-03, ]
- [  7.80262787E-14,  -8.24604332E-14,  -4.33124579E-03, ]
- [  1.88224143E-19,   6.63092203E-03,  -2.63683876E-19, ]
- [ -4.33124579E-03,  -8.24610893E-14,   7.80268242E-14, ]
- [  4.33124579E-03,   8.24605593E-14,  -7.80269751E-14, ]
- [ -0.00000000E+00,  -4.81867632E-20,  -7.54597328E-20, ]
force_length_stats: {min:   8.95328729E-20, max:   6.63092203E-03, mean:   3.39853636E-03, }
...

 Integrated electronic density in atomic spheres:
 ------------------------------------------------
 Atom  Sphere_radius  Integrated_density
    1        2.20660          5.35801284
    2        2.20660          5.35801284
    3        1.80316          4.36872508
    4        2.30022          4.02461886
    5        2.30022          4.02461886
    6        1.80316          4.36872508
    7        2.30022          4.02461886
    8        2.30022          4.02461886
    9        2.41000          9.32204188

 PAW TEST:
 ==== Compensation charge inside spheres ============
 The following values must be close to each other ...
 Compensation charge over spherical meshes =     -0.872267113353274
 Compensation charge over fine fft grid    =     -0.872277220681345

 ==== Results concerning PAW augmentation regions ====

 Total pseudopotential strength Dij (hartree):
 Atom #  1
   0.44452  -0.14717   0.00000   0.00000   0.00000   0.00000   0.00000   0.00000   0.00000   0.00000   0.00000   0.00000 ...
  -0.14717   0.04438   0.00000   0.00000   0.00000   0.00000   0.00000   0.00000   0.00000   0.00000  -0.00000   0.00000 ...
   0.00000   0.00000  -0.09410   0.00000   0.00000  -0.16623   0.00000   0.00000   0.00000   0.00000   0.00000   0.00000 ...
   0.00000   0.00000   0.00000  -0.09410   0.00000   0.00000  -0.16624   0.00000   0.00000   0.00000   0.00000   0.00000 ...
   0.00000   0.00000   0.00000   0.00000  -0.09410   0.00000   0.00000  -0.16624   0.00000   0.00000   0.00000   0.00000 ...
   0.00000   0.00000  -0.16623   0.00000   0.00000   0.40528   0.00000   0.00000   0.00000   0.00000   0.00000   0.00000 ...
   0.00000   0.00000   0.00000  -0.16624   0.00000   0.00000   0.40529   0.00000   0.00000   0.00000   0.00000   0.00000 ...
   0.00000   0.00000   0.00000   0.00000  -0.16624   0.00000   0.00000   0.40529   0.00000   0.00000   0.00000   0.00000 ...
   0.00000   0.00000   0.00000   0.00000   0.00000   0.00000   0.00000   0.00000   0.00515   0.00000   0.00000   0.00000 ...
   0.00000   0.00000   0.00000   0.00000   0.00000   0.00000   0.00000   0.00000   0.00000   0.00515   0.00000   0.00000 ...
   0.00000  -0.00000   0.00000   0.00000   0.00000   0.00000   0.00000   0.00000   0.00000   0.00000   0.00515   0.00000 ...
   0.00000   0.00000   0.00000   0.00000   0.00000   0.00000   0.00000   0.00000   0.00000   0.00000   0.00000   0.00515 ...
   ...  only 12  components have been written...
 Atom #  9
  -3.52221   0.42965   0.00000   0.00000   0.00000   0.00000   0.00000   0.00000   0.00000   0.00000  -0.00026   0.00000 ...
   0.42965   0.00259   0.00000   0.00000   0.00000   0.00000   0.00000   0.00000   0.00000   0.00000   0.00004   0.00000 ...
   0.00000   0.00000  -1.46129   0.00000   0.00000   0.12449   0.00000   0.00000   0.00000   0.00000   0.00000   0.00000 ...
   0.00000   0.00000   0.00000  -1.46309   0.00000   0.00000   0.12481   0.00000   0.00000   0.00000   0.00000   0.00000 ...
   0.00000   0.00000   0.00000   0.00000  -1.46309   0.00000   0.00000   0.12481   0.00000   0.00000   0.00000   0.00000 ...
   0.00000   0.00000   0.12449   0.00000   0.00000   0.01321   0.00000   0.00000   0.00000   0.00000   0.00000   0.00000 ...
   0.00000   0.00000   0.00000   0.12481   0.00000   0.00000   0.01316   0.00000   0.00000   0.00000   0.00000   0.00000 ...
   0.00000   0.00000   0.00000   0.00000   0.12481   0.00000   0.00000   0.01316   0.00000   0.00000   0.00000   0.00000 ...
   0.00000   0.00000   0.00000   0.00000   0.00000   0.00000   0.00000   0.00000  -0.39510   0.00000   0.00000   0.00000 ...
   0.00000   0.00000   0.00000   0.00000   0.00000   0.00000   0.00000   0.00000   0.00000  -0.39510   0.00000   0.00000 ...
  -0.00026   0.00004   0.00000   0.00000   0.00000   0.00000   0.00000   0.00000   0.00000   0.00000  -0.39465   0.00000 ...
   0.00000   0.00000   0.00000   0.00000   0.00000   0.00000   0.00000   0.00000   0.00000   0.00000   0.00000  -0.39544 ...
   ...  only 12  components have been written...


 Augmentation waves occupancies Rhoij:
 Atom #  1
   1.99695  -0.01643   0.00000   0.00000   0.00000   0.00000   0.00000   0.00000   0.00000   0.00000   0.00115   0.00000 ...
  -0.01643   0.13468   0.00000   0.00000   0.00000   0.00000   0.00000   0.00000   0.00000   0.00000  -0.01008   0.00000 ...
   0.00000   0.00000   2.00964   0.00000   0.00000  -0.00533   0.00000   0.00000   0.00000   0.00000   0.00000   0.00089 ...
   0.00000   0.00000   0.00000   2.00762   0.00000   0.00000  -0.00493   0.00000   0.00038   0.00000   0.00000   0.00000 ...
   0.00000   0.00000   0.00000   0.00000   2.00762   0.00000   0.00000  -0.00493   0.00000   0.00038   0.00000   0.00000 ...
   0.00000   0.00000  -0.00533   0.00000   0.00000   0.00011   0.00000   0.00000   0.00000   0.00000   0.00000  -0.00005 ...
   0.00000   0.00000   0.00000  -0.00493   0.00000   0.00000   0.00008   0.00000  -0.00002   0.00000   0.00000   0.00000 ...
   0.00000   0.00000   0.00000   0.00000  -0.00493   0.00000   0.00000   0.00008   0.00000  -0.00002   0.00000   0.00000 ...
   0.00000   0.00000   0.00000   0.00038   0.00000   0.00000  -0.00002   0.00000   0.05281   0.00000   0.00000   0.00000 ...
   0.00000   0.00000   0.00000   0.00000   0.00038   0.00000   0.00000  -0.00002   0.00000   0.05281   0.00000   0.00000 ...
   0.00115  -0.01008   0.00000   0.00000   0.00000   0.00000   0.00000   0.00000   0.00000   0.00000   0.03120   0.00000 ...
   0.00000   0.00000   0.00089   0.00000   0.00000  -0.00005   0.00000   0.00000   0.00000   0.00000   0.00000   0.01212 ...
   ...  only 12  components have been written...
 Atom #  9
   1.99791  -0.02130   0.00000   0.00000   0.00000   0.00000   0.00000   0.00000   0.00000   0.00000  -0.00177   0.00000 ...
  -0.02130   1.01560   0.00000   0.00000   0.00000   0.00000   0.00000   0.00000   0.00000   0.00000  -0.06179   0.00000 ...
   0.00000   0.00000   1.99196   0.00000   0.00000  -0.07146   0.00000   0.00000   0.00000   0.00000   0.00000   0.00000 ...
   0.00000   0.00000   0.00000   1.99278   0.00000   0.00000  -0.06065   0.00000   0.00000   0.00000   0.00000   0.00000 ...
   0.00000   0.00000   0.00000   0.00000   1.99278   0.00000   0.00000  -0.06065   0.00000   0.00000   0.00000   0.00000 ...
   0.00000   0.00000  -0.07146   0.00000   0.00000   1.63873   0.00000   0.00000   0.00000   0.00000   0.00000   0.00000 ...
   0.00000   0.00000   0.00000  -0.06065   0.00000   0.00000   1.15964   0.00000   0.00000   0.00000   0.00000   0.00000 ...
   0.00000   0.00000   0.00000   0.00000  -0.06065   0.00000   0.00000   1.15964   0.00000   0.00000   0.00000   0.00000 ...
   0.00000   0.00000   0.00000   0.00000   0.00000   0.00000   0.00000   0.00000   0.53205   0.00000   0.00000   0.00000 ...
   0.00000   0.00000   0.00000   0.00000   0.00000   0.00000   0.00000   0.00000   0.00000   0.53205   0.00000   0.00000 ...
  -0.00177  -0.06179   0.00000   0.00000   0.00000   0.00000   0.00000   0.00000   0.00000   0.00000   1.41633   0.00000 ...
   0.00000   0.00000   0.00000   0.00000   0.00000   0.00000   0.00000   0.00000   0.00000   0.00000   0.00000   0.41919 ...
   ...  only 12  components have been written...



---OUTPUT-----------------------------------------------------------------------

 Cartesian coordinates (xcart) [bohr]
  5.58801296221155E+00  5.28751147636514E+00  5.58801296221155E+00
  1.67640388866346E+01  1.58625344290954E+01  1.67640388866346E+01
  1.11760259243082E+01  1.66082039535815E+01  1.11760259243082E+01
  1.11760259243191E+01  1.05750229527303E+01  5.40311098672523E+00
  1.11760259245271E+01  1.05750229527303E+01  1.69489408621209E+01
  1.11760259245380E+01  4.54184195187911E+00  1.11760259245380E+01
  1.69489408621210E+01  1.05750229527303E+01  1.11760259245271E+01
  5.40311098672523E+00  1.05750229527303E+01  1.11760259243191E+01
 -4.53657869936227E-19 -1.20769697568891E-19 -1.53493502396647E-19
 Reduced coordinates (xred)
  2.50000000000000E-01  2.50000000000000E-01  2.50000000000000E-01
  7.50000000000000E-01  7.50000000000000E-01  7.50000000000000E-01
  7.85256165770000E-01  2.14743834230000E-01  7.85256165770000E-01
  2.41727740400000E-01  2.41727740400000E-01  7.58272259600000E-01
  7.58272259600000E-01  7.58272259600000E-01  2.41727740400000E-01
  2.14743834230000E-01  7.85256165770000E-01  2.14743834230000E-01
  2.41727740400000E-01  7.58272259600000E-01  7.58272259600000E-01
  7.58272259600000E-01  2.41727740400000E-01  2.41727740400000E-01
  7.71880140480000E-21 -2.14529769900000E-20 -1.91390789880000E-20
 Cartesian forces (fcart) [Ha/bohr]; max,rms= 6.63092E-03 2.45687E-03 (free atoms)
  9.39628848528586E-28 -4.81867632215780E-20 -7.54597337143120E-20
 -1.08418713291760E-28 -4.81867624195152E-20 -7.54597326662644E-20
 -1.88224143021032E-19 -6.63092202801461E-03  1.12764410246349E-19
 -7.80265891749229E-14  8.24606648929432E-14  4.33124579225460E-03
  7.80262787383710E-14 -8.24604331870917E-14 -4.33124579225460E-03
  1.88224143021032E-19  6.63092202801461E-03 -2.63683875795715E-19
 -4.33124579225460E-03 -8.24610893458475E-14  7.80268241517421E-14
  4.33124579225460E-03  8.24605592914521E-14 -7.80269750712076E-14
 -0.00000000000000E+00 -4.81867632215780E-20 -7.54597327746831E-20
 Reduced forces (fred)
  1.35291606731199E-18  8.43339929755090E-19  5.09576116584650E-19
  1.35291604711715E-18  8.43339929755090E-19  5.09576119815824E-19
  7.01221526440193E-02  8.43339929755090E-19  7.01221526440193E-02
 -4.84061152592859E-02 -4.84061152592859E-02  3.75945726489889E-18
  4.84061152592858E-02  4.84061152592859E-02 -2.74030501067502E-18
 -7.01221526440193E-02  8.43339929755090E-19 -7.01221526440193E-02
 -1.89696508089841E-18  4.84061152592859E-02  4.84061152592859E-02
  9.18898233852334E-18 -4.84061152592859E-02 -4.84061152592859E-02
  1.35291605681067E-18  8.43339929755090E-19  5.09576127085967E-19
 Scale of Primitive Cell (acell) [bohr]
  1.53861842544300E+01  1.58052874359600E+01  1.53861842544300E+01
 Real space primitive translations (rprimd) [bohr]
  0.00000000000000E+00  1.05750229527303E+01  1.11760259242218E+01
  1.11760259246244E+01  0.00000000000000E+00  1.11760259246244E+01
  1.11760259242218E+01  1.05750229527303E+01  0.00000000000000E+00
 Unitary Cell Volume (ucvol) [Bohr^3]=  2.64171593180566E+03
 Angles (23,13,12)= [degrees]
  5.90947773575621E+01  6.18104452848758E+01  5.90947773575621E+01
 Lengths [Bohr]
  1.53861842543773E+01  1.58052874360372E+01  1.53861842543773E+01
 Stress tensor in cartesian coordinates (strten) [Ha/bohr^3]
 -2.31956377040234E-05  1.04933678553998E-13 -1.98582120545172E-13
  1.04933678553998E-13 -2.84944902338036E-05  1.04933777331494E-13
 -1.98582120545172E-13  1.04933777331494E-13 -2.31956377040234E-05
 Total energy (etotal) [Ha]= -1.68348108502234E+02

--- Iteration: (   2/1000) Internal Cycle: (1/1)
--------------------------------------------------------------------------------

---SELF-CONSISTENT-FIELD CONVERGENCE--------------------------------------------

--- !BeginCycle
iteration_state: {dtset: 1, itime: 2, icycle: 1, }
solver: {iscf: 17, nstep: 2500, nline: 4, wfoptalg: 10, }
tolerances: {toldff: 1.00E-08, }
...

     iter   Etot(hartree)      deltaE(h)  residm     nres2    diffor    maxfor
 ETOT  1  -168.34850219951    -1.683E+02 3.448E-04 5.262E-02 2.131E-02 2.794E-02
 ETOT  2  -168.34828171072     2.205E-04 3.199E-04 5.661E-03 2.372E-02 4.222E-03
 ETOT  3  -168.34826270580     1.900E-05 6.263E-05 4.832E-04 3.030E-03 7.252E-03
 ETOT  4  -168.34826238648     3.193E-07 1.840E-04 1.421E-04 1.367E-03 5.886E-03
 ETOT  5  -168.34826236588     2.060E-08 3.694E-05 4.789E-05 1.343E-04 5.983E-03
 ETOT  6  -168.34826241661    -5.074E-08 1.015E-04 9.964E-06 3.203E-04 5.663E-03
 ETOT  7  -168.34826243459    -1.797E-08 2.157E-05 4.688E-06 6.036E-05 5.723E-03
 ETOT  8  -168.34826245923    -2.465E-08 5.535E-05 4.227E-07 4.837E-05 5.678E-03
 ETOT  9  -168.34826246391    -4.680E-09 1.298E-05 1.368E-07 2.361E-06 5.676E-03
 ETOT 10  -168.34826246468    -7.660E-10 3.049E-05 2.955E-08 4.011E-06 5.672E-03
 ETOT 11  -168.34826246382     8.586E-10 8.080E-06 5.457E-09 9.677E-07 5.672E-03
 ETOT 12  -168.34826246318     6.410E-10 1.723E-05 1.187E-09 7.545E-07 5.672E-03
 ETOT 13  -168.34826246259     5.847E-10 5.306E-06 9.315E-11 4.229E-07 5.671E-03
 ETOT 14  -168.34826246240     1.930E-10 1.010E-05 4.753E-11 7.250E-08 5.671E-03
 ETOT 15  -168.34826246229     1.152E-10 3.678E-06 2.630E-12 3.782E-08 5.671E-03
 ETOT 16  -168.34826246224     4.454E-11 6.206E-06 3.046E-12 1.533E-08 5.671E-03
 ETOT 17  -168.34826246219     4.971E-11 2.678E-06 5.099E-13 3.350E-09 5.671E-03
 ETOT 18  -168.34826246215     4.198E-11 4.034E-06 5.482E-13 2.658E-08 5.671E-03
 ETOT 19  -168.34826246212     2.876E-11 2.030E-06 6.631E-14 2.456E-08 5.671E-03
 ETOT 20  -168.34826246208     3.621E-11 2.776E-06 7.320E-14 3.564E-10 5.671E-03
 ETOT 21  -168.34826246207     1.143E-11 1.586E-06 1.157E-14 8.386E-10 5.671E-03

 At SCF step   21, forces are converged : 
  for the second time, max diff in force=  8.386E-10 < toldff=  1.000E-08

 Cartesian components of stress tensor (hartree/bohr^3)
  sigma(1 1)= -2.15676582E-05  sigma(3 2)=  1.04955958E-13
  sigma(2 2)= -2.53448232E-05  sigma(3 1)= -1.98654850E-13
  sigma(3 3)= -2.15676582E-05  sigma(2 1)=  1.04954183E-13


--- !ResultsGS
iteration_state: {dtset: 1, itime: 2, icycle: 1, }
comment   : Summary of ground state results
lattice_vectors:
- [  0.0000000,  10.5761437,  11.1754338, ]
- [ 11.1754338,   0.0000000,  11.1754338, ]
- [ 11.1754338,  10.5761437,   0.0000000, ]
lattice_lengths: [  15.38652,   15.80445,   15.38652, ]
lattice_angles: [ 59.097,  61.805,  59.097, ] # degrees, (23, 13, 12)
lattice_volume:   2.6417159E+03
convergence: {deltae:  1.143E-11, res2:  1.157E-14, residm:  1.586E-06, diffor:  8.386E-10, }
etotal    :  -1.68348262E+02
entropy   :   0.00000000E+00
fermie    :  -1.05864085E-01
cartesian_stress_tensor: # hartree/bohr^3
- [ -2.15676582E-05,   1.04954183E-13,  -1.98654850E-13, ]
- [  1.04954183E-13,  -2.53448232E-05,   1.04955958E-13, ]
- [ -1.98654850E-13,   1.04955958E-13,  -2.15676582E-05, ]
pressure_GPa:   6.7158E-01
xred      :
- [  2.5000E-01,   2.5000E-01,   2.5000E-01, Cs]
- [  7.5000E-01,   7.5000E-01,   7.5000E-01, Cs]
- [  7.8494E-01,   2.1506E-01,   7.8494E-01, Cl]
- [  2.4192E-01,   2.4192E-01,   7.5808E-01,  I]
- [  7.5808E-01,   7.5808E-01,   2.4192E-01,  I]
- [  2.1506E-01,   7.8494E-01,   2.1506E-01, Cl]
- [  2.4192E-01,   7.5808E-01,   7.5808E-01,  I]
- [  7.5808E-01,   2.4192E-01,   2.4192E-01,  I]
- [  7.7188E-21,  -2.1453E-20,  -1.9139E-20, Hf]
cartesian_forces: # hartree/bohr
- [  9.63737855E-20,  -5.99241642E-20,   4.32240870E-20, ]
- [  9.63733414E-20,  -5.99241642E-20,   4.32248272E-20, ]
- [  4.74220478E-20,  -5.67130708E-03,   9.21758987E-20, ]
- [ -7.02761561E-14,   7.42581356E-14,   3.90073524E-03, ]
- [  7.02763488E-14,  -7.42582555E-14,  -3.90073524E-03, ]
- [  1.45325005E-19,   5.67130708E-03,  -5.72705856E-21, ]
- [ -3.90073524E-03,  -7.42581499E-14,   7.02761725E-14, ]
- [  3.90073524E-03,   7.42585693E-14,  -7.02764261E-14, ]
- [  9.63735264E-20,  -5.99241251E-20,   4.32244201E-20, ]
force_length_stats: {min:   1.21437671E-19, max:   5.67130708E-03, mean:   2.99395057E-03, }
...

 Integrated electronic density in atomic spheres:
 ------------------------------------------------
 Atom  Sphere_radius  Integrated_density
    1        2.20660          5.35801735
    2        2.20660          5.35801735
    3        1.80316          4.37475444
    4        2.30022          4.02415637
    5        2.30022          4.02415637
    6        1.80316          4.37475444
    7        2.30022          4.02415637
    8        2.30022          4.02415637
    9        2.41000          9.31741983

 PAW TEST:
 ==== Compensation charge inside spheres ============
 The following values must be close to each other ...
 Compensation charge over spherical meshes =     -0.872563938377501
 Compensation charge over fine fft grid    =     -0.872574098079602

 ==== Results concerning PAW augmentation regions ====

 Total pseudopotential strength Dij (hartree):
 Atom #  1
   0.44450  -0.14717   0.00000   0.00000   0.00000   0.00000   0.00000   0.00000   0.00000   0.00000   0.00000   0.00000 ...
  -0.14717   0.04438   0.00000   0.00000   0.00000   0.00000   0.00000   0.00000   0.00000   0.00000  -0.00000   0.00000 ...
   0.00000   0.00000  -0.09410   0.00000   0.00000  -0.16624   0.00000   0.00000   0.00000   0.00000   0.00000  -0.00000 ...
   0.00000   0.00000   0.00000  -0.09410   0.00000   0.00000  -0.16624   0.00000  -0.00000   0.00000   0.00000   0.00000 ...
   0.00000   0.00000   0.00000   0.00000  -0.09410   0.00000   0.00000  -0.16624   0.00000  -0.00000   0.00000   0.00000 ...
   0.00000   0.00000  -0.16624   0.00000   0.00000   0.40528   0.00000   0.00000   0.00000   0.00000   0.00000   0.00000 ...
   0.00000   0.00000   0.00000  -0.16624   0.00000   0.00000   0.40529   0.00000   0.00000   0.00000   0.00000   0.00000 ...
   0.00000   0.00000   0.00000   0.00000  -0.16624   0.00000   0.00000   0.40529   0.00000   0.00000   0.00000   0.00000 ...
   0.00000   0.00000   0.00000  -0.00000   0.00000   0.00000   0.00000   0.00000   0.00515   0.00000   0.00000   0.00000 ...
   0.00000   0.00000   0.00000   0.00000  -0.00000   0.00000   0.00000   0.00000   0.00000   0.00515   0.00000   0.00000 ...
   0.00000  -0.00000   0.00000   0.00000   0.00000   0.00000   0.00000   0.00000   0.00000   0.00000   0.00515   0.00000 ...
   0.00000   0.00000  -0.00000   0.00000   0.00000   0.00000   0.00000   0.00000   0.00000   0.00000   0.00000   0.00515 ...
   ...  only 12  components have been written...
 Atom #  9
  -3.52246   0.42974   0.00000   0.00000   0.00000   0.00000   0.00000   0.00000   0.00000   0.00000  -0.00025   0.00000 ...
   0.42974   0.00257   0.00000   0.00000   0.00000   0.00000   0.00000   0.00000   0.00000   0.00000   0.00004   0.00000 ...
   0.00000   0.00000  -1.46168   0.00000   0.00000   0.12457   0.00000   0.00000   0.00000   0.00000   0.00000   0.00000 ...
   0.00000   0.00000   0.00000  -1.46347   0.00000   0.00000   0.12489   0.00000   0.00000   0.00000   0.00000   0.00000 ...
   0.00000   0.00000   0.00000   0.00000  -1.46347   0.00000   0.00000   0.12489   0.00000   0.00000   0.00000   0.00000 ...
   0.00000   0.00000   0.12457   0.00000   0.00000   0.01320   0.00000   0.00000   0.00000   0.00000   0.00000   0.00000 ...
   0.00000   0.00000   0.00000   0.12489   0.00000   0.00000   0.01315   0.00000   0.00000   0.00000   0.00000   0.00000 ...
   0.00000   0.00000   0.00000   0.00000   0.12489   0.00000   0.00000   0.01315   0.00000   0.00000   0.00000   0.00000 ...
   0.00000   0.00000   0.00000   0.00000   0.00000   0.00000   0.00000   0.00000  -0.39518   0.00000   0.00000   0.00000 ...
   0.00000   0.00000   0.00000   0.00000   0.00000   0.00000   0.00000   0.00000   0.00000  -0.39518   0.00000   0.00000 ...
  -0.00025   0.00004   0.00000   0.00000   0.00000   0.00000   0.00000   0.00000   0.00000   0.00000  -0.39473   0.00000 ...
   0.00000   0.00000   0.00000   0.00000   0.00000   0.00000   0.00000   0.00000   0.00000   0.00000   0.00000  -0.39552 ...
   ...  only 12  components have been written...


 Augmentation waves occupancies Rhoij:
 Atom #  1
   1.99695  -0.01643   0.00000   0.00000   0.00000   0.00000   0.00000   0.00000   0.00000   0.00000   0.00114   0.00000 ...
  -0.01643   0.13464   0.00000   0.00000   0.00000   0.00000   0.00000   0.00000   0.00000   0.00000  -0.01007   0.00000 ...
   0.00000   0.00000   2.00963   0.00000   0.00000  -0.00533   0.00000   0.00000   0.00000   0.00000   0.00000   0.00087 ...
   0.00000   0.00000   0.00000   2.00763   0.00000   0.00000  -0.00493   0.00000   0.00036   0.00000   0.00000   0.00000 ...
   0.00000   0.00000   0.00000   0.00000   2.00763   0.00000   0.00000  -0.00493   0.00000   0.00036   0.00000   0.00000 ...
   0.00000   0.00000  -0.00533   0.00000   0.00000   0.00011   0.00000   0.00000   0.00000   0.00000   0.00000  -0.00005 ...
   0.00000   0.00000   0.00000  -0.00493   0.00000   0.00000   0.00008   0.00000  -0.00002   0.00000   0.00000   0.00000 ...
   0.00000   0.00000   0.00000   0.00000  -0.00493   0.00000   0.00000   0.00008   0.00000  -0.00002   0.00000   0.00000 ...
   0.00000   0.00000   0.00000   0.00036   0.00000   0.00000  -0.00002   0.00000   0.05279   0.00000   0.00000   0.00000 ...
   0.00000   0.00000   0.00000   0.00000   0.00036   0.00000   0.00000  -0.00002   0.00000   0.05279   0.00000   0.00000 ...
   0.00114  -0.01007   0.00000   0.00000   0.00000   0.00000   0.00000   0.00000   0.00000   0.00000   0.03117   0.00000 ...
   0.00000   0.00000   0.00087   0.00000   0.00000  -0.00005   0.00000   0.00000   0.00000   0.00000   0.00000   0.01216 ...
   ...  only 12  components have been written...
 Atom #  9
   1.99790  -0.02142   0.00000   0.00000   0.00000   0.00000   0.00000   0.00000   0.00000   0.00000  -0.00169   0.00000 ...
  -0.02142   1.01377   0.00000   0.00000   0.00000   0.00000   0.00000   0.00000   0.00000   0.00000  -0.06027   0.00000 ...
   0.00000   0.00000   1.99187   0.00000   0.00000  -0.07220   0.00000   0.00000   0.00000   0.00000   0.00000   0.00000 ...
   0.00000   0.00000   0.00000   1.99270   0.00000   0.00000  -0.06127   0.00000   0.00000   0.00000   0.00000   0.00000 ...
   0.00000   0.00000   0.00000   0.00000   1.99270   0.00000   0.00000  -0.06127   0.00000   0.00000   0.00000   0.00000 ...
   0.00000   0.00000  -0.07220   0.00000   0.00000   1.62543   0.00000   0.00000   0.00000   0.00000   0.00000   0.00000 ...
   0.00000   0.00000   0.00000  -0.06127   0.00000   0.00000   1.15563   0.00000   0.00000   0.00000   0.00000   0.00000 ...
   0.00000   0.00000   0.00000   0.00000  -0.06127   0.00000   0.00000   1.15563   0.00000   0.00000   0.00000   0.00000 ...
   0.00000   0.00000   0.00000   0.00000   0.00000   0.00000   0.00000   0.00000   0.52797   0.00000   0.00000   0.00000 ...
   0.00000   0.00000   0.00000   0.00000   0.00000   0.00000   0.00000   0.00000   0.00000   0.52797   0.00000   0.00000 ...
  -0.00169  -0.06027   0.00000   0.00000   0.00000   0.00000   0.00000   0.00000   0.00000   0.00000   1.40931   0.00000 ...
   0.00000   0.00000   0.00000   0.00000   0.00000   0.00000   0.00000   0.00000   0.00000   0.00000   0.00000   0.41760 ...
   ...  only 12  components have been written...



---OUTPUT-----------------------------------------------------------------------

 Cartesian coordinates (xcart) [bohr]
  5.58771687733387E+00  5.28807184608363E+00  5.58771687733387E+00
  1.67631506320016E+01  1.58642155382509E+01  1.67631506320016E+01
  1.11754337545530E+01  1.66033324639155E+01  1.11754337545530E+01
  1.11754337545638E+01  1.05761436921673E+01  5.40715571530953E+00
  1.11754337547717E+01  1.05761436921673E+01  1.69437117940260E+01
  1.11754337547825E+01  4.54895492041905E+00  1.11754337547825E+01
  1.69437117940260E+01  1.05761436921673E+01  1.11754337547717E+01
  5.40715571530953E+00  1.05761436921673E+01  1.11754337545638E+01
 -4.53633832548370E-19 -1.20782496724360E-19 -1.53485369433251E-19
 Reduced coordinates (xred)
  2.50000000000000E-01  2.50000000000000E-01  2.50000000000000E-01
  7.50000000000000E-01  7.50000000000000E-01  7.50000000000000E-01
  7.84942647678472E-01  2.15057352321528E-01  7.84942647678472E-01
  2.41921514368562E-01  2.41921514368562E-01  7.58078485631438E-01
  7.58078485631438E-01  7.58078485631438E-01  2.41921514368562E-01
  2.15057352321528E-01  7.84942647678472E-01  2.15057352321528E-01
  2.41921514368562E-01  7.58078485631438E-01  7.58078485631438E-01
  7.58078485631438E-01  2.41921514368562E-01  2.41921514368562E-01
  7.71880140480000E-21 -2.14529769900000E-20 -1.91390789880000E-20
 Cartesian forces (fcart) [Ha/bohr]; max,rms= 5.67131E-03 2.15330E-03 (free atoms)
  9.63737855053282E-20 -5.99241642374759E-20  4.32240869914427E-20
  9.63733413987472E-20 -5.99241642374759E-20  4.32248271690776E-20
  4.74220478165538E-20 -5.67130708342880E-03  9.21758986979806E-20
 -7.02761560836976E-14  7.42581356446470E-14  3.90073523659727E-03
  7.02763488307504E-14 -7.42582554928972E-14 -3.90073523659727E-03
  1.45325005069758E-19  5.67130708342880E-03 -5.72705855522369E-21
 -3.90073523659727E-03 -7.42581498566400E-14  7.02761724537765E-14
  3.90073523659727E-03  7.42585693255159E-14 -7.02764260732384E-14
  9.63735264431559E-20 -5.99241251315107E-20  4.32244200713784E-20
 Reduced forces (fred)
  1.50718650838414E-19 -1.56006677640832E-18 -4.43252283973374E-19
  1.50710379032289E-19 -1.56007008513077E-18 -4.43247320889699E-19
  5.99805586367490E-02 -1.56006760358894E-18  5.99805586367490E-02
 -4.35924082310910E-02 -4.35924082310910E-02  1.81394166898167E-18
  4.35924082310910E-02  4.35924082310910E-02 -2.70044127390206E-18
 -5.99805586367490E-02 -1.56006760358894E-18 -5.99805586367490E-02
 -1.84657632150746E-18  4.35924082310910E-02  4.35924082310910E-02
  2.44520710283478E-19 -4.35924082310909E-02 -4.35924082310910E-02
  1.50714514935352E-19 -1.56006760358894E-18 -4.43249802431536E-19
 Scale of Primitive Cell (acell) [bohr]
  1.53865244612887E+01  1.58044499815379E+01  1.53865244612887E+01
 Real space primitive translations (rprimd) [bohr]
  0.00000000000000E+00  1.05761436921673E+01  1.11754337544664E+01
  1.11754337548691E+01  0.00000000000000E+00  1.11754337548691E+01
  1.11754337544664E+01  1.05761436921673E+01  0.00000000000000E+00
 Unitary Cell Volume (ucvol) [Bohr^3]=  2.64171593180565E+03
 Angles (23,13,12)= [degrees]
  5.90973529331222E+01  6.18052941337556E+01  5.90973529331222E+01
 Lengths [Bohr]
  1.53865244612887E+01  1.58044499815379E+01  1.53865244612887E+01
 Stress tensor in cartesian coordinates (strten) [Ha/bohr^3]
 -2.15676581994777E-05  1.04954183240432E-13 -1.98654849866816E-13
  1.04954183240432E-13 -2.53448231572820E-05  1.04955958010066E-13
 -1.98654849866816E-13  1.04955958010066E-13 -2.15676581994777E-05
 Total energy (etotal) [Ha]= -1.68348262462073E+02

 Difference of energy with previous step (new-old):
           Absolute (Ha)=-1.53960E-04
           Relative     =-9.14532E-07

--- Iteration: (   3/1000) Internal Cycle: (1/1)
--------------------------------------------------------------------------------

---SELF-CONSISTENT-FIELD CONVERGENCE--------------------------------------------

--- !BeginCycle
iteration_state: {dtset: 1, itime: 3, icycle: 1, }
solver: {iscf: 17, nstep: 2500, nline: 4, wfoptalg: 10, }
tolerances: {toldff: 1.00E-08, }
...

     iter   Etot(hartree)      deltaE(h)  residm     nres2    diffor    maxfor
 ETOT  1  -168.36041740478    -1.684E+02 1.441E-01 2.472E+00 1.466E-01 1.523E-01
 ETOT  2  -168.34963774401     1.078E-02 1.331E-02 2.526E-01 1.612E-01 8.919E-03
 ETOT  3  -168.34881695038     8.208E-04 1.808E-03 2.314E-02 1.999E-02 1.107E-02
 ETOT  4  -168.34878839388     2.856E-05 1.635E-05 6.665E-03 1.051E-02 1.630E-03
 ETOT  5  -168.34878507916     3.315E-06 4.241E-06 2.258E-03 1.056E-03 2.686E-03
 ETOT  6  -168.34878520244    -1.233E-07 4.079E-06 4.458E-04 2.139E-03 1.148E-03
 ETOT  7  -168.34878573068    -5.282E-07 1.331E-06 2.115E-04 3.792E-04 1.228E-03
 ETOT  8  -168.34878652420    -7.935E-07 2.898E-06 1.875E-05 3.208E-04 9.074E-04
 ETOT  9  -168.34878664515    -1.209E-07 9.970E-07 5.430E-06 3.529E-05 8.976E-04
 ETOT 10  -168.34878667248    -2.733E-08 2.248E-06 1.417E-06 2.279E-05 8.832E-04
 ETOT 11  -168.34878667175     7.344E-10 8.013E-07 2.148E-07 6.571E-06 8.780E-04
 ETOT 12  -168.34878666873     3.020E-09 1.819E-06 5.553E-08 6.689E-06 8.731E-04
 ETOT 13  -168.34878666564     3.083E-09 6.513E-07 4.879E-09 2.819E-06 8.723E-04
 ETOT 14  -168.34878666462     1.019E-09 1.485E-06 1.512E-09 6.802E-07 8.717E-04
 ETOT 15  -168.34878666406     5.626E-10 7.526E-07 6.633E-11 2.699E-07 8.716E-04
 ETOT 16  -168.34878666373     3.320E-10 1.212E-06 8.058E-11 1.558E-07 8.716E-04
 ETOT 17  -168.34878666358     1.499E-10 8.874E-07 1.788E-11 4.820E-08 8.716E-04
 ETOT 18  -168.34878666329     2.867E-10 9.904E-07 1.424E-11 2.381E-08 8.717E-04
 ETOT 19  -168.34878666315     1.459E-10 1.047E-06 3.203E-12 1.555E-08 8.717E-04
 ETOT 20  -168.34878666291     2.376E-10 8.090E-07 4.390E-12 8.766E-09 8.716E-04
 ETOT 21  -168.34878666285     5.477E-11 1.234E-06 4.033E-13 8.288E-09 8.717E-04

 At SCF step   21, forces are converged : 
  for the second time, max diff in force=  8.288E-09 < toldff=  1.000E-08

 Cartesian components of stress tensor (hartree/bohr^3)
  sigma(1 1)= -1.02413223E-05  sigma(3 2)=  1.05124657E-13
  sigma(2 2)= -4.94002024E-06  sigma(3 1)= -1.99155690E-13
  sigma(3 3)= -1.02413223E-05  sigma(2 1)=  1.05122773E-13


--- !ResultsGS
iteration_state: {dtset: 1, itime: 3, icycle: 1, }
comment   : Summary of ground state results
lattice_vectors:
- [  0.0000000,  10.5825737,  11.1720381, ]
- [ 11.1720381,   0.0000000,  11.1720381, ]
- [ 11.1720381,  10.5825737,   0.0000000, ]
lattice_lengths: [  15.38848,   15.79965,   15.38848, ]
lattice_angles: [ 59.112,  61.776,  59.112, ] # degrees, (23, 13, 12)
lattice_volume:   2.6417159E+03
convergence: {deltae:  5.477E-11, res2:  4.033E-13, residm:  1.234E-06, diffor:  8.288E-09, }
etotal    :  -1.68348787E+02
entropy   :   0.00000000E+00
fermie    :  -1.06068139E-01
cartesian_stress_tensor: # hartree/bohr^3
- [ -1.02413223E-05,   1.05122773E-13,  -1.99155690E-13, ]
- [  1.05122773E-13,  -4.94002024E-06,   1.05124657E-13, ]
- [ -1.99155690E-13,   1.05124657E-13,  -1.02413223E-05, ]
pressure_GPa:   2.4932E-01
xred      :
- [  2.5000E-01,   2.5000E-01,   2.5000E-01, Cs]
- [  7.5000E-01,   7.5000E-01,   7.5000E-01, Cs]
- [  7.8279E-01,   2.1721E-01,   7.8279E-01, Cl]
- [  2.4332E-01,   2.4332E-01,   7.5668E-01,  I]
- [  7.5668E-01,   7.5668E-01,   2.4332E-01,  I]
- [  2.1721E-01,   7.8279E-01,   2.1721E-01, Cl]
- [  2.4332E-01,   7.5668E-01,   7.5668E-01,  I]
- [  7.5668E-01,   2.4332E-01,   2.4332E-01,  I]
- [  7.7188E-21,  -2.1453E-20,  -1.9139E-20, Hf]
cartesian_forces: # hartree/bohr
- [  1.18464417E-24,  -2.40952576E-20,  -1.24959082E-20, ]
- [  1.18464417E-24,  -2.40915057E-20,  -1.24959082E-20, ]
- [ -6.55695024E-20,   5.31300963E-04,   5.30747789E-20, ]
- [ -1.57110135E-14,   1.65862261E-14,   8.71650680E-04, ]
- [  1.57109358E-14,  -1.65861923E-14,  -8.71650680E-04, ]
- [  1.04387923E-19,  -5.31300963E-04,  -1.16882646E-19, ]
- [ -8.71650680E-04,  -1.65863285E-14,   1.57111094E-14, ]
- [  8.71650680E-04,   1.65862803E-14,  -1.57111344E-14, ]
- [ -0.00000000E+00,  -2.40933816E-20,  -1.24947235E-20, ]
force_length_stats: {min:   2.71394246E-20, max:   8.71650680E-04, mean:   5.05467183E-04, }
...

 Integrated electronic density in atomic spheres:
 ------------------------------------------------
 Atom  Sphere_radius  Integrated_density
    1        2.20660          5.35804794
    2        2.20660          5.35804794
    3        1.80316          4.36423534
    4        2.30022          4.01697131
    5        2.30022          4.01697131
    6        1.80316          4.36423534
    7        2.30022          4.01697131
    8        2.30022          4.01697131
    9        2.41000          9.28400398

 PAW TEST:
 ==== Compensation charge inside spheres ============
 The following values must be close to each other ...
 Compensation charge over spherical meshes =     -0.874679049310960
 Compensation charge over fine fft grid    =     -0.874675629098077

 ==== Results concerning PAW augmentation regions ====

 Total pseudopotential strength Dij (hartree):
 Atom #  1
   0.44442  -0.14714   0.00000   0.00000   0.00000   0.00000   0.00000   0.00000   0.00000   0.00000   0.00000   0.00000 ...
  -0.14714   0.04437   0.00000   0.00000   0.00000   0.00000   0.00000   0.00000   0.00000   0.00000  -0.00000   0.00000 ...
   0.00000   0.00000  -0.09409   0.00000   0.00000  -0.16624   0.00000   0.00000   0.00000   0.00000   0.00000  -0.00000 ...
   0.00000   0.00000   0.00000  -0.09409   0.00000   0.00000  -0.16624   0.00000  -0.00000   0.00000   0.00000   0.00000 ...
   0.00000   0.00000   0.00000   0.00000  -0.09409   0.00000   0.00000  -0.16624   0.00000  -0.00000   0.00000   0.00000 ...
   0.00000   0.00000  -0.16624   0.00000   0.00000   0.40525   0.00000   0.00000   0.00000   0.00000   0.00000   0.00000 ...
   0.00000   0.00000   0.00000  -0.16624   0.00000   0.00000   0.40526   0.00000   0.00000   0.00000   0.00000   0.00000 ...
   0.00000   0.00000   0.00000   0.00000  -0.16624   0.00000   0.00000   0.40526   0.00000   0.00000   0.00000   0.00000 ...
   0.00000   0.00000   0.00000  -0.00000   0.00000   0.00000   0.00000   0.00000   0.00515   0.00000   0.00000   0.00000 ...
   0.00000   0.00000   0.00000   0.00000  -0.00000   0.00000   0.00000   0.00000   0.00000   0.00515   0.00000   0.00000 ...
[...]
                       8.1639637604E+00  5.0366834295E+00  5.4937225892E+00
                       2.8234814180E+00  5.0366834295E+00  5.4937225892E+00
                      -2.1667569878E-19  1.7030019918E-21 -1.2843758427E-19
           xangst10    2.7211075892E+00  2.4825616559E+00  2.7211075892E+00
                       8.1633227676E+00  7.4476849676E+00  8.1633227676E+00
                       5.4422151784E+00  7.5194629847E+00  5.4422151784E+00
                       5.4422151784E+00  4.9651233117E+00  2.8110424247E+00
                       5.4422151785E+00  4.9651233117E+00  8.0733879321E+00
                       5.4422151785E+00  2.4107836388E+00  5.4422151785E+00
                       8.0733879321E+00  4.9651233117E+00  5.4422151785E+00
                       2.8110424247E+00  4.9651233117E+00  5.4422151784E+00
                      -2.1535972975E-19 -9.8982688102E-20 -6.8314139030E-20
            xcart1     5.5914926141E+00  5.2809325625E+00  5.5914926141E+00
                       1.6774477842E+01  1.5842797687E+01  1.6774477842E+01
                       1.1182985228E+01  1.6535222843E+01  1.1182985228E+01
                       1.1182985228E+01  1.0561865125E+01  5.4502109617E+00
                       1.1182985228E+01  1.0561865125E+01  1.6915759495E+01
                       1.1182985228E+01  4.5885074067E+00  1.1182985228E+01
                       1.6915759495E+01  1.0561865125E+01  1.1182985228E+01
                       5.4502109617E+00  1.0561865125E+01  1.1182985228E+01
                      -4.5314686537E-19 -1.2068953380E-19 -1.5183646678E-19
            xcart2     5.5359951061E+00  5.2257349797E+00  5.5359951061E+00
                       1.6607985318E+01  1.5677204939E+01  1.6607985318E+01
                       1.1071990212E+01  1.6315016534E+01  1.1071990212E+01
                       1.1071990212E+01  1.0451469959E+01  5.4410156394E+00
                       1.1071990212E+01  1.0451469959E+01  1.6702964785E+01
                       1.1071990212E+01  4.5879233850E+00  1.1071990212E+01
                       1.6702964785E+01  1.0451469959E+01  1.1071990212E+01
                       5.4410156394E+00  1.0451469959E+01  1.1071990212E+01
                      -4.4709633989E-19 -1.1786255309E-19 -1.5489631873E-19
            xcart3     5.4831396803E+00  5.1655566979E+00  5.4831396803E+00
                       1.6449419041E+01  1.5496670094E+01  1.6449419041E+01
                       1.0966279360E+01  1.6074571132E+01  1.0966279360E+01
                       1.0966279361E+01  1.0331113396E+01  5.4308157517E+00
                       1.0966279361E+01  1.0331113396E+01  1.6501742970E+01
                       1.0966279361E+01  4.5876556600E+00  1.0966279361E+01
                       1.6501742970E+01  1.0331113396E+01  1.0966279361E+01
                       5.4308157517E+00  1.0331113396E+01  1.0966279361E+01
                      -4.4420187880E-19 -1.3830855172E-19 -1.4018685223E-19
            xcart4     5.4331936945E+00  5.0999259709E+00  5.4331936945E+00
                       1.6299581083E+01  1.5299777913E+01  1.6299581083E+01
                       1.0866387389E+01  1.5813267025E+01  1.0866387389E+01
                       1.0866387389E+01  1.0199851942E+01  5.4194377917E+00
                       1.0866387389E+01  1.0199851942E+01  1.6313336986E+01
                       1.0866387389E+01  4.5864368583E+00  1.0866387389E+01
                       1.6313336986E+01  1.0199851942E+01  1.0866387389E+01
                       5.4194377917E+00  1.0199851942E+01  1.0866387389E+01
                      -4.4254169212E-19 -1.2620149557E-19 -1.4685031516E-19
            xcart5     5.3835078726E+00  5.0338545162E+00  5.3835078726E+00
                       1.6150523618E+01  1.5101563549E+01  1.6150523618E+01
                       1.0767015745E+01  1.5551155064E+01  1.0767015745E+01
                       1.0767015745E+01  1.0067709032E+01  5.4063502550E+00
                       1.0767015745E+01  1.0067709032E+01  1.6127681236E+01
                       1.0767015745E+01  4.5842630006E+00  1.0767015745E+01
                       1.6127681236E+01  1.0067709032E+01  1.0767015745E+01
                       5.4063502550E+00  1.0067709032E+01  1.0767015745E+01
                      -4.3370317152E-19 -1.1567143658E-19 -1.5350464646E-19
            xcart6     5.3342320561E+00  4.9670702211E+00  5.3342320561E+00
                       1.6002696168E+01  1.4901210663E+01  1.6002696168E+01
                       1.0668464112E+01  1.5286975893E+01  1.0668464112E+01
                       1.0668464112E+01  9.9341404421E+00  5.3915128054E+00
                       1.0668464112E+01  9.9341404421E+00  1.5945415419E+01
                       1.0668464112E+01  4.5813049916E+00  1.0668464112E+01
                       1.5945415419E+01  9.9341404421E+00  1.0668464112E+01
                       5.3915128054E+00  9.9341404421E+00  1.0668464112E+01
                      -4.4219046265E-19 -1.2996865201E-19 -1.3796365737E-19
            xcart7     5.2853125938E+00  4.8996836222E+00  5.2853125938E+00
                       1.5855937781E+01  1.4699050866E+01  1.5855937781E+01
                       1.0570625187E+01  1.5021653651E+01  1.0570625187E+01
                       1.0570625187E+01  9.7993672443E+00  5.3749259580E+00
                       1.0570625188E+01  9.7993672443E+00  1.5766324417E+01
                       1.0570625188E+01  4.5770808375E+00  1.0570625188E+01
                       1.5766324417E+01  9.7993672443E+00  1.0570625188E+01
                       5.3749259580E+00  9.7993672443E+00  1.0570625187E+01
                      -4.3172016246E-19 -1.0311713126E-19 -1.4163172296E-19
            xcart8     5.2379287943E+00  4.8295298039E+00  5.2379287943E+00
                       1.5713786383E+01  1.4488589412E+01  1.5713786383E+01
                       1.0475857588E+01  1.4746362370E+01  1.0475857588E+01
                       1.0475857588E+01  9.6590596077E+00  5.3563718831E+00
                       1.0475857589E+01  9.6590596077E+00  1.5595343294E+01
                       1.0475857589E+01  4.5717568457E+00  1.0475857589E+01
                       1.5595343294E+01  9.6590596077E+00  1.0475857589E+01
                       5.3563718831E+00  9.6590596077E+00  1.0475857588E+01
                      -4.0252397006E-19 -8.2703167420E-20 -1.6520461269E-19
            xcart9     5.1908155718E+00  4.7589761499E+00  5.1908155718E+00
                       1.5572446715E+01  1.4276928450E+01  1.5572446715E+01
                       1.0381631144E+01  1.4471370476E+01  1.0381631144E+01
                       1.0381631144E+01  9.5179522998E+00  5.3356066213E+00
                       1.0381631144E+01  9.5179522998E+00  1.5427655666E+01
                       1.0381631144E+01  4.5645341234E+00  1.0381631144E+01
                       1.5427655666E+01  9.5179522998E+00  1.0381631144E+01
                       5.3356066213E+00  9.5179522998E+00  1.0381631144E+01
                      -4.0945773034E-19  3.2182073682E-21 -2.4271185944E-19
            xcart10    5.1421481217E+00  4.6913616376E+00  5.1421481217E+00
                       1.5426444365E+01  1.4074084913E+01  1.5426444365E+01
                       1.0284296243E+01  1.4209725707E+01  1.0284296243E+01
                       1.0284296243E+01  9.3827232752E+00  5.3121003306E+00
                       1.0284296244E+01  9.3827232752E+00  1.5256492156E+01
                       1.0284296244E+01  4.5557208429E+00  1.0284296244E+01
                       1.5256492156E+01  9.3827232752E+00  1.0284296244E+01
                       5.3121003306E+00  9.3827232752E+00  1.0284296243E+01
                      -4.0697090928E-19 -1.8705017241E-19 -1.2909501377E-19
             xred1     2.5000000000E-01  2.5000000000E-01  2.5000000000E-01
                       7.5000000000E-01  7.5000000000E-01  7.5000000000E-01
                       7.8277949243E-01  2.1722050757E-01  7.8277949243E-01
                       2.4368318703E-01  2.4368318703E-01  7.5631681297E-01
                       7.5631681297E-01  7.5631681297E-01  2.4368318703E-01
                       2.1722050757E-01  7.8277949243E-01  2.1722050757E-01
                       2.4368318703E-01  7.5631681297E-01  7.5631681297E-01
                       7.5631681297E-01  2.4368318703E-01  2.4368318703E-01
                       7.7583657089E-21 -2.1335819643E-20 -1.9185280593E-20
             xred2     2.5000000000E-01  2.5000000000E-01  2.5000000000E-01
                       7.5000000000E-01  7.5000000000E-01  7.5000000000E-01
                       7.8051300904E-01  2.1948699096E-01  7.8051300904E-01
                       2.4571082232E-01  2.4571082232E-01  7.5428917768E-01
                       7.5428917768E-01  7.5428917768E-01  2.4571082232E-01
                       2.1948699096E-01  7.8051300904E-01  2.1948699096E-01
                       2.4571082232E-01  7.5428917768E-01  7.5428917768E-01
                       7.5428917768E-01  2.4571082232E-01  2.4571082232E-01
                       7.5568971446E-21 -2.1546822692E-20 -1.8834024051E-20
             xred3     2.5000000000E-01  2.5000000000E-01  2.5000000000E-01
                       7.5000000000E-01  7.5000000000E-01  7.5000000000E-01
                       7.7796896209E-01  2.2203103791E-01  7.7796896209E-01
                       2.4761432629E-01  2.4761432629E-01  7.5238567371E-01
                       7.5238567371E-01  7.5238567371E-01  2.4761432629E-01
                       2.2203103791E-01  7.7796896209E-01  2.2203103791E-01
                       2.4761432629E-01  7.5238567371E-01  7.5238567371E-01
                       7.5238567371E-01  2.4761432629E-01  2.4761432629E-01
                       7.1675696892E-21 -1.9951016802E-20 -2.0555144331E-20
             xred4     2.5000000000E-01  2.5000000000E-01  2.5000000000E-01
                       7.5000000000E-01  7.5000000000E-01  7.5000000000E-01
                       7.7517140031E-01  2.2482859969E-01  7.7517140031E-01
                       2.4936704342E-01  2.4936704342E-01  7.5063295658E-01
                       7.5063295658E-01  7.5063295658E-01  2.4936704342E-01
                       2.2482859969E-01  7.7517140031E-01  2.2482859969E-01
                       2.4936704342E-01  7.5063295658E-01  7.5063295658E-01
                       7.5063295658E-01  2.4936704342E-01  2.4936704342E-01
                       7.4193435080E-21 -2.0933523511E-20 -1.9792218751E-20
             xred5     2.5000000000E-01  2.5000000000E-01  2.5000000000E-01
                       7.5000000000E-01  7.5000000000E-01  7.5000000000E-01
                       7.7232839239E-01  2.2767160761E-01  7.7232839239E-01
                       2.5106075736E-01  2.5106075736E-01  7.4893924264E-01
                       7.4893924264E-01  7.4893924264E-01  2.5106075736E-01
                       2.2767160761E-01  7.7232839239E-01  2.2767160761E-01
                       2.5106075736E-01  7.4893924264E-01  7.4893924264E-01
                       7.4893924264E-01  2.5106075736E-01  2.5106075736E-01
                       7.2672183429E-21 -2.1524153605E-20 -1.8756568721E-20
             xred6     2.5000000000E-01  2.5000000000E-01  2.5000000000E-01
                       7.5000000000E-01  7.5000000000E-01  7.5000000000E-01
                       7.6941613528E-01  2.3058386472E-01  7.6941613528E-01
                       2.5268458274E-01  2.5268458274E-01  7.4731541726E-01
                       7.4731541726E-01  7.4731541726E-01  2.5268458274E-01
                       2.3058386472E-01  7.6941613528E-01  2.3058386472E-01
                       2.5268458274E-01  7.4731541726E-01  7.4731541726E-01
                       7.4731541726E-01  2.5268458274E-01  2.5268458274E-01
                       7.7167141090E-21 -2.0648627824E-20 -2.0799743563E-20
             xred7     2.5000000000E-01  2.5000000000E-01  2.5000000000E-01
                       7.5000000000E-01  7.5000000000E-01  7.5000000000E-01
                       7.6646038854E-01  2.3353961146E-01  7.6646038854E-01
                       2.5423879206E-01  2.5423879206E-01  7.4576120794E-01
                       7.4576120794E-01  7.4576120794E-01  2.5423879206E-01
                       2.3353961146E-01  7.6646038854E-01  2.3353961146E-01
                       2.5423879206E-01  7.4576120794E-01  7.4576120794E-01
                       7.4576120794E-01  2.5423879206E-01  2.5423879206E-01
                       8.4600240985E-21 -2.1858637751E-20 -1.8982859776E-20
             xred8     2.5000000000E-01  2.5000000000E-01  2.5000000000E-01
                       7.5000000000E-01  7.5000000000E-01  7.5000000000E-01
                       7.6334358461E-01  2.3665641539E-01  7.6334358461E-01
                       2.5565314524E-01  2.5565314524E-01  7.4434685476E-01
                       7.4434685476E-01  7.4434685476E-01  2.5565314524E-01
                       2.3665641539E-01  7.6334358461E-01  2.3665641539E-01
                       2.5565314524E-01  7.4434685476E-01  7.4434685476E-01
                       7.4434685476E-01  2.5565314524E-01  2.5565314524E-01
                       7.0458466036E-21 -2.2815878918E-20 -1.5608084625E-20
             xred9     2.5000000000E-01  2.5000000000E-01  2.5000000000E-01
                       7.5000000000E-01  7.5000000000E-01  7.5000000000E-01
                       7.6021448839E-01  2.3978551161E-01  7.6021448839E-01
                       2.5697342486E-01  2.5697342486E-01  7.4302657514E-01
                       7.4302657514E-01  7.4302657514E-01  2.5697342486E-01
                       2.3978551161E-01  7.6021448839E-01  2.3978551161E-01
                       2.5697342486E-01  7.4302657514E-01  7.4302657514E-01
                       7.4302657514E-01  2.5697342486E-01  2.5697342486E-01
                       8.1998725809E-21 -3.1578844158E-20 -7.8617528608E-21
             xred10    2.5000000000E-01  2.5000000000E-01  2.5000000000E-01
                       7.5000000000E-01  7.5000000000E-01  7.5000000000E-01
                       7.5722822099E-01  2.4277177901E-01  7.5722822099E-01
                       2.5826270485E-01  2.5826270485E-01  7.4173729515E-01
                       7.4173729515E-01  7.4173729515E-01  2.5826270485E-01
                       2.4277177901E-01  7.5722822099E-01  2.4277177901E-01
                       2.5826270485E-01  7.4173729515E-01  7.4173729515E-01
                       7.4173729515E-01  2.5826270485E-01  2.5826270485E-01
                       3.5419209885E-21 -1.6094555677E-20 -2.3477516116E-20
            znucl       55.00000   53.00000   72.00000   17.00000

================================================================================


- Timing analysis has been suppressed with timopt=0



================================================================================

 Suggested references for the acknowledgment of ABINIT usage.

 The users of ABINIT have little formal obligations with respect to the ABINIT group
 (those specified in the GNU General Public License, http://www.gnu.org/copyleft/gpl.txt).
 However, it is common practice in the scientific literature,
 to acknowledge the efforts of people that have made the research possible.
 In this spirit, please find below suggested citations of work written by ABINIT developers,
 corresponding to implementations inside of ABINIT that you have used in the present run.
 Note also that it will be of great value to readers of publications presenting these results,
 to read papers enabling them to understand the theoretical formalism and details
 of the ABINIT implementation.
 For information on why they are suggested, see also https://docs.abinit.org/theory/acknowledgments.
-
- [1] Implementation of the Projector Augmented-Wave Method in the ABINIT code.
- M. Torrent, F. Jollet, F. Bottin, G. Zerah, and X. Gonze Comput. Mat. Science 42, 337, (2008).
- Comment: PAW calculations. Strong suggestion to cite this paper.
- DOI and bibtex: see https://docs.abinit.org/theory/bibliography/#torrent2008
-
- [2] Libxc: A library of exchange and correlation functionals for density functional theory.
- M.A.L. Marques, M.J.T. Oliveira, T. Burnus, Computer Physics Communications 183, 2227 (2012).
- Comment: to be cited when LibXC is used (negative value of ixc)
- Strong suggestion to cite this paper.
- DOI and bibtex: see https://docs.abinit.org/theory/bibliography/#marques2012
-
- [3] The Abinit project: Impact, environment and recent developments.
- Computer Phys. Comm. 248, 107042 (2020).
- X.Gonze, B. Amadon, G. Antonius, F.Arnardi, L.Baguet, J.-M.Beuken,
- J.Bieder, F.Bottin, J.Bouchet, E.Bousquet, N.Brouwer, F.Bruneval,
- G.Brunin, T.Cavignac, J.-B. Charraud, Wei Chen, M.Cote, S.Cottenier,
- J.Denier, G.Geneste, Ph.Ghosez, M.Giantomassi, Y.Gillet, O.Gingras,
- D.R.Hamann, G.Hautier, Xu He, N.Helbig, N.Holzwarth, Y.Jia, F.Jollet,
- W.Lafargue-Dit-Hauret, K.Lejaeghere, M.A.L.Marques, A.Martin, C.Martins,
- H.P.C. Miranda, F.Naccarato, K. Persson, G.Petretto, V.Planes, Y.Pouillon,
- S.Prokhorenko, F.Ricci, G.-M.Rignanese, A.H.Romero, M.M.Schmitt, M.Torrent,
- M.J.van Setten, B.Van Troeye, M.J.Verstraete, G.Zerah and J.W.Zwanzig
- Comment: the fifth generic paper describing the ABINIT project.
- Note that a version of this paper, that is not formatted for Computer Phys. Comm. 
- is available at https://www.abinit.org/sites/default/files/ABINIT20.pdf .
- The licence allows the authors to put it on the Web.
- DOI and bibtex: see https://docs.abinit.org/theory/bibliography/#gonze2020
-
- [4] ABINIT: Overview, and focus on selected capabilities
- J. Chem. Phys. 152, 124102 (2020).
- A. Romero, D.C. Allan, B. Amadon, G. Antonius, T. Applencourt, L.Baguet,
- J.Bieder, F.Bottin, J.Bouchet, E.Bousquet, F.Bruneval,
- G.Brunin, D.Caliste, M.Cote,
- J.Denier, C. Dreyer, Ph.Ghosez, M.Giantomassi, Y.Gillet, O.Gingras,
- D.R.Hamann, G.Hautier, F.Jollet, G. Jomard,
- A.Martin, 
- H.P.C. Miranda, F.Naccarato, G.Petretto, N.A. Pike, V.Planes,
- S.Prokhorenko, T. Rangel, F.Ricci, G.-M.Rignanese, M.Royo, M.Stengel, M.Torrent,
- M.J.van Setten, B.Van Troeye, M.J.Verstraete, J.Wiktor, J.W.Zwanziger, and X.Gonze.
- Comment: a global overview of ABINIT, with focus on selected capabilities .
- Note that a version of this paper, that is not formatted for J. Chem. Phys 
- is available at https://www.abinit.org/sites/default/files/ABINIT20_JPC.pdf .
- The licence allows the authors to put it on the Web.
- DOI and bibtex: see https://docs.abinit.org/theory/bibliography/#romero2020
-
- [5] Recent developments in the ABINIT software package.
- Computer Phys. Comm. 205, 106 (2016).
- X.Gonze, F.Jollet, F.Abreu Araujo, D.Adams, B.Amadon, T.Applencourt,
- C.Audouze, J.-M.Beuken, J.Bieder, A.Bokhanchuk, E.Bousquet, F.Bruneval
- D.Caliste, M.Cote, F.Dahm, F.Da Pieve, M.Delaveau, M.Di Gennaro,
- B.Dorado, C.Espejo, G.Geneste, L.Genovese, A.Gerossier, M.Giantomassi,
- Y.Gillet, D.R.Hamann, L.He, G.Jomard, J.Laflamme Janssen, S.Le Roux,
- A.Levitt, A.Lherbier, F.Liu, I.Lukacevic, A.Martin, C.Martins,
- M.J.T.Oliveira, S.Ponce, Y.Pouillon, T.Rangel, G.-M.Rignanese,
- A.H.Romero, B.Rousseau, O.Rubel, A.A.Shukri, M.Stankovski, M.Torrent,
- M.J.Van Setten, B.Van Troeye, M.J.Verstraete, D.Waroquier, J.Wiktor,
- B.Xu, A.Zhou, J.W.Zwanziger.
- Comment: the fourth generic paper describing the ABINIT project.
- Note that a version of this paper, that is not formatted for Computer Phys. Comm. 
- is available at https://www.abinit.org/sites/default/files/ABINIT16.pdf .
- The licence allows the authors to put it on the Web.
- DOI and bibtex: see https://docs.abinit.org/theory/bibliography/#gonze2016
-
- Proc.   0 individual time (sec): cpu=      46638.0  wall=      46811.1

================================================================================

 Calculation completed.
.Delivered   0 WARNINGs and 154 COMMENTs to log file.
+Overall time at end (sec) : cpu=     186369.2  wall=     187244.5
