
.Version 9.2.2 of ABINIT 
.(MPI version, prepared for a x86_64_linux_gnu9.3 computer) 

.Copyright (C) 1998-2020 ABINIT group . 
 ABINIT comes with ABSOLUTELY NO WARRANTY.
 It is free software, and you are welcome to redistribute it
 under certain conditions (GNU General Public License,
 see ~abinit/COPYING or http://www.gnu.org/copyleft/gpl.txt).

 ABINIT is a project of the Universite Catholique de Louvain,
 Corning Inc. and other collaborators, see ~abinit/doc/developers/contributors.txt .
 Please read https://docs.abinit.org/theory/acknowledgments for suggested
 acknowledgments of the ABINIT effort.
 For more information, see https://www.abinit.org .

.Starting date : Wed 26 Oct 2022.
- ( at 14h01 )
  
- input  file    -> Cs2TiI6.in
- output file    -> Cs2TiI6.out
- root for input  files -> Cs2TiI6i
- root for output files -> Cs2TiI6o

- inpspheads : Reading pseudopotential header in XML form from 
-   ../../../Psps_for_tests/ATOMICDATA/Cs.GGA_PBE-JTH.xml
- inpspheads : Reading pseudopotential header in XML form from 
-   ../../../Psps_for_tests/ATOMICDATA/Cl.GGA_PBE-JTH.xml
- inpspheads : Reading pseudopotential header in XML form from 
-   ../../../Psps_for_tests/ATOMICDATA/Hf.GGA_PBE-JTH.xml

 DATASET    1 : space group Fm -3 m (#225); Bravais cF (face-center cubic)
================================================================================
 Values of the parameters that define the memory need for DATASET  1.
     intxc =       0    ionmov =       0      iscf =      17    lmnmax =      18
     lnmax =       6     mgfft =      54  mpssoang =       3    mqgrid =    3312
     natom =       9  nloc_mem =       2    nspden =       1   nspinor =       1
    nsppol =       1      nsym =      48    n1xccc =       1    ntypat =       3
    occopt =       1   xclevel =       2
-    mband =          42        mffmem =           1         mkmem =          18
       mpw =        6274          nfft =      157464          nkpt =          72
Pmy_natom=         3
 PAW method is used; the additional fine FFT grid is defined by:
   mgfftf=        90    nfftf =    729000
================================================================================
P This job should need less than                     283.868 Mbytes of memory.
  Rough estimation (10% accuracy) of disk space for files :
_ WF disk file :    289.501 Mbytes ; DEN or POT disk file :      5.564 Mbytes.
================================================================================


 DATASET    2 : space group Fm -3 m (#225); Bravais cF (face-center cubic)
================================================================================
 Values of the parameters that define the memory need for DATASET  2.
     intxc =       0    ionmov =       0      iscf =      17    lmnmax =      18
     lnmax =       6     mgfft =      54  mpssoang =       3    mqgrid =    3279
     natom =       9  nloc_mem =       2    nspden =       1   nspinor =       1
    nsppol =       1      nsym =      48    n1xccc =       1    ntypat =       3
    occopt =       1   xclevel =       2
-    mband =          42        mffmem =           1         mkmem =          18
       mpw =        6106          nfft =      157464          nkpt =          72
Pmy_natom=         3
 PAW method is used; the additional fine FFT grid is defined by:
   mgfftf=        90    nfftf =    729000
================================================================================
P This job should need less than                     281.842 Mbytes of memory.
  Rough estimation (10% accuracy) of disk space for files :
_ WF disk file :    281.749 Mbytes ; DEN or POT disk file :      5.564 Mbytes.
================================================================================


 DATASET    3 : space group Fm -3 m (#225); Bravais cF (face-center cubic)
================================================================================
 Values of the parameters that define the memory need for DATASET  3.
     intxc =       0    ionmov =       0      iscf =      17    lmnmax =      18
     lnmax =       6     mgfft =      54  mpssoang =       3    mqgrid =    3245
     natom =       9  nloc_mem =       2    nspden =       1   nspinor =       1
    nsppol =       1      nsym =      48    n1xccc =       1    ntypat =       3
    occopt =       1   xclevel =       2
-    mband =          42        mffmem =           1         mkmem =          18
       mpw =        5903          nfft =      157464          nkpt =          72
Pmy_natom=         3
 PAW method is used; the additional fine FFT grid is defined by:
   mgfftf=        80    nfftf =    512000
================================================================================
P This job should need less than                     227.188 Mbytes of memory.
  Rough estimation (10% accuracy) of disk space for files :
_ WF disk file :    272.382 Mbytes ; DEN or POT disk file :      3.908 Mbytes.
================================================================================


 DATASET    4 : space group Fm -3 m (#225); Bravais cF (face-center cubic)
================================================================================
 Values of the parameters that define the memory need for DATASET  4.
     intxc =       0    ionmov =       0      iscf =      17    lmnmax =      18
     lnmax =       6     mgfft =      50  mpssoang =       3    mqgrid =    3212
     natom =       9  nloc_mem =       2    nspden =       1   nspinor =       1
    nsppol =       1      nsym =      48    n1xccc =       1    ntypat =       3
    occopt =       1   xclevel =       2
-    mband =          42        mffmem =           1         mkmem =          18
       mpw =        5744          nfft =      125000          nkpt =          72
Pmy_natom=         3
 PAW method is used; the additional fine FFT grid is defined by:
   mgfftf=        80    nfftf =    512000
================================================================================
P This job should need less than                     220.408 Mbytes of memory.
  Rough estimation (10% accuracy) of disk space for files :
_ WF disk file :    265.045 Mbytes ; DEN or POT disk file :      3.908 Mbytes.
================================================================================


 DATASET    5 : space group Fm -3 m (#225); Bravais cF (face-center cubic)
================================================================================
 Values of the parameters that define the memory need for DATASET  5.
     intxc =       0    ionmov =       0      iscf =      17    lmnmax =      18
     lnmax =       6     mgfft =      50  mpssoang =       3    mqgrid =    3178
     natom =       9  nloc_mem =       2    nspden =       1   nspinor =       1
    nsppol =       1      nsym =      48    n1xccc =       1    ntypat =       3
    occopt =       1   xclevel =       2
-    mband =          42        mffmem =           1         mkmem =          18
       mpw =        5558          nfft =      125000          nkpt =          72
Pmy_natom=         3
 PAW method is used; the additional fine FFT grid is defined by:
   mgfftf=        80    nfftf =    512000
================================================================================
P This job should need less than                     218.115 Mbytes of memory.
  Rough estimation (10% accuracy) of disk space for files :
_ WF disk file :    256.462 Mbytes ; DEN or POT disk file :      3.908 Mbytes.
================================================================================


 DATASET    6 : space group Fm -3 m (#225); Bravais cF (face-center cubic)
================================================================================
 Values of the parameters that define the memory need for DATASET  6.
     intxc =       0    ionmov =       0      iscf =      17    lmnmax =      18
     lnmax =       6     mgfft =      50  mpssoang =       3    mqgrid =    3145
     natom =       9  nloc_mem =       2    nspden =       1   nspinor =       1
    nsppol =       1      nsym =      48    n1xccc =       1    ntypat =       3
    occopt =       1   xclevel =       2
-    mband =          42        mffmem =           1         mkmem =          18
       mpw =        5381          nfft =      125000          nkpt =          72
Pmy_natom=         3
 PAW method is used; the additional fine FFT grid is defined by:
   mgfftf=        80    nfftf =    512000
================================================================================
P This job should need less than                     215.945 Mbytes of memory.
  Rough estimation (10% accuracy) of disk space for files :
_ WF disk file :    248.295 Mbytes ; DEN or POT disk file :      3.908 Mbytes.
================================================================================


 DATASET    7 : space group Fm -3 m (#225); Bravais cF (face-center cubic)
================================================================================
 Values of the parameters that define the memory need for DATASET  7.
     intxc =       0    ionmov =       0      iscf =      17    lmnmax =      18
     lnmax =       6     mgfft =      50  mpssoang =       3    mqgrid =    3111
     natom =       9  nloc_mem =       2    nspden =       1   nspinor =       1
    nsppol =       1      nsym =      48    n1xccc =       1    ntypat =       3
    occopt =       1   xclevel =       2
-    mband =          42        mffmem =           1         mkmem =          18
       mpw =        5202          nfft =      125000          nkpt =          72
Pmy_natom=         3
 PAW method is used; the additional fine FFT grid is defined by:
   mgfftf=        80    nfftf =    512000
================================================================================
P This job should need less than                     213.754 Mbytes of memory.
  Rough estimation (10% accuracy) of disk space for files :
_ WF disk file :    240.036 Mbytes ; DEN or POT disk file :      3.908 Mbytes.
================================================================================


 DATASET    8 : space group Fm -3 m (#225); Bravais cF (face-center cubic)
================================================================================
 Values of the parameters that define the memory need for DATASET  8.
     intxc =       0    ionmov =       0      iscf =      17    lmnmax =      18
     lnmax =       6     mgfft =      48  mpssoang =       3    mqgrid =    3078
     natom =       9  nloc_mem =       2    nspden =       1   nspinor =       1
    nsppol =       1      nsym =      48    n1xccc =       1    ntypat =       3
    occopt =       1   xclevel =       2
-    mband =          42        mffmem =           1         mkmem =          18
       mpw =        5044          nfft =      110592          nkpt =          72
Pmy_natom=         3
 PAW method is used; the additional fine FFT grid is defined by:
   mgfftf=        80    nfftf =    512000
================================================================================
P This job should need less than                     209.697 Mbytes of memory.
  Rough estimation (10% accuracy) of disk space for files :
_ WF disk file :    232.745 Mbytes ; DEN or POT disk file :      3.908 Mbytes.
================================================================================


 DATASET    9 : space group Fm -3 m (#225); Bravais cF (face-center cubic)
================================================================================
 Values of the parameters that define the memory need for DATASET  9.
     intxc =       0    ionmov =       0      iscf =      17    lmnmax =      18
     lnmax =       6     mgfft =      48  mpssoang =       3    mqgrid =    3045
     natom =       9  nloc_mem =       2    nspden =       1   nspinor =       1
    nsppol =       1      nsym =      48    n1xccc =       1    ntypat =       3
    occopt =       1   xclevel =       2
-    mband =          42        mffmem =           1         mkmem =          18
       mpw =        4888          nfft =      110592          nkpt =          72
Pmy_natom=         3
 PAW method is used; the additional fine FFT grid is defined by:
   mgfftf=        80    nfftf =    512000
================================================================================
P This job should need less than                     207.818 Mbytes of memory.
  Rough estimation (10% accuracy) of disk space for files :
_ WF disk file :    225.547 Mbytes ; DEN or POT disk file :      3.908 Mbytes.
================================================================================


 DATASET   10 : space group Fm -3 m (#225); Bravais cF (face-center cubic)
================================================================================
 Values of the parameters that define the memory need for DATASET 10.
     intxc =       0    ionmov =       0      iscf =      17    lmnmax =      18
     lnmax =       6     mgfft =      48  mpssoang =       3    mqgrid =    3011
     natom =       9  nloc_mem =       2    nspden =       1   nspinor =       1
    nsppol =       1      nsym =      48    n1xccc =       1    ntypat =       3
    occopt =       1   xclevel =       2
-    mband =          42        mffmem =           1         mkmem =          18
       mpw =        4725          nfft =      110592          nkpt =          72
Pmy_natom=         3
 PAW method is used; the additional fine FFT grid is defined by:
   mgfftf=        75    nfftf =    421875
================================================================================
P This job should need less than                     183.837 Mbytes of memory.
  Rough estimation (10% accuracy) of disk space for files :
_ WF disk file :    218.026 Mbytes ; DEN or POT disk file :      3.221 Mbytes.
================================================================================

--------------------------------------------------------------------------------
------------- Echo of variables that govern the present computation ------------
--------------------------------------------------------------------------------
-
- outvars: echo of selected default values                                      
-   iomode0 =  0 , fftalg0 =112 , wfoptalg0 = 10
-
- outvars: echo of global parameters not present in the input file              
-  max_nthreads =    0
-
 -outvars: echo values of preprocessed input variables --------
            acell1     1.4246312570E+01  1.4246312570E+01  1.4246312570E+01 Bohr
            acell2     1.4102410423E+01  1.4102410423E+01  1.4102410423E+01 Bohr
            acell3     1.3958508275E+01  1.3958508275E+01  1.3958508275E+01 Bohr
            acell4     1.3814606128E+01  1.3814606128E+01  1.3814606128E+01 Bohr
            acell5     1.3670703981E+01  1.3670703981E+01  1.3670703981E+01 Bohr
            acell6     1.3526801834E+01  1.3526801834E+01  1.3526801834E+01 Bohr
            acell7     1.3382899687E+01  1.3382899687E+01  1.3382899687E+01 Bohr
            acell8     1.3238997540E+01  1.3238997540E+01  1.3238997540E+01 Bohr
            acell9     1.3095095392E+01  1.3095095392E+01  1.3095095392E+01 Bohr
            acell10    1.2951193245E+01  1.2951193245E+01  1.2951193245E+01 Bohr
              amu      1.32905430E+02  3.54527000E+01  1.78490000E+02
           diemac      1.20000000E+01
             ecut      1.60000000E+01 Hartree
-          fftalg         112
           istwfk        2    0    0    0    0    0    3    0    0    0
                         0    0    0    0    0    0    0    0    0    0
                         0    0    0    0    0    0    0    0    0    0
                         0    0    0    0    0    0    0    0    0    0
                         0    0    7    0    0    0    0    0    0    0
                       outvar_i_n : Printing only first  50 k-points.
              ixc     -101130
           jdtset        1    2    3    4    5    6    7    8    9   10
              kpt      0.00000000E+00  0.00000000E+00  0.00000000E+00
                       8.33333333E-02  0.00000000E+00  0.00000000E+00
                       1.66666667E-01  0.00000000E+00  0.00000000E+00
                       2.50000000E-01  0.00000000E+00  0.00000000E+00
                       3.33333333E-01  0.00000000E+00  0.00000000E+00
                       4.16666667E-01  0.00000000E+00  0.00000000E+00
                       5.00000000E-01  0.00000000E+00  0.00000000E+00
                       8.33333333E-02  8.33333333E-02  0.00000000E+00
                       1.66666667E-01  8.33333333E-02  0.00000000E+00
                       2.50000000E-01  8.33333333E-02  0.00000000E+00
                       3.33333333E-01  8.33333333E-02  0.00000000E+00
                       4.16666667E-01  8.33333333E-02  0.00000000E+00
                       5.00000000E-01  8.33333333E-02  0.00000000E+00
                      -4.16666667E-01  8.33333333E-02  0.00000000E+00
                      -3.33333333E-01  8.33333333E-02  0.00000000E+00
                      -2.50000000E-01  8.33333333E-02  0.00000000E+00
                      -1.66666667E-01  8.33333333E-02  0.00000000E+00
                      -8.33333333E-02  8.33333333E-02  0.00000000E+00
                       1.66666667E-01  1.66666667E-01  0.00000000E+00
                       2.50000000E-01  1.66666667E-01  0.00000000E+00
                       3.33333333E-01  1.66666667E-01  0.00000000E+00
                       4.16666667E-01  1.66666667E-01  0.00000000E+00
                       5.00000000E-01  1.66666667E-01  0.00000000E+00
                      -4.16666667E-01  1.66666667E-01  0.00000000E+00
                      -3.33333333E-01  1.66666667E-01  0.00000000E+00
                      -2.50000000E-01  1.66666667E-01  0.00000000E+00
                      -1.66666667E-01  1.66666667E-01  0.00000000E+00
                       2.50000000E-01  2.50000000E-01  0.00000000E+00
                       3.33333333E-01  2.50000000E-01  0.00000000E+00
                       4.16666667E-01  2.50000000E-01  0.00000000E+00
                       5.00000000E-01  2.50000000E-01  0.00000000E+00
                      -4.16666667E-01  2.50000000E-01  0.00000000E+00
                      -3.33333333E-01  2.50000000E-01  0.00000000E+00
                      -2.50000000E-01  2.50000000E-01  0.00000000E+00
                       3.33333333E-01  3.33333333E-01  0.00000000E+00
                       4.16666667E-01  3.33333333E-01  0.00000000E+00
                       5.00000000E-01  3.33333333E-01  0.00000000E+00
                      -4.16666667E-01  3.33333333E-01  0.00000000E+00
                      -3.33333333E-01  3.33333333E-01  0.00000000E+00
                       4.16666667E-01  4.16666667E-01  0.00000000E+00
                       5.00000000E-01  4.16666667E-01  0.00000000E+00
                      -4.16666667E-01  4.16666667E-01  0.00000000E+00
                       5.00000000E-01  5.00000000E-01  0.00000000E+00
                       2.50000000E-01  1.66666667E-01  8.33333333E-02
                       3.33333333E-01  1.66666667E-01  8.33333333E-02
                       4.16666667E-01  1.66666667E-01  8.33333333E-02
                       5.00000000E-01  1.66666667E-01  8.33333333E-02
                      -4.16666667E-01  1.66666667E-01  8.33333333E-02
                       3.33333333E-01  2.50000000E-01  8.33333333E-02
                       4.16666667E-01  2.50000000E-01  8.33333333E-02
                       outvar_i_n : Printing only first  50 k-points.
         kptrlatt       12    0    0      0   12    0      0    0   12
          kptrlen1     1.70955751E+02
          kptrlen2     1.69228925E+02
          kptrlen3     1.67502099E+02
          kptrlen4     1.65775274E+02
          kptrlen5     1.64048448E+02
          kptrlen6     1.62321622E+02
          kptrlen7     1.60594796E+02
          kptrlen8     1.58867970E+02
          kptrlen9     1.57141145E+02
          kptrlen10    1.55414319E+02
P           mkmem          18
            natom           9
            nband          42
           ndtset          10
            ngfft1         54      54      54
            ngfft2         54      54      54
            ngfft3         54      54      54
            ngfft4         50      50      50
            ngfft5         50      50      50
            ngfft6         50      50      50
            ngfft7         50      50      50
            ngfft8         48      48      48
            ngfft9         48      48      48
            ngfft10        48      48      48
          ngfftdg1         90      90      90
          ngfftdg2         90      90      90
          ngfftdg3         80      80      80
          ngfftdg4         80      80      80
          ngfftdg5         80      80      80
          ngfftdg6         80      80      80
          ngfftdg7         80      80      80
          ngfftdg8         80      80      80
          ngfftdg9         80      80      80
          ngfftdg10        75      75      75
             nkpt          72
            nstep        2500
             nsym          48
           ntypat           3
              occ      2.000000  2.000000  2.000000  2.000000  2.000000  2.000000
                       2.000000  2.000000  2.000000  2.000000  2.000000  2.000000
                       2.000000  2.000000  2.000000  2.000000  2.000000  2.000000
                       2.000000  2.000000  2.000000  2.000000  2.000000  2.000000
                       2.000000  2.000000  2.000000  2.000000  2.000000  2.000000
                       2.000000  2.000000  2.000000  2.000000  2.000000  2.000000
                       0.000000  0.000000  0.000000  0.000000  0.000000  0.000000
        pawecutdg      4.00000000E+01 Hartree
            prtwf           0
            rprim      0.0000000000E+00  7.0710678119E-01  7.0710678119E-01
                       7.0710678119E-01  0.0000000000E+00  7.0710678119E-01
                       7.0710678119E-01  7.0710678119E-01  0.0000000000E+00
          spgroup         225
           symrel      1  0  0   0  1  0   0  0  1      -1  0  0   0 -1  0   0  0 -1
                       0 -1  1   0 -1  0   1 -1  0       0  1 -1   0  1  0  -1  1  0
                      -1  0  0  -1  0  1  -1  1  0       1  0  0   1  0 -1   1 -1  0
                       0  1 -1   1  0 -1   0  0 -1       0 -1  1  -1  0  1   0  0  1
                      -1  0  0  -1  1  0  -1  0  1       1  0  0   1 -1  0   1  0 -1
                       0 -1  1   1 -1  0   0 -1  0       0  1 -1  -1  1  0   0  1  0
                       1  0  0   0  0  1   0  1  0      -1  0  0   0  0 -1   0 -1  0
                       0  1 -1   0  0 -1   1  0 -1       0 -1  1   0  0  1  -1  0  1
                      -1  0  1  -1  1  0  -1  0  0       1  0 -1   1 -1  0   1  0  0
                       0 -1  0   1 -1  0   0 -1  1       0  1  0  -1  1  0   0  1 -1
                       1  0 -1   0  0 -1   0  1 -1      -1  0  1   0  0  1   0 -1  1
                       0  1  0   0  0  1   1  0  0       0 -1  0   0  0 -1  -1  0  0
                       1  0 -1   0  1 -1   0  0 -1      -1  0  1   0 -1  1   0  0  1
                       0 -1  0   0 -1  1   1 -1  0       0  1  0   0  1 -1  -1  1  0
                      -1  0  1  -1  0  0  -1  1  0       1  0 -1   1  0  0   1 -1  0
                       0  1  0   1  0  0   0  0  1       0 -1  0  -1  0  0   0  0 -1
                       0  0 -1   0  1 -1   1  0 -1       0  0  1   0 -1  1  -1  0  1
                       1 -1  0   0 -1  1   0 -1  0      -1  1  0   0  1 -1   0  1  0
                       0  0  1   1  0  0   0  1  0       0  0 -1  -1  0  0   0 -1  0
                      -1  1  0  -1  0  0  -1  0  1       1 -1  0   1  0  0   1  0 -1
                       0  0  1   0  1  0   1  0  0       0  0 -1   0 -1  0  -1  0  0
                       1 -1  0   0 -1  0   0 -1  1      -1  1  0   0  1  0   0  1 -1
                       0  0 -1   1  0 -1   0  1 -1       0  0  1  -1  0  1   0 -1  1
                      -1  1  0  -1  0  1  -1  0  0       1 -1  0   1  0 -1   1  0  0
           toldfe      1.00000000E-08 Hartree
            typat      1  1  2  2  2  2  2  2  3
           useylm           1
              wtk        0.00058    0.00463    0.00463    0.00463    0.00463    0.00463
                         0.00231    0.00347    0.01389    0.01389    0.01389    0.01389
                         0.01389    0.01389    0.01389    0.01389    0.01389    0.00694
                         0.00347    0.01389    0.01389    0.01389    0.01389    0.01389
                         0.01389    0.01389    0.00694    0.00347    0.01389    0.01389
                         0.01389    0.01389    0.01389    0.00694    0.00347    0.01389
                         0.01389    0.01389    0.00694    0.00347    0.01389    0.00694
                         0.00174    0.01389    0.02778    0.02778    0.02778    0.01389
                         0.01389    0.02778
                       outvars : Printing only first  50 k-points.
           xangst1     2.6653767575E+00  2.6653767575E+00  2.6653767575E+00
                       7.9961302724E+00  7.9961302724E+00  7.9961302724E+00
                       5.3307535150E+00  8.1959316493E+00  5.3307535150E+00
                       5.3307535150E+00  5.3307535150E+00  2.4655753806E+00
                       5.3307535150E+00  5.3307535150E+00  8.1959316493E+00
                       5.3307535150E+00  2.4655753806E+00  5.3307535150E+00
                       8.1959316493E+00  5.3307535150E+00  5.3307535150E+00
                       2.4655753806E+00  5.3307535150E+00  5.3307535150E+00
                      -6.3991454326E-19  2.6581479785E-19  7.1564732169E-19
           xangst2     2.6384537600E+00  2.6384537600E+00  2.6384537600E+00
                       7.9153612799E+00  7.9153612799E+00  7.9153612799E+00
                       5.2769075199E+00  8.0904204395E+00  5.2769075199E+00
                       5.2769075199E+00  5.2769075199E+00  2.4633946003E+00
                       5.2769075199E+00  5.2769075199E+00  8.0904204395E+00
                       5.2769075199E+00  2.4633946003E+00  5.2769075199E+00
                       8.0904204395E+00  5.2769075199E+00  5.2769075199E+00
                       2.4633946003E+00  5.2769075199E+00  5.2769075199E+00
                       2.6094089492E-20  1.2193018791E-20 -2.2514460921E-20
           xangst3     2.6115307623E+00  2.6115307623E+00  2.6115307623E+00
                       7.8345922868E+00  7.8345922868E+00  7.8345922868E+00
                       5.2230615245E+00  7.9849886824E+00  5.2230615245E+00
                       5.2230615245E+00  5.2230615245E+00  2.4611343666E+00
                       5.2230615245E+00  5.2230615245E+00  7.9849886824E+00
                       5.2230615245E+00  2.4611343666E+00  5.2230615245E+00
                       7.9849886824E+00  5.2230615245E+00  5.2230615245E+00
                       2.4611343666E+00  5.2230615245E+00  5.2230615245E+00
                       8.4870616754E-20  5.5700584212E-19  1.5805409092E-19
           xangst4     2.5846077647E+00  2.5846077647E+00  2.5846077647E+00
                       7.7538232942E+00  7.7538232942E+00  7.7538232942E+00
                       5.1692155295E+00  7.8801121786E+00  5.1692155295E+00
                       5.1692155295E+00  5.1692155295E+00  2.4583188803E+00
                       5.1692155295E+00  5.1692155295E+00  7.8801121786E+00
                       5.1692155295E+00  2.4583188803E+00  5.1692155295E+00
                       7.8801121786E+00  5.1692155295E+00  5.1692155295E+00
                       2.4583188803E+00  5.1692155295E+00  5.1692155295E+00
                       4.0001553699E-19  1.2018728475E-18  4.4477404231E-19
           xangst5     2.5576847672E+00  2.5576847672E+00  2.5576847672E+00
                       7.6730543017E+00  7.6730543017E+00  7.6730543017E+00
                       5.1153695344E+00  7.7757855045E+00  5.1153695344E+00
                       5.1153695344E+00  5.1153695344E+00  2.4549535644E+00
                       5.1153695344E+00  5.1153695344E+00  7.7757855045E+00
                       5.1153695344E+00  2.4549535644E+00  5.1153695344E+00
                       7.7757855045E+00  5.1153695344E+00  5.1153695344E+00
                       2.4549535644E+00  5.1153695344E+00  5.1153695344E+00
                       3.7281970741E-20  1.0183143254E-20 -3.2170176249E-20
           xangst6     2.5307617697E+00  2.5307617697E+00  2.5307617697E+00
                       7.5922853091E+00  7.5922853091E+00  7.5922853091E+00
                       5.0615235394E+00  7.6718570137E+00  5.0615235394E+00
                       5.0615235394E+00  5.0615235394E+00  2.4511900651E+00
                       5.0615235394E+00  5.0615235394E+00  7.6718570137E+00
                       5.0615235394E+00  2.4511900651E+00  5.0615235394E+00
                       7.6718570137E+00  5.0615235394E+00  5.0615235394E+00
                       2.4511900651E+00  5.0615235394E+00  5.0615235394E+00
                       8.6640276342E-20 -6.9622077964E-19  1.6361976686E-19
           xangst7     2.5038387722E+00  2.5038387722E+00  2.5038387722E+00
                       7.5115163166E+00  7.5115163166E+00  7.5115163166E+00
                       5.0076775444E+00  7.5683775154E+00  5.0076775444E+00
                       5.0076775444E+00  5.0076775444E+00  2.4469775734E+00
                       5.0076775444E+00  5.0076775444E+00  7.5683775154E+00
                       5.0076775444E+00  2.4469775734E+00  5.0076775444E+00
                       7.5683775154E+00  5.0076775444E+00  5.0076775444E+00
                       2.4469775734E+00  5.0076775444E+00  5.0076775444E+00
                       1.9396543955E-20  2.2980579871E-20 -2.4680043054E-20
           xangst8     2.4769157747E+00  2.4769157747E+00  2.4769157747E+00
                       7.4307473240E+00  7.4307473240E+00  7.4307473240E+00
                       4.9538315493E+00  7.4659034517E+00  4.9538315493E+00
                       4.9538315493E+00  4.9538315493E+00  2.4417596469E+00
                       4.9538315493E+00  4.9538315493E+00  7.4659034517E+00
                       4.9538315493E+00  2.4417596469E+00  4.9538315493E+00
                       7.4659034517E+00  4.9538315493E+00  4.9538315493E+00
                       2.4417596469E+00  4.9538315493E+00  4.9538315493E+00
                       1.1929222808E-18  1.2810847567E-19 -7.9054333365E-19
           xangst9     2.4499927770E+00  2.4499927770E+00  2.4499927770E+00
                       7.3499783309E+00  7.3499783309E+00  7.3499783309E+00
                       4.8999855539E+00  7.3640446295E+00  4.8999855539E+00
                       4.8999855539E+00  4.8999855539E+00  2.4359264784E+00
                       4.8999855539E+00  4.8999855539E+00  7.3640446295E+00
                       4.8999855539E+00  2.4359264784E+00  4.8999855539E+00
                       7.3640446295E+00  4.8999855539E+00  4.8999855539E+00
                       2.4359264784E+00  4.8999855539E+00  4.8999855539E+00
                       6.8739861619E-19  1.0893532148E-19  2.0351209545E-19
           xangst10    2.4230697794E+00  2.4230697794E+00  2.4230697794E+00
                       7.2692093383E+00  7.2692093383E+00  7.2692093383E+00
                       4.8461395589E+00  7.2630664804E+00  4.8461395589E+00
                       4.8461395589E+00  4.8461395589E+00  2.4292126374E+00
                       4.8461395589E+00  4.8461395589E+00  7.2630664804E+00
                       4.8461395589E+00  2.4292126374E+00  4.8461395589E+00
                       7.2630664804E+00  4.8461395589E+00  4.8461395589E+00
                       2.4292126374E+00  4.8461395589E+00  4.8461395589E+00
                       4.2042951887E-19  7.9341722665E-19 -5.4959817070E-19
            xcart1     5.0368321126E+00  5.0368321126E+00  5.0368321126E+00
                       1.5110496338E+01  1.5110496338E+01  1.5110496338E+01
                       1.0073664225E+01  1.5488066221E+01  1.0073664225E+01
                       1.0073664225E+01  1.0073664225E+01  4.6592622294E+00
                       1.0073664225E+01  1.0073664225E+01  1.5488066221E+01
                       1.0073664225E+01  4.6592622294E+00  1.0073664225E+01
                       1.5488066221E+01  1.0073664225E+01  1.0073664225E+01
                       4.6592622294E+00  1.0073664225E+01  1.0073664225E+01
                      -1.2092632352E-18  5.0231717001E-19  1.3523774457E-18
            xcart2     4.9859550206E+00  4.9859550206E+00  4.9859550206E+00
                       1.4957865062E+01  1.4957865062E+01  1.4957865062E+01
                       9.9719100412E+00  1.5288678931E+01  9.9719100412E+00
                       9.9719100412E+00  9.9719100412E+00  4.6551411518E+00
                       9.9719100412E+00  9.9719100412E+00  1.5288678931E+01
                       9.9719100412E+00  4.6551411518E+00  9.9719100412E+00
                       1.5288678931E+01  9.9719100412E+00  9.9719100412E+00
                       4.6551411518E+00  9.9719100412E+00  9.9719100412E+00
                       4.9310682826E-20  2.3041466248E-20 -4.2546165170E-20
            xcart3     4.9350779283E+00  4.9350779283E+00  4.9350779283E+00
                       1.4805233785E+01  1.4805233785E+01  1.4805233785E+01
                       9.8701558565E+00  1.5089441784E+01  9.8701558565E+00
                       9.8701558565E+00  9.8701558565E+00  4.6508699291E+00
                       9.8701558565E+00  9.8701558565E+00  1.5089441784E+01
                       9.8701558565E+00  4.6508699291E+00  9.8701558565E+00
                       1.5089441784E+01  9.8701558565E+00  9.8701558565E+00
                       4.6508699291E+00  9.8701558565E+00  9.8701558565E+00
                       1.6038222239E-19  1.0525884960E-18  2.9867894603E-19
            xcart4     4.8842008363E+00  4.8842008363E+00  4.8842008363E+00
                       1.4652602509E+01  1.4652602509E+01  1.4652602509E+01
                       9.7684016726E+00  1.4891253914E+01  9.7684016726E+00
                       9.7684016726E+00  9.7684016726E+00  4.6455494312E+00
                       9.7684016726E+00  9.7684016726E+00  1.4891253914E+01
                       9.7684016726E+00  4.6455494312E+00  9.7684016726E+00
                       1.4891253914E+01  9.7684016726E+00  9.7684016726E+00
                       4.6455494312E+00  9.7684016726E+00  9.7684016726E+00
                       7.5591981381E-19  2.2712105283E-18  8.4050113099E-19
            xcart5     4.8333237443E+00  4.8333237443E+00  4.8333237443E+00
                       1.4499971233E+01  1.4499971233E+01  1.4499971233E+01
                       9.6666474886E+00  1.4694105072E+01  9.6666474886E+00
                       9.6666474886E+00  9.6666474886E+00  4.6391899056E+00
                       9.6666474886E+00  9.6666474886E+00  1.4694105072E+01
                       9.6666474886E+00  4.6391899056E+00  9.6666474886E+00
                       1.4694105072E+01  9.6666474886E+00  9.6666474886E+00
                       4.6391899056E+00  9.6666474886E+00  9.6666474886E+00
                       7.0452714396E-20  1.9243351921E-20 -6.0792822758E-20
            xcart6     4.7824466523E+00  4.7824466523E+00  4.7824466523E+00
                       1.4347339957E+01  1.4347339957E+01  1.4347339957E+01
                       9.5648933046E+00  1.4497708687E+01  9.5648933046E+00
                       9.5648933046E+00  9.5648933046E+00  4.6320779227E+00
                       9.5648933046E+00  9.5648933046E+00  1.4497708687E+01
                       9.5648933046E+00  4.6320779227E+00  9.5648933046E+00
                       1.4497708687E+01  9.5648933046E+00  9.5648933046E+00
                       4.6320779227E+00  9.5648933046E+00  9.5648933046E+00
                       1.6372639436E-19 -1.3156666015E-18  3.0919654929E-19
            xcart7     4.7315695603E+00  4.7315695603E+00  4.7315695603E+00
                       1.4194708681E+01  1.4194708681E+01  1.4194708681E+01
                       9.4631391207E+00  1.4302160774E+01  9.4631391207E+00
                       9.4631391207E+00  9.4631391207E+00  4.6241174670E+00
                       9.4631391207E+00  9.4631391207E+00  1.4302160774E+01
                       9.4631391207E+00  4.6241174670E+00  9.4631391207E+00
                       1.4302160774E+01  9.4631391207E+00  9.4631391207E+00
                       4.6241174670E+00  9.4631391207E+00  9.4631391207E+00
                       3.6654155999E-20  4.3427002331E-20 -4.6638522320E-20
            xcart8     4.6806924683E+00  4.6806924683E+00  4.6806924683E+00
                       1.4042077405E+01  1.4042077405E+01  1.4042077405E+01
                       9.3613849367E+00  1.4108512858E+01  9.3613849367E+00
                       9.3613849367E+00  9.3613849367E+00  4.6142570150E+00
                       9.3613849367E+00  9.3613849367E+00  1.4108512858E+01
                       9.3613849367E+00  4.6142570150E+00  9.3613849367E+00
                       1.4108512858E+01  9.3613849367E+00  9.3613849367E+00
                       4.6142570150E+00  9.3613849367E+00  9.3613849367E+00
                       2.2542964085E-18  2.4208993433E-19 -1.4939103968E-18
            xcart9     4.6298153760E+00  4.6298153760E+00  4.6298153760E+00
                       1.3889446128E+01  1.3889446128E+01  1.3889446128E+01
                       9.2596307520E+00  1.3916027580E+01  9.2596307520E+00
                       9.2596307520E+00  9.2596307520E+00  4.6032339240E+00
                       9.2596307520E+00  9.2596307520E+00  1.3916027580E+01
                       9.2596307520E+00  4.6032339240E+00  9.2596307520E+00
                       1.3916027580E+01  9.2596307520E+00  9.2596307520E+00
                       4.6032339240E+00  9.2596307520E+00  9.2596307520E+00
                       1.2989951287E-18  2.0585792379E-19  3.8458212513E-19
            xcart10    4.5789382840E+00  4.5789382840E+00  4.5789382840E+00
                       1.3736814852E+01  1.3736814852E+01  1.3736814852E+01
                       9.1578765680E+00  1.3725206533E+01  9.1578765680E+00
                       9.1578765680E+00  9.1578765680E+00  4.5905466032E+00
                       9.1578765680E+00  9.1578765680E+00  1.3725206533E+01
                       9.1578765680E+00  4.5905466032E+00  9.1578765680E+00
                       1.3725206533E+01  9.1578765680E+00  9.1578765680E+00
                       4.5905466032E+00  9.1578765680E+00  9.1578765680E+00
                       7.9449664884E-19  1.4993412675E-18 -1.0385900258E-18
             xred1     2.5000000000E-01  2.5000000000E-01  2.5000000000E-01
                       7.5000000000E-01  7.5000000000E-01  7.5000000000E-01
                       7.6874044413E-01  2.3125955587E-01  7.6874044413E-01
                       2.3125955587E-01  2.3125955587E-01  7.6874044413E-01
                       7.6874044413E-01  7.6874044413E-01  2.3125955587E-01
                       2.3125955587E-01  7.6874044413E-01  2.3125955587E-01
                       2.3125955587E-01  7.6874044413E-01  7.6874044413E-01
                       7.6874044413E-01  2.3125955587E-01  2.3125955587E-01
                       1.5207762451E-19 -1.7828813402E-20 -1.0221322971E-19
             xred2     2.5000000000E-01  2.5000000000E-01  2.5000000000E-01
                       7.5000000000E-01  7.5000000000E-01  7.5000000000E-01
                       7.6658728706E-01  2.3341271294E-01  7.6658728706E-01
                       2.3341271294E-01  2.3341271294E-01  7.6658728706E-01
                       7.6658728706E-01  7.6658728706E-01  2.3341271294E-01
                       2.3341271294E-01  7.6658728706E-01  2.3341271294E-01
                       2.3341271294E-01  7.6658728706E-01  7.6658728706E-01
                       7.6658728706E-01  2.3341271294E-01  2.3341271294E-01
                      -3.4504614193E-21 -8.1613996339E-22  5.7610986145E-21
             xred3     2.5000000000E-01  2.5000000000E-01  2.5000000000E-01
                       7.5000000000E-01  7.5000000000E-01  7.5000000000E-01
                       7.6439734100E-01  2.3560265900E-01  7.6439734100E-01
                       2.3560265900E-01  2.3560265900E-01  7.6439734100E-01
                       7.6439734100E-01  7.6439734100E-01  2.3560265900E-01
                       2.3560265900E-01  7.6439734100E-01  2.3560265900E-01
                       2.3560265900E-01  7.6439734100E-01  7.6439734100E-01
                       7.6439734100E-01  2.3560265900E-01  2.3560265900E-01
                       6.0327579268E-20 -3.0066765724E-20  4.6315974422E-20
             xred4     2.5000000000E-01  2.5000000000E-01  2.5000000000E-01
                       7.5000000000E-01  7.5000000000E-01  7.5000000000E-01
                       7.6221547870E-01  2.3778452130E-01  7.6221547870E-01
                       2.3778452130E-01  2.3778452130E-01  7.6221547870E-01
                       7.6221547870E-01  7.6221547870E-01  2.3778452130E-01
                       2.3778452130E-01  7.6221547870E-01  2.3778452130E-01
                       2.3778452130E-01  7.6221547870E-01  7.6221547870E-01
                       7.6221547870E-01  2.3778452130E-01  2.3778452130E-01
                       1.2058225718E-19 -3.4539406040E-20  1.1192359223E-19
             xred5     2.5000000000E-01  2.5000000000E-01  2.5000000000E-01
                       7.5000000000E-01  7.5000000000E-01  7.5000000000E-01
                       7.6004142537E-01  2.3995857463E-01  7.6004142537E-01
                       2.3995857463E-01  2.3995857463E-01  7.6004142537E-01
                       7.6004142537E-01  7.6004142537E-01  2.3995857463E-01
                       2.3995857463E-01  7.6004142537E-01  2.3995857463E-01
                       2.3995857463E-01  7.6004142537E-01  7.6004142537E-01
                       7.6004142537E-01  2.3995857463E-01  2.3995857463E-01
                      -5.7932279709E-21 -4.9569720499E-22  7.7839234984E-21
             xred6     2.5000000000E-01  2.5000000000E-01  2.5000000000E-01
                       7.5000000000E-01  7.5000000000E-01  7.5000000000E-01
                       7.5786044992E-01  2.4213955008E-01  7.5786044992E-01
                       2.4213955008E-01  2.4213955008E-01  7.5786044992E-01
                       7.5786044992E-01  7.5786044992E-01  2.4213955008E-01
                       2.4213955008E-01  7.5786044992E-01  2.4213955008E-01
                       2.4213955008E-01  7.5786044992E-01  7.5786044992E-01
                       7.5786044992E-01  2.4213955008E-01  2.4213955008E-01
                      -6.1171432307E-20  9.3497621366E-20 -7.6380191077E-20
             xred7     2.5000000000E-01  2.5000000000E-01  2.5000000000E-01
                       7.5000000000E-01  7.5000000000E-01  7.5000000000E-01
                       7.5567740218E-01  2.4432259782E-01  7.5567740218E-01
                       2.4432259782E-01  2.4432259782E-01  7.5567740218E-01
                       7.5567740218E-01  7.5567740218E-01  2.4432259782E-01
                       2.4432259782E-01  7.5567740218E-01  2.4432259782E-01
                       2.4432259782E-01  7.5567740218E-01  7.5567740218E-01
                       7.5567740218E-01  2.4432259782E-01  2.4432259782E-01
                      -2.1063663695E-21 -2.8220745765E-21  6.6954357869E-21
             xred8     2.5000000000E-01  2.5000000000E-01  2.5000000000E-01
                       7.5000000000E-01  7.5000000000E-01  7.5000000000E-01
                       7.5354837739E-01  2.4645162261E-01  7.5354837739E-01
                       2.4645162261E-01  2.4645162261E-01  7.5354837739E-01
                       7.5354837739E-01  7.5354837739E-01  2.4645162261E-01
                       2.4645162261E-01  7.5354837739E-01  2.4645162261E-01
                       2.4645162261E-01  7.5354837739E-01  7.5354837739E-01
                       7.5354837739E-01  2.4645162261E-01  2.4645162261E-01
                      -1.8726485956E-19  2.7682660251E-20  2.1312534238E-19
             xred9     2.5000000000E-01  2.5000000000E-01  2.5000000000E-01
                       7.5000000000E-01  7.5000000000E-01  7.5000000000E-01
                       7.5143534082E-01  2.4856465918E-01  7.5143534082E-01
                       2.4856465918E-01  2.4856465918E-01  7.5143534082E-01
                       7.5143534082E-01  7.5143534082E-01  2.4856465918E-01
                       2.4856465918E-01  7.5143534082E-01  2.4856465918E-01
                       2.4856465918E-01  7.5143534082E-01  7.5143534082E-01
                       7.5143534082E-01  2.4856465918E-01  2.4856465918E-01
                      -3.8260439254E-20  7.9793642405E-20  6.0492203058E-20
             xred10    2.5000000000E-01  2.5000000000E-01  2.5000000000E-01
                       7.5000000000E-01  7.5000000000E-01  7.5000000000E-01
                       7.4936621120E-01  2.5063378880E-01  7.4936621120E-01
                       2.5063378880E-01  2.5063378880E-01  7.4936621120E-01
                       7.4936621120E-01  7.4936621120E-01  2.5063378880E-01
                       2.5063378880E-01  7.4936621120E-01  2.5063378880E-01
                       2.5063378880E-01  7.4936621120E-01  7.4936621120E-01
                       7.4936621120E-01  2.5063378880E-01  2.5063378880E-01
                      -1.8221768149E-20 -9.5187712536E-20  1.8194326585E-19
            znucl       55.00000   17.00000   72.00000

================================================================================

 chkinp: Checking input parameters for consistency, jdtset=   1.

 chkinp: Checking input parameters for consistency, jdtset=   2.

 chkinp: Checking input parameters for consistency, jdtset=   3.

 chkinp: Checking input parameters for consistency, jdtset=   4.

 chkinp: Checking input parameters for consistency, jdtset=   5.

 chkinp: Checking input parameters for consistency, jdtset=   6.

 chkinp: Checking input parameters for consistency, jdtset=   7.

 chkinp: Checking input parameters for consistency, jdtset=   8.

 chkinp: Checking input parameters for consistency, jdtset=   9.

 chkinp: Checking input parameters for consistency, jdtset=  10.

================================================================================
== DATASET  1 ==================================================================
-   mpi_nproc: 4, omp_nthreads: -1 (-1 if OMP is not activated)


--- !DatasetInfo
iteration_state: {dtset: 1, }
dimensions: {natom: 9, nkpt: 72, mband: 42, nsppol: 1, nspinor: 1, nspden: 1, mpw: 6274, }
cutoff_energies: {ecut:  16.0, pawecutdg:  40.0, }
electrons: {nelect:   7.20000000E+01, charge:   0.00000000E+00, occopt:   1.00000000E+00, tsmear:   1.00000000E-02, }
meta: {optdriver: 0, ionmov: 0, optcell: 0, iscf: 17, paral_kgb: 0, }
...

 Real(R)+Recip(G) space primitive vectors, cartesian coordinates (Bohr,Bohr^-1):
 R(1)=  0.0000000 10.0736642 10.0736642  G(1)= -0.0496344  0.0496344  0.0496344
 R(2)= 10.0736642  0.0000000 10.0736642  G(2)=  0.0496344 -0.0496344  0.0496344
 R(3)= 10.0736642 10.0736642  0.0000000  G(3)=  0.0496344  0.0496344 -0.0496344
 Unit cell volume ucvol=  2.0445249E+03 bohr^3
 Angles (23,13,12)=  6.00000000E+01  6.00000000E+01  6.00000000E+01 degrees

 Coarse grid specifications (used for wave-functions):

 getcut: wavevector=  0.0000  0.0000  0.0000  ngfft=  54  54  54
         ecut(hartree)=     16.000   => boxcut(ratio)=   2.10579

 Fine grid specifications (used for densities):

 getcut: wavevector=  0.0000  0.0000  0.0000  ngfft=  90  90  90
         ecut(hartree)=     40.000   => boxcut(ratio)=   2.21921

 getcut : COMMENT -
  Note that boxcut > 2.2 ; recall that boxcut=Gcut(box)/Gcut(sphere) = 2
  is sufficient for exact treatment of convolution.
  Such a large boxcut is a waste : you could raise ecut
  e.g. ecut=   49.248960 Hartrees makes boxcut=2


--- Pseudopotential description ------------------------------------------------
- pspini: atom type   1  psp file is ../../../Psps_for_tests/ATOMICDATA/Cs.GGA_PBE-JTH.xml
- pspatm: opening atomic psp file    ../../../Psps_for_tests/ATOMICDATA/Cs.GGA_PBE-JTH.xml
- pspatm : Reading pseudopotential header in XML form from ../../../Psps_for_tests/ATOMICDATA/Cs.GGA_PBE-JTH.xml
 Pseudopotential format is: paw10
 basis_size (lnmax)=  6 (lmn_size= 18), orbitals=   0   0   1   1   2   2
 Spheres core radius: rc_sph= 2.20660278
 1 radial meshes are used:
  - mesh 1: r(i)=AA*[exp(BB*(i-1))-1], size=1500 , AA= 0.15922E-03 BB= 0.87573E-02
 Shapefunction is SIN type: shapef(r)=[sin(pi*r/rshp)/(pi*r/rshp)]**2
 Radius for shape functions =  2.00394208
 mmax= 1500
 Radial grid used for partial waves is grid 1
 Radial grid used for projectors is grid 1
 Radial grid used for (t)core density is grid 1
 Radial grid used for Vloc is grid 1
 Radial grid used for pseudo valence density is grid 1
 Mesh size for Vloc has been set to 1341 to avoid numerical noise.
 Compensation charge density is not taken into account in XC energy/potential
 pspatm: atomic psp has been read  and splines computed

- pspini: atom type   2  psp file is ../../../Psps_for_tests/ATOMICDATA/Cl.GGA_PBE-JTH.xml
- pspatm: opening atomic psp file    ../../../Psps_for_tests/ATOMICDATA/Cl.GGA_PBE-JTH.xml
- pspatm : Reading pseudopotential header in XML form from ../../../Psps_for_tests/ATOMICDATA/Cl.GGA_PBE-JTH.xml
 Pseudopotential format is: paw10
 basis_size (lnmax)=  4 (lmn_size=  8), orbitals=   0   0   1   1
 Spheres core radius: rc_sph= 1.80315674
 1 radial meshes are used:
  - mesh 1: r(i)=AA*[exp(BB*(i-1))-1], size=1400 , AA= 0.50355E-03 BB= 0.85603E-02
 Shapefunction is SIN type: shapef(r)=[sin(pi*r/rshp)/(pi*r/rshp)]**2
 Radius for shape functions =  1.61320365
 mmax= 1400
 Radial grid used for partial waves is grid 1
 Radial grid used for projectors is grid 1
 Radial grid used for (t)core density is grid 1
 Radial grid used for Vloc is grid 1
 Radial grid used for pseudo valence density is grid 1
 Mesh size for Vloc has been set to 1238 to avoid numerical noise.
 Compensation charge density is not taken into account in XC energy/potential
 pspatm: atomic psp has been read  and splines computed

- pspini: atom type   3  psp file is ../../../Psps_for_tests/ATOMICDATA/Hf.GGA_PBE-JTH.xml
- pspatm: opening atomic psp file    ../../../Psps_for_tests/ATOMICDATA/Hf.GGA_PBE-JTH.xml
- pspatm : Reading pseudopotential header in XML form from ../../../Psps_for_tests/ATOMICDATA/Hf.GGA_PBE-JTH.xml
 Pseudopotential format is: paw10
 basis_size (lnmax)=  6 (lmn_size= 18), orbitals=   0   0   1   1   2   2
 Spheres core radius: rc_sph= 2.41000000
 1 radial meshes are used:
  - mesh 1: r(i)=AA*[exp(BB*(i-1))-1], size= 972 , AA= 0.19796E-03 BB= 0.14253E-01
 Shapefunction is SIN type: shapef(r)=[sin(pi*r/rshp)/(pi*r/rshp)]**2
 Radius for shape functions =  2.41000000
 mmax=  972
 Radial grid used for partial waves is grid 1
 Radial grid used for projectors is grid 1
 Radial grid used for (t)core density is grid 1
 Radial grid used for Vloc is grid 1
 Radial grid used for pseudo valence density is grid 1
 Mesh size for Vloc has been set to  809 to avoid numerical noise.
 Compensation charge density is not taken into account in XC energy/potential
 pspatm: atomic psp has been read  and splines computed

   1.56818020E+04                                ecore*ucvol(ha*bohr**3)
--------------------------------------------------------------------------------

_setup2: Arith. and geom. avg. npw (full set) are    6249.899    6249.891

================================================================================

--- !BeginCycle
iteration_state: {dtset: 1, }
solver: {iscf: 17, nstep: 2500, nline: 4, wfoptalg: 10, }
tolerances: {toldfe: 1.00E-08, }
...

     iter   Etot(hartree)      deltaE(h)  residm     nres2
 ETOT  1  -180.50544026517    -1.805E+02 5.709E+00 8.532E+00
 ETOT  2  -182.37933367084    -1.874E+00 4.004E-02 5.251E+00
 ETOT  3  -182.35595251521     2.338E-02 1.527E-02 7.047E-01
 ETOT  4  -182.35714756260    -1.195E-03 8.450E-03 1.724E-01
 ETOT  5  -182.35744392908    -2.964E-04 2.772E-03 1.339E-02
 ETOT  6  -182.35750100752    -5.708E-05 2.484E-03 2.450E-03
 ETOT  7  -182.35751750152    -1.649E-05 2.698E-03 2.033E-04
 ETOT  8  -182.35751829502    -7.935E-07 2.697E-03 3.138E-05
 ETOT  9  -182.35751844705    -1.520E-07 1.788E-03 2.948E-06
 ETOT 10  -182.35751846114    -1.408E-08 1.371E-03 5.030E-07
 ETOT 11  -182.35751846181    -6.701E-10 8.834E-04 1.132E-07
 ETOT 12  -182.35751846056     1.244E-09 6.929E-04 2.398E-08

 At SCF step   12, etot is converged : 
  for the second time, diff in etot=  1.244E-09 < toldfe=  1.000E-08

 Cartesian components of stress tensor (hartree/bohr^3)
  sigma(1 1)= -3.45057577E-06  sigma(3 2)=  0.00000000E+00
  sigma(2 2)= -3.45057577E-06  sigma(3 1)=  0.00000000E+00
  sigma(3 3)= -3.45057577E-06  sigma(2 1)=  0.00000000E+00


--- !ResultsGS
iteration_state: {dtset: 1, }
comment   : Summary of ground state results
lattice_vectors:
- [  0.0000000,  10.0736642,  10.0736642, ]
- [ 10.0736642,   0.0000000,  10.0736642, ]
- [ 10.0736642,  10.0736642,   0.0000000, ]
lattice_lengths: [  14.24631,   14.24631,   14.24631, ]
lattice_angles: [ 60.000,  60.000,  60.000, ] # degrees, (23, 13, 12)
lattice_volume:   2.0445249E+03
convergence: {deltae:  1.244E-09, res2:  2.398E-08, residm:  6.929E-04, diffor: null, }
etotal    :  -1.82357518E+02
entropy   :   0.00000000E+00
fermie    :  -4.46278922E-02
cartesian_stress_tensor: # hartree/bohr^3
- [ -3.45057577E-06,   0.00000000E+00,   0.00000000E+00, ]
- [  0.00000000E+00,  -3.45057577E-06,   0.00000000E+00, ]
- [  0.00000000E+00,   0.00000000E+00,  -3.45057577E-06, ]
pressure_GPa:   1.0152E-01
xred      :
- [  2.5000E-01,   2.5000E-01,   2.5000E-01, Cs]
- [  7.5000E-01,   7.5000E-01,   7.5000E-01, Cs]
- [  7.6874E-01,   2.3126E-01,   7.6874E-01, Cl]
- [  2.3126E-01,   2.3126E-01,   7.6874E-01, Cl]
- [  7.6874E-01,   7.6874E-01,   2.3126E-01, Cl]
- [  2.3126E-01,   7.6874E-01,   2.3126E-01, Cl]
- [  2.3126E-01,   7.6874E-01,   7.6874E-01, Cl]
- [  7.6874E-01,   2.3126E-01,   2.3126E-01, Cl]
- [  1.5208E-19,  -1.7829E-20,  -1.0221E-19, Hf]
cartesian_forces: # hartree/bohr
- [  4.67767144E-29,  -1.50583642E-21,   8.56366769E-22, ]
- [ -1.73742082E-28,  -1.50583632E-21,   8.56366829E-22, ]
- [  1.12265963E-20,  -7.23015417E-05,  -1.03702296E-20, ]
- [ -9.31036681E-22,  -5.74799670E-22,   7.23015417E-05, ]
- [  9.31036681E-22,  -2.43687303E-21,  -7.23015417E-05, ]
- [ -5.84522690E-21,   7.23015417E-05,   6.70159359E-21, ]
- [ -7.23015417E-05,   1.54708077E-22,  -8.04177732E-22, ]
- [  7.23015417E-05,  -3.16638078E-21,   2.51691112E-21, ]
- [ -0.00000000E+00,  -1.50583635E-21,   8.56366695E-22, ]
force_length_stats: {min:   1.73231263E-21, max:   7.23015417E-05, mean:   4.82010278E-05, }
...

 Integrated electronic density in atomic spheres:
 ------------------------------------------------
 Atom  Sphere_radius  Integrated_density
    1        2.20660          5.35255321
    2        2.20660          5.35255321
    3        1.80316          4.37171182
    4        1.80316          4.37171182
    5        1.80316          4.37171182
    6        1.80316          4.37171182
    7        1.80316          4.37171182
    8        1.80316          4.37171182
    9        2.41000          9.32620010

 PAW TEST:
 ==== Compensation charge inside spheres ============
 The following values must be close to each other ...
 Compensation charge over spherical meshes =     -1.450180468529290
 Compensation charge over fine fft grid    =     -1.450165113501766

 ==== Results concerning PAW augmentation regions ====

 Total pseudopotential strength Dij (hartree):
 Atom #  1
   0.41535  -0.13768   0.00000   0.00000   0.00000   0.00000   0.00000   0.00000   0.00000   0.00000   0.00000   0.00000 ...
  -0.13768   0.04131   0.00000   0.00000   0.00000   0.00000   0.00000   0.00000   0.00000   0.00000   0.00000   0.00000 ...
   0.00000   0.00000  -0.09054   0.00000   0.00000  -0.16836   0.00000   0.00000   0.00000   0.00000   0.00000  -0.00000 ...
   0.00000   0.00000   0.00000  -0.09054   0.00000   0.00000  -0.16836   0.00000  -0.00000   0.00000   0.00000   0.00000 ...
   0.00000   0.00000   0.00000   0.00000  -0.09054   0.00000   0.00000  -0.16836   0.00000  -0.00000   0.00000   0.00000 ...
   0.00000   0.00000  -0.16836   0.00000   0.00000   0.39643   0.00000   0.00000   0.00000   0.00000   0.00000   0.00000 ...
   0.00000   0.00000   0.00000  -0.16836   0.00000   0.00000   0.39643   0.00000   0.00000   0.00000   0.00000   0.00000 ...
   0.00000   0.00000   0.00000   0.00000  -0.16836   0.00000   0.00000   0.39643   0.00000   0.00000   0.00000   0.00000 ...
   0.00000   0.00000   0.00000  -0.00000   0.00000   0.00000   0.00000   0.00000   0.00565   0.00000   0.00000   0.00000 ...
   0.00000   0.00000   0.00000   0.00000  -0.00000   0.00000   0.00000   0.00000   0.00000   0.00565   0.00000   0.00000 ...
   0.00000   0.00000   0.00000   0.00000   0.00000   0.00000   0.00000   0.00000   0.00000   0.00000   0.00565   0.00000 ...
   0.00000   0.00000  -0.00000   0.00000   0.00000   0.00000   0.00000   0.00000   0.00000   0.00000   0.00000   0.00565 ...
   ...  only 12  components have been written...
 Atom #  9
  -3.48080   0.41480   0.00000   0.00000   0.00000   0.00000   0.00000   0.00000   0.00000   0.00000   0.00000   0.00000 ...
   0.41480   0.00545   0.00000   0.00000   0.00000   0.00000   0.00000   0.00000   0.00000   0.00000   0.00000   0.00000 ...
   0.00000   0.00000  -1.39436   0.00000   0.00000   0.11100   0.00000   0.00000   0.00000   0.00000   0.00000   0.00000 ...
   0.00000   0.00000   0.00000  -1.39436   0.00000   0.00000   0.11100   0.00000   0.00000   0.00000   0.00000   0.00000 ...
   0.00000   0.00000   0.00000   0.00000  -1.39436   0.00000   0.00000   0.11100   0.00000   0.00000   0.00000   0.00000 ...
   0.00000   0.00000   0.11100   0.00000   0.00000   0.01542   0.00000   0.00000   0.00000   0.00000   0.00000   0.00000 ...
   0.00000   0.00000   0.00000   0.11100   0.00000   0.00000   0.01542   0.00000   0.00000   0.00000   0.00000   0.00000 ...
   0.00000   0.00000   0.00000   0.00000   0.11100   0.00000   0.00000   0.01542   0.00000   0.00000   0.00000   0.00000 ...
   0.00000   0.00000   0.00000   0.00000   0.00000   0.00000   0.00000   0.00000  -0.38219   0.00000   0.00000   0.00000 ...
   0.00000   0.00000   0.00000   0.00000   0.00000   0.00000   0.00000   0.00000   0.00000  -0.38219   0.00000   0.00000 ...
   0.00000   0.00000   0.00000   0.00000   0.00000   0.00000   0.00000   0.00000   0.00000   0.00000  -0.38154   0.00000 ...
   0.00000   0.00000   0.00000   0.00000   0.00000   0.00000   0.00000   0.00000   0.00000   0.00000   0.00000  -0.38219 ...
   ...  only 12  components have been written...


 Augmentation waves occupancies Rhoij:
 Atom #  1
   1.99808  -0.01420   0.00000   0.00000   0.00000   0.00000   0.00000   0.00000   0.00000   0.00000   0.00000   0.00000 ...
  -0.01420   0.11066   0.00000   0.00000   0.00000   0.00000   0.00000   0.00000   0.00000   0.00000   0.00000   0.00000 ...
   0.00000   0.00000   2.01142   0.00000   0.00000  -0.00491   0.00000   0.00000   0.00000   0.00000   0.00000   0.00181 ...
   0.00000   0.00000   0.00000   2.01142   0.00000   0.00000  -0.00491   0.00000   0.00181   0.00000   0.00000   0.00000 ...
   0.00000   0.00000   0.00000   0.00000   2.01142   0.00000   0.00000  -0.00491   0.00000   0.00181   0.00000   0.00000 ...
   0.00000   0.00000  -0.00491   0.00000   0.00000   0.00009   0.00000   0.00000   0.00000   0.00000   0.00000  -0.00017 ...
   0.00000   0.00000   0.00000  -0.00491   0.00000   0.00000   0.00009   0.00000  -0.00017   0.00000   0.00000   0.00000 ...
   0.00000   0.00000   0.00000   0.00000  -0.00491   0.00000   0.00000   0.00009   0.00000  -0.00017   0.00000   0.00000 ...
   0.00000   0.00000   0.00000   0.00181   0.00000   0.00000  -0.00017   0.00000   0.03632   0.00000   0.00000   0.00000 ...
   0.00000   0.00000   0.00000   0.00000   0.00181   0.00000   0.00000  -0.00017   0.00000   0.03632   0.00000   0.00000 ...
   0.00000   0.00000   0.00000   0.00000   0.00000   0.00000   0.00000   0.00000   0.00000   0.00000   0.02239   0.00000 ...
   0.00000   0.00000   0.00181   0.00000   0.00000  -0.00017   0.00000   0.00000   0.00000   0.00000   0.00000   0.03632 ...
   ...  only 12  components have been written...
 Atom #  9
   1.99771  -0.02456   0.00000   0.00000   0.00000   0.00000   0.00000   0.00000   0.00000   0.00000   0.00000   0.00000 ...
  -0.02456   0.99528   0.00000   0.00000   0.00000   0.00000   0.00000   0.00000   0.00000   0.00000   0.00000   0.00000 ...
   0.00000   0.00000   1.99165   0.00000   0.00000  -0.07641   0.00000   0.00000   0.00000   0.00000   0.00000   0.00000 ...
   0.00000   0.00000   0.00000   1.99165   0.00000   0.00000  -0.07641   0.00000   0.00000   0.00000   0.00000   0.00000 ...
   0.00000   0.00000   0.00000   0.00000   1.99165   0.00000   0.00000  -0.07641   0.00000   0.00000   0.00000   0.00000 ...
   0.00000   0.00000  -0.07641   0.00000   0.00000   1.43592   0.00000   0.00000   0.00000   0.00000   0.00000   0.00000 ...
   0.00000   0.00000   0.00000  -0.07641   0.00000   0.00000   1.43592   0.00000   0.00000   0.00000   0.00000   0.00000 ...
   0.00000   0.00000   0.00000   0.00000  -0.07641   0.00000   0.00000   1.43592   0.00000   0.00000   0.00000   0.00000 ...
   0.00000   0.00000   0.00000   0.00000   0.00000   0.00000   0.00000   0.00000   0.52975   0.00000   0.00000   0.00000 ...
   0.00000   0.00000   0.00000   0.00000   0.00000   0.00000   0.00000   0.00000   0.00000   0.52975   0.00000   0.00000 ...
   0.00000   0.00000   0.00000   0.00000   0.00000   0.00000   0.00000   0.00000   0.00000   0.00000   1.65608   0.00000 ...
   0.00000   0.00000   0.00000   0.00000   0.00000   0.00000   0.00000   0.00000   0.00000   0.00000   0.00000   0.52975 ...
   ...  only 12  components have been written...


================================================================================

 ----iterations are completed or convergence reached----

 Mean square residual over all n,k,spin=   47.330E-07; max=  69.291E-05
 reduced coordinates (array xred) for    9 atoms
       0.250000000000      0.250000000000      0.250000000000
       0.750000000000      0.750000000000      0.750000000000
       0.768740444130      0.231259555870      0.768740444130
       0.231259555870      0.231259555870      0.768740444130
       0.768740444130      0.768740444130      0.231259555870
       0.231259555870      0.768740444130      0.231259555870
       0.231259555870      0.768740444130      0.768740444130
       0.768740444130      0.231259555870      0.231259555870
       0.000000000000     -0.000000000000     -0.000000000000
 rms dE/dt=  4.8556E-04; max dE/dt=  7.2834E-04; dE/dt below (all hartree)
    1       0.000000000000     -0.000000000000      0.000000000000
    2      -0.000000000000      0.000000000000      0.000000000000
    3       0.000728341454      0.000000000000      0.000728341454
    4      -0.000728341454     -0.000728341454      0.000000000000
    5       0.000728341454      0.000728341454      0.000000000000
    6      -0.000728341454      0.000000000000     -0.000728341454
    7       0.000000000000      0.000728341454      0.000728341454
    8      -0.000000000000     -0.000728341454     -0.000728341454
    9       0.000000000000      0.000000000000      0.000000000000

 cartesian coordinates (angstrom) at end:
    1      2.66537675748196     2.66537675748196     2.66537675748196
    2      7.99613027244590     7.99613027244590     7.99613027244590
    3      5.33075351496393     8.19593164928186     5.33075351496393
    4      5.33075351496393     5.33075351496393     2.46557538064600
    5      5.33075351496393     5.33075351496393     8.19593164928186
    6      5.33075351496393     2.46557538064600     5.33075351496393
    7      8.19593164928186     5.33075351496393     5.33075351496393
    8      2.46557538064600     5.33075351496393     5.33075351496393
    9     -0.00000000000000     0.00000000000000     0.00000000000000

 cartesian forces (hartree/bohr) at end:
    1      0.00000000000000    -0.00000000000000     0.00000000000000
    2     -0.00000000000000    -0.00000000000000     0.00000000000000
    3      0.00000000000000    -0.00007230154172    -0.00000000000000
    4     -0.00000000000000    -0.00000000000000     0.00007230154172
    5      0.00000000000000    -0.00000000000000    -0.00007230154172
    6     -0.00000000000000     0.00007230154172     0.00000000000000
    7     -0.00007230154172     0.00000000000000    -0.00000000000000
    8      0.00007230154172    -0.00000000000000     0.00000000000000
    9     -0.00000000000000    -0.00000000000000     0.00000000000000
 frms,max,avg= 3.4083274E-05 7.2301542E-05   0.000E+00  0.000E+00  0.000E+00 h/b

 cartesian forces (eV/Angstrom) at end:
    1      0.00000000000000    -0.00000000000000     0.00000000000000
    2     -0.00000000000000    -0.00000000000000     0.00000000000000
    3      0.00000000000000    -0.00371789444746    -0.00000000000000
    4     -0.00000000000000    -0.00000000000000     0.00371789444746
    5      0.00000000000000    -0.00000000000000    -0.00371789444746
    6     -0.00000000000000     0.00371789444746     0.00000000000000
    7     -0.00371789444746     0.00000000000000    -0.00000000000000
    8      0.00371789444746    -0.00000000000000     0.00000000000000
    9     -0.00000000000000    -0.00000000000000     0.00000000000000
 frms,max,avg= 1.7526323E-03 3.7178944E-03   0.000E+00  0.000E+00  0.000E+00 e/A
 length scales= 14.246312570000 14.246312570000 14.246312570000 bohr
              =  7.538823918493  7.538823918493  7.538823918493 angstroms
 prteigrs : about to open file Cs2TiI6o_DS1_EIG
 Fermi (or HOMO) energy (hartree) =  -0.04463   Average Vxc (hartree)=  -0.29058
 Eigenvalues (hartree) for nkpt=  72  k points:
 kpt#   1, nband= 42, wtk=  0.00058, kpt=  0.0000  0.0000  0.0000 (reduced coord)
  -2.28940   -1.13476   -1.13476   -1.13476   -0.73926   -0.73877   -0.53126   -0.51245
  -0.51245   -0.51011   -0.51011   -0.51011   -0.25974   -0.25974   -0.25974   -0.25525
  -0.25525   -0.25525   -0.16090   -0.11665   -0.11665   -0.11055   -0.11055   -0.11055
  -0.10560   -0.10560   -0.10560   -0.06731   -0.06731   -0.06731   -0.05311   -0.05311
  -0.05311   -0.04463   -0.04463   -0.04463    0.11216    0.11216    0.11216    0.16750
   0.19617    0.19617
 prteigrs : prtvol=0 or 1, do not print more k-points.


--- !EnergyTerms
iteration_state     : {dtset: 1, }
comment             : Components of total free energy in Hartree
kinetic             :  5.45877233900011E+01
hartree             :  4.62220175283805E+01
xc                  : -5.54599432553628E+01
Ewald energy        : -1.23078997685421E+02
psp_core            :  7.67014472848863E+00
local_psp           : -1.28098790479514E+02
spherical_terms     :  1.58002770784872E+01
total_energy        : -1.82357568694940E+02
total_energy_eV     : -4.96220180153434E+03
...


--- !EnergyTermsDC
iteration_state     : {dtset: 1, }
comment             : '"Double-counting" decomposition of free energy'
band_energy         : -2.67716416421907E+01
Ewald energy        : -1.23078997685421E+02
psp_core            :  7.67014472848863E+00
xc_dc               : -5.94738258498305E+01
spherical_terms     :  1.92968019883892E+01
total_energy_dc     : -1.82357518460564E+02
total_energy_dc_eV  : -4.96220043458746E+03
...


 Cartesian components of stress tensor (hartree/bohr^3)
  sigma(1 1)= -3.45057577E-06  sigma(3 2)=  0.00000000E+00
  sigma(2 2)= -3.45057577E-06  sigma(3 1)=  0.00000000E+00
  sigma(3 3)= -3.45057577E-06  sigma(2 1)=  0.00000000E+00

-Cartesian components of stress tensor (GPa)         [Pressure=  1.0152E-01 GPa]
- sigma(1 1)= -1.01519427E-01  sigma(3 2)=  0.00000000E+00
- sigma(2 2)= -1.01519427E-01  sigma(3 1)=  0.00000000E+00
- sigma(3 3)= -1.01519427E-01  sigma(2 1)=  0.00000000E+00

================================================================================
== DATASET  2 ==================================================================
-   mpi_nproc: 4, omp_nthreads: -1 (-1 if OMP is not activated)


--- !DatasetInfo
iteration_state: {dtset: 2, }
dimensions: {natom: 9, nkpt: 72, mband: 42, nsppol: 1, nspinor: 1, nspden: 1, mpw: 6106, }
cutoff_energies: {ecut:  16.0, pawecutdg:  40.0, }
electrons: {nelect:   7.20000000E+01, charge:   0.00000000E+00, occopt:   1.00000000E+00, tsmear:   1.00000000E-02, }
meta: {optdriver: 0, ionmov: 0, optcell: 0, iscf: 17, paral_kgb: 0, }
...

 Real(R)+Recip(G) space primitive vectors, cartesian coordinates (Bohr,Bohr^-1):
 R(1)=  0.0000000  9.9719100  9.9719100  G(1)= -0.0501408  0.0501408  0.0501408
 R(2)=  9.9719100  0.0000000  9.9719100  G(2)=  0.0501408 -0.0501408  0.0501408
 R(3)=  9.9719100  9.9719100  0.0000000  G(3)=  0.0501408  0.0501408 -0.0501408
 Unit cell volume ucvol=  1.9831933E+03 bohr^3
 Angles (23,13,12)=  6.00000000E+01  6.00000000E+01  6.00000000E+01 degrees

 Coarse grid specifications (used for wave-functions):

 getcut: wavevector=  0.0000  0.0000  0.0000  ngfft=  54  54  54
         ecut(hartree)=     16.000   => boxcut(ratio)=   2.12728

 Fine grid specifications (used for densities):

 getcut: wavevector=  0.0000  0.0000  0.0000  ngfft=  90  90  90
         ecut(hartree)=     40.000   => boxcut(ratio)=   2.24186

 getcut : COMMENT -
  Note that boxcut > 2.2 ; recall that boxcut=Gcut(box)/Gcut(sphere) = 2
  is sufficient for exact treatment of convolution.
  Such a large boxcut is a waste : you could raise ecut
  e.g. ecut=   50.259168 Hartrees makes boxcut=2


--- Pseudopotential description ------------------------------------------------
- pspini: atom type   1  psp file is ../../../Psps_for_tests/ATOMICDATA/Cs.GGA_PBE-JTH.xml
- pspatm: opening atomic psp file    ../../../Psps_for_tests/ATOMICDATA/Cs.GGA_PBE-JTH.xml
- pspatm : Reading pseudopotential header in XML form from ../../../Psps_for_tests/ATOMICDATA/Cs.GGA_PBE-JTH.xml
 Pseudopotential format is: paw10
 basis_size (lnmax)=  6 (lmn_size= 18), orbitals=   0   0   1   1   2   2
 Spheres core radius: rc_sph= 2.20660278
 1 radial meshes are used:
  - mesh 1: r(i)=AA*[exp(BB*(i-1))-1], size=1500 , AA= 0.15922E-03 BB= 0.87573E-02
 Shapefunction is SIN type: shapef(r)=[sin(pi*r/rshp)/(pi*r/rshp)]**2
 Radius for shape functions =  2.00394208
 mmax= 1500
 Radial grid used for partial waves is grid 1
 Radial grid used for projectors is grid 1
 Radial grid used for (t)core density is grid 1
 Radial grid used for Vloc is grid 1
 Radial grid used for pseudo valence density is grid 1
 Mesh size for Vloc has been set to 1341 to avoid numerical noise.
 Compensation charge density is not taken into account in XC energy/potential
 pspatm: atomic psp has been read  and splines computed

- pspini: atom type   2  psp file is ../../../Psps_for_tests/ATOMICDATA/Cl.GGA_PBE-JTH.xml
- pspatm: opening atomic psp file    ../../../Psps_for_tests/ATOMICDATA/Cl.GGA_PBE-JTH.xml
- pspatm : Reading pseudopotential header in XML form from ../../../Psps_for_tests/ATOMICDATA/Cl.GGA_PBE-JTH.xml
 Pseudopotential format is: paw10
 basis_size (lnmax)=  4 (lmn_size=  8), orbitals=   0   0   1   1
 Spheres core radius: rc_sph= 1.80315674
 1 radial meshes are used:
  - mesh 1: r(i)=AA*[exp(BB*(i-1))-1], size=1400 , AA= 0.50355E-03 BB= 0.85603E-02
 Shapefunction is SIN type: shapef(r)=[sin(pi*r/rshp)/(pi*r/rshp)]**2
 Radius for shape functions =  1.61320365
 mmax= 1400
 Radial grid used for partial waves is grid 1
 Radial grid used for projectors is grid 1
 Radial grid used for (t)core density is grid 1
 Radial grid used for Vloc is grid 1
 Radial grid used for pseudo valence density is grid 1
 Mesh size for Vloc has been set to 1238 to avoid numerical noise.
 Compensation charge density is not taken into account in XC energy/potential
 pspatm: atomic psp has been read  and splines computed

- pspini: atom type   3  psp file is ../../../Psps_for_tests/ATOMICDATA/Hf.GGA_PBE-JTH.xml
- pspatm: opening atomic psp file    ../../../Psps_for_tests/ATOMICDATA/Hf.GGA_PBE-JTH.xml
- pspatm : Reading pseudopotential header in XML form from ../../../Psps_for_tests/ATOMICDATA/Hf.GGA_PBE-JTH.xml
 Pseudopotential format is: paw10
 basis_size (lnmax)=  6 (lmn_size= 18), orbitals=   0   0   1   1   2   2
 Spheres core radius: rc_sph= 2.41000000
 1 radial meshes are used:
  - mesh 1: r(i)=AA*[exp(BB*(i-1))-1], size= 972 , AA= 0.19796E-03 BB= 0.14253E-01
 Shapefunction is SIN type: shapef(r)=[sin(pi*r/rshp)/(pi*r/rshp)]**2
 Radius for shape functions =  2.41000000
 mmax=  972
 Radial grid used for partial waves is grid 1
 Radial grid used for projectors is grid 1
 Radial grid used for (t)core density is grid 1
 Radial grid used for Vloc is grid 1
 Radial grid used for pseudo valence density is grid 1
 Mesh size for Vloc has been set to  809 to avoid numerical noise.
 Compensation charge density is not taken into account in XC energy/potential
 pspatm: atomic psp has been read  and splines computed

--------------------------------------------------------------------------------

_setup2: Arith. and geom. avg. npw (full set) are    6062.196    6062.188

================================================================================

--- !BeginCycle
iteration_state: {dtset: 2, }
solver: {iscf: 17, nstep: 2500, nline: 4, wfoptalg: 10, }
tolerances: {toldfe: 1.00E-08, }
...

     iter   Etot(hartree)      deltaE(h)  residm     nres2
 ETOT  1  -180.35531180040    -1.804E+02 7.490E+00 8.357E+00
 ETOT  2  -182.38337664508    -2.028E+00 4.388E-02 6.404E+00
 ETOT  3  -182.35552527125     2.785E-02 1.974E-02 9.140E-01
 ETOT  4  -182.35617753106    -6.523E-04 5.682E-03 1.886E-01
 ETOT  5  -182.35654237882    -3.648E-04 4.125E-03 1.260E-02
 ETOT  6  -182.35660064031    -5.826E-05 3.422E-03 2.388E-03
 ETOT  7  -182.35661854292    -1.790E-05 3.031E-03 1.940E-04
 ETOT  8  -182.35661980735    -1.264E-06 2.369E-03 3.875E-05
 ETOT  9  -182.35662006301    -2.557E-07 1.562E-03 2.194E-06
 ETOT 10  -182.35662007744    -1.443E-08 1.051E-03 3.833E-07
 ETOT 11  -182.35662007830    -8.635E-10 6.447E-04 6.038E-08
 ETOT 12  -182.35662007782     4.881E-10 7.637E-04 1.368E-08

 At SCF step   12, etot is converged : 
  for the second time, diff in etot=  4.881E-10 < toldfe=  1.000E-08

 Cartesian components of stress tensor (hartree/bohr^3)
  sigma(1 1)= -1.44811054E-05  sigma(3 2)=  0.00000000E+00
  sigma(2 2)= -1.44811054E-05  sigma(3 1)=  0.00000000E+00
  sigma(3 3)= -1.44811054E-05  sigma(2 1)=  0.00000000E+00


--- !ResultsGS
iteration_state: {dtset: 2, }
comment   : Summary of ground state results
lattice_vectors:
- [  0.0000000,   9.9719100,   9.9719100, ]
- [  9.9719100,   0.0000000,   9.9719100, ]
- [  9.9719100,   9.9719100,   0.0000000, ]
lattice_lengths: [  14.10241,   14.10241,   14.10241, ]
lattice_angles: [ 60.000,  60.000,  60.000, ] # degrees, (23, 13, 12)
lattice_volume:   1.9831933E+03
convergence: {deltae:  4.881E-10, res2:  1.368E-08, residm:  7.637E-04, diffor: null, }
etotal    :  -1.82356620E+02
entropy   :   0.00000000E+00
fermie    :  -3.84445690E-02
cartesian_stress_tensor: # hartree/bohr^3
- [ -1.44811054E-05,   0.00000000E+00,   0.00000000E+00, ]
- [  0.00000000E+00,  -1.44811054E-05,   0.00000000E+00, ]
- [  0.00000000E+00,   0.00000000E+00,  -1.44811054E-05, ]
pressure_GPa:   4.2605E-01
xred      :
- [  2.5000E-01,   2.5000E-01,   2.5000E-01, Cs]
- [  7.5000E-01,   7.5000E-01,   7.5000E-01, Cs]
- [  7.6659E-01,   2.3341E-01,   7.6659E-01, Cl]
- [  2.3341E-01,   2.3341E-01,   7.6659E-01, Cl]
- [  7.6659E-01,   7.6659E-01,   2.3341E-01, Cl]
- [  2.3341E-01,   7.6659E-01,   2.3341E-01, Cl]
- [  2.3341E-01,   7.6659E-01,   7.6659E-01, Cl]
- [  7.6659E-01,   2.3341E-01,   2.3341E-01, Cl]
- [ -3.4505E-21,  -8.1614E-22,   5.7611E-21, Hf]
cartesian_forces: # hartree/bohr
- [  7.52918162E-22,  -5.64688564E-22,  -5.40589916E-22, ]
- [  7.52918412E-22,  -5.64688841E-22,  -5.40589747E-22, ]
- [ -1.15803701E-21,  -2.39296326E-05,   1.37036537E-21, ]
- [ -1.89451832E-21,   2.02611993E-21,   2.39296326E-05, ]
- [  6.82213994E-22,  -4.37356519E-22,  -2.39296326E-05, ]
- [  9.69807470E-22,   2.39296326E-05,  -7.57479115E-22, ]
- [ -2.39296326E-05,   9.12487969E-22,  -2.01776642E-21, ]
- [  2.39296326E-05,  -3.47799337E-22,  -7.57479115E-22, ]
- [  7.52918175E-22,  -5.64688632E-22,  -5.40589821E-22, ]
force_length_stats: {min:   1.08535542E-21, max:   2.39296326E-05, mean:   1.59530884E-05, }
...

 Integrated electronic density in atomic spheres:
 ------------------------------------------------
 Atom  Sphere_radius  Integrated_density
    1        2.20660          5.37263301
    2        2.20660          5.37263301
    3        1.80316          4.35050698
    4        1.80316          4.35050698
    5        1.80316          4.35050698
    6        1.80316          4.35050698
    7        1.80316          4.35050698
    8        1.80316          4.35050698
    9        2.41000          9.32969688

 PAW TEST:
 ==== Compensation charge inside spheres ============
 The following values must be close to each other ...
 Compensation charge over spherical meshes =     -1.450990249231268
 Compensation charge over fine fft grid    =     -1.450928409213376

 ==== Results concerning PAW augmentation regions ====

 Total pseudopotential strength Dij (hartree):
 Atom #  1
   0.41319  -0.13698   0.00000   0.00000   0.00000   0.00000   0.00000   0.00000   0.00000   0.00000   0.00000   0.00000 ...
  -0.13698   0.04108   0.00000   0.00000   0.00000   0.00000   0.00000   0.00000   0.00000   0.00000   0.00000   0.00000 ...
   0.00000   0.00000  -0.09027   0.00000   0.00000  -0.16853   0.00000   0.00000   0.00000   0.00000   0.00000  -0.00000 ...
   0.00000   0.00000   0.00000  -0.09027   0.00000   0.00000  -0.16853   0.00000  -0.00000   0.00000   0.00000   0.00000 ...
   0.00000   0.00000   0.00000   0.00000  -0.09027   0.00000   0.00000  -0.16853   0.00000  -0.00000   0.00000   0.00000 ...
   0.00000   0.00000  -0.16853   0.00000   0.00000   0.39579   0.00000   0.00000   0.00000   0.00000   0.00000   0.00000 ...
   0.00000   0.00000   0.00000  -0.16853   0.00000   0.00000   0.39579   0.00000   0.00000   0.00000   0.00000   0.00000 ...
   0.00000   0.00000   0.00000   0.00000  -0.16853   0.00000   0.00000   0.39579   0.00000   0.00000   0.00000   0.00000 ...
   0.00000   0.00000   0.00000  -0.00000   0.00000   0.00000   0.00000   0.00000   0.00569   0.00000   0.00000   0.00000 ...
   0.00000   0.00000   0.00000   0.00000  -0.00000   0.00000   0.00000   0.00000   0.00000   0.00569   0.00000   0.00000 ...
   0.00000   0.00000   0.00000   0.00000   0.00000   0.00000   0.00000   0.00000   0.00000   0.00000   0.00569   0.00000 ...
   0.00000   0.00000  -0.00000   0.00000   0.00000   0.00000   0.00000   0.00000   0.00000   0.00000   0.00000   0.00569 ...
   ...  only 12  components have been written...
 Atom #  9
  -3.47836   0.41392   0.00000   0.00000   0.00000   0.00000   0.00000   0.00000   0.00000   0.00000   0.00000   0.00000 ...
   0.41392   0.00563   0.00000   0.00000   0.00000   0.00000   0.00000   0.00000   0.00000   0.00000   0.00000   0.00000 ...
   0.00000   0.00000  -1.39034   0.00000   0.00000   0.11019   0.00000   0.00000   0.00000   0.00000   0.00000   0.00000 ...
   0.00000   0.00000   0.00000  -1.39034   0.00000   0.00000   0.11019   0.00000   0.00000   0.00000   0.00000   0.00000 ...
   0.00000   0.00000   0.00000   0.00000  -1.39034   0.00000   0.00000   0.11019   0.00000   0.00000   0.00000   0.00000 ...
   0.00000   0.00000   0.11019   0.00000   0.00000   0.01555   0.00000   0.00000   0.00000   0.00000   0.00000   0.00000 ...
   0.00000   0.00000   0.00000   0.11019   0.00000   0.00000   0.01555   0.00000   0.00000   0.00000   0.00000   0.00000 ...
[...]
                       7.3640446295E+00  4.8999855539E+00  4.8999855539E+00
                       2.4359264784E+00  4.8999855539E+00  4.8999855539E+00
                       6.8739861619E-19  1.0893532148E-19  2.0351209545E-19
           xangst10    2.4230697794E+00  2.4230697794E+00  2.4230697794E+00
                       7.2692093383E+00  7.2692093383E+00  7.2692093383E+00
                       4.8461395589E+00  7.2630664804E+00  4.8461395589E+00
                       4.8461395589E+00  4.8461395589E+00  2.4292126374E+00
                       4.8461395589E+00  4.8461395589E+00  7.2630664804E+00
                       4.8461395589E+00  2.4292126374E+00  4.8461395589E+00
                       7.2630664804E+00  4.8461395589E+00  4.8461395589E+00
                       2.4292126374E+00  4.8461395589E+00  4.8461395589E+00
                       4.2042951887E-19  7.9341722665E-19 -5.4959817070E-19
            xcart1     5.0368321126E+00  5.0368321126E+00  5.0368321126E+00
                       1.5110496338E+01  1.5110496338E+01  1.5110496338E+01
                       1.0073664225E+01  1.5488066221E+01  1.0073664225E+01
                       1.0073664225E+01  1.0073664225E+01  4.6592622294E+00
                       1.0073664225E+01  1.0073664225E+01  1.5488066221E+01
                       1.0073664225E+01  4.6592622294E+00  1.0073664225E+01
                       1.5488066221E+01  1.0073664225E+01  1.0073664225E+01
                       4.6592622294E+00  1.0073664225E+01  1.0073664225E+01
                      -1.2092632352E-18  5.0231717001E-19  1.3523774457E-18
            xcart2     4.9859550206E+00  4.9859550206E+00  4.9859550206E+00
                       1.4957865062E+01  1.4957865062E+01  1.4957865062E+01
                       9.9719100412E+00  1.5288678931E+01  9.9719100412E+00
                       9.9719100412E+00  9.9719100412E+00  4.6551411518E+00
                       9.9719100412E+00  9.9719100412E+00  1.5288678931E+01
                       9.9719100412E+00  4.6551411518E+00  9.9719100412E+00
                       1.5288678931E+01  9.9719100412E+00  9.9719100412E+00
                       4.6551411518E+00  9.9719100412E+00  9.9719100412E+00
                       4.9310682826E-20  2.3041466248E-20 -4.2546165170E-20
            xcart3     4.9350779283E+00  4.9350779283E+00  4.9350779283E+00
                       1.4805233785E+01  1.4805233785E+01  1.4805233785E+01
                       9.8701558565E+00  1.5089441784E+01  9.8701558565E+00
                       9.8701558565E+00  9.8701558565E+00  4.6508699291E+00
                       9.8701558565E+00  9.8701558565E+00  1.5089441784E+01
                       9.8701558565E+00  4.6508699291E+00  9.8701558565E+00
                       1.5089441784E+01  9.8701558565E+00  9.8701558565E+00
                       4.6508699291E+00  9.8701558565E+00  9.8701558565E+00
                       1.6038222239E-19  1.0525884960E-18  2.9867894603E-19
            xcart4     4.8842008363E+00  4.8842008363E+00  4.8842008363E+00
                       1.4652602509E+01  1.4652602509E+01  1.4652602509E+01
                       9.7684016726E+00  1.4891253914E+01  9.7684016726E+00
                       9.7684016726E+00  9.7684016726E+00  4.6455494312E+00
                       9.7684016726E+00  9.7684016726E+00  1.4891253914E+01
                       9.7684016726E+00  4.6455494312E+00  9.7684016726E+00
                       1.4891253914E+01  9.7684016726E+00  9.7684016726E+00
                       4.6455494312E+00  9.7684016726E+00  9.7684016726E+00
                       7.5591981381E-19  2.2712105283E-18  8.4050113099E-19
            xcart5     4.8333237443E+00  4.8333237443E+00  4.8333237443E+00
                       1.4499971233E+01  1.4499971233E+01  1.4499971233E+01
                       9.6666474886E+00  1.4694105072E+01  9.6666474886E+00
                       9.6666474886E+00  9.6666474886E+00  4.6391899056E+00
                       9.6666474886E+00  9.6666474886E+00  1.4694105072E+01
                       9.6666474886E+00  4.6391899056E+00  9.6666474886E+00
                       1.4694105072E+01  9.6666474886E+00  9.6666474886E+00
                       4.6391899056E+00  9.6666474886E+00  9.6666474886E+00
                       7.0452714396E-20  1.9243351921E-20 -6.0792822758E-20
            xcart6     4.7824466523E+00  4.7824466523E+00  4.7824466523E+00
                       1.4347339957E+01  1.4347339957E+01  1.4347339957E+01
                       9.5648933046E+00  1.4497708687E+01  9.5648933046E+00
                       9.5648933046E+00  9.5648933046E+00  4.6320779227E+00
                       9.5648933046E+00  9.5648933046E+00  1.4497708687E+01
                       9.5648933046E+00  4.6320779227E+00  9.5648933046E+00
                       1.4497708687E+01  9.5648933046E+00  9.5648933046E+00
                       4.6320779227E+00  9.5648933046E+00  9.5648933046E+00
                       1.6372639436E-19 -1.3156666015E-18  3.0919654929E-19
            xcart7     4.7315695603E+00  4.7315695603E+00  4.7315695603E+00
                       1.4194708681E+01  1.4194708681E+01  1.4194708681E+01
                       9.4631391207E+00  1.4302160774E+01  9.4631391207E+00
                       9.4631391207E+00  9.4631391207E+00  4.6241174670E+00
                       9.4631391207E+00  9.4631391207E+00  1.4302160774E+01
                       9.4631391207E+00  4.6241174670E+00  9.4631391207E+00
                       1.4302160774E+01  9.4631391207E+00  9.4631391207E+00
                       4.6241174670E+00  9.4631391207E+00  9.4631391207E+00
                       3.6654155999E-20  4.3427002331E-20 -4.6638522320E-20
            xcart8     4.6806924683E+00  4.6806924683E+00  4.6806924683E+00
                       1.4042077405E+01  1.4042077405E+01  1.4042077405E+01
                       9.3613849367E+00  1.4108512858E+01  9.3613849367E+00
                       9.3613849367E+00  9.3613849367E+00  4.6142570150E+00
                       9.3613849367E+00  9.3613849367E+00  1.4108512858E+01
                       9.3613849367E+00  4.6142570150E+00  9.3613849367E+00
                       1.4108512858E+01  9.3613849367E+00  9.3613849367E+00
                       4.6142570150E+00  9.3613849367E+00  9.3613849367E+00
                       2.2542964085E-18  2.4208993433E-19 -1.4939103968E-18
            xcart9     4.6298153760E+00  4.6298153760E+00  4.6298153760E+00
                       1.3889446128E+01  1.3889446128E+01  1.3889446128E+01
                       9.2596307520E+00  1.3916027580E+01  9.2596307520E+00
                       9.2596307520E+00  9.2596307520E+00  4.6032339240E+00
                       9.2596307520E+00  9.2596307520E+00  1.3916027580E+01
                       9.2596307520E+00  4.6032339240E+00  9.2596307520E+00
                       1.3916027580E+01  9.2596307520E+00  9.2596307520E+00
                       4.6032339240E+00  9.2596307520E+00  9.2596307520E+00
                       1.2989951287E-18  2.0585792379E-19  3.8458212513E-19
            xcart10    4.5789382840E+00  4.5789382840E+00  4.5789382840E+00
                       1.3736814852E+01  1.3736814852E+01  1.3736814852E+01
                       9.1578765680E+00  1.3725206533E+01  9.1578765680E+00
                       9.1578765680E+00  9.1578765680E+00  4.5905466032E+00
                       9.1578765680E+00  9.1578765680E+00  1.3725206533E+01
                       9.1578765680E+00  4.5905466032E+00  9.1578765680E+00
                       1.3725206533E+01  9.1578765680E+00  9.1578765680E+00
                       4.5905466032E+00  9.1578765680E+00  9.1578765680E+00
                       7.9449664884E-19  1.4993412675E-18 -1.0385900258E-18
             xred1     2.5000000000E-01  2.5000000000E-01  2.5000000000E-01
                       7.5000000000E-01  7.5000000000E-01  7.5000000000E-01
                       7.6874044413E-01  2.3125955587E-01  7.6874044413E-01
                       2.3125955587E-01  2.3125955587E-01  7.6874044413E-01
                       7.6874044413E-01  7.6874044413E-01  2.3125955587E-01
                       2.3125955587E-01  7.6874044413E-01  2.3125955587E-01
                       2.3125955587E-01  7.6874044413E-01  7.6874044413E-01
                       7.6874044413E-01  2.3125955587E-01  2.3125955587E-01
                       1.5207762451E-19 -1.7828813402E-20 -1.0221322971E-19
             xred2     2.5000000000E-01  2.5000000000E-01  2.5000000000E-01
                       7.5000000000E-01  7.5000000000E-01  7.5000000000E-01
                       7.6658728706E-01  2.3341271294E-01  7.6658728706E-01
                       2.3341271294E-01  2.3341271294E-01  7.6658728706E-01
                       7.6658728706E-01  7.6658728706E-01  2.3341271294E-01
                       2.3341271294E-01  7.6658728706E-01  2.3341271294E-01
                       2.3341271294E-01  7.6658728706E-01  7.6658728706E-01
                       7.6658728706E-01  2.3341271294E-01  2.3341271294E-01
                      -3.4504614193E-21 -8.1613996339E-22  5.7610986145E-21
             xred3     2.5000000000E-01  2.5000000000E-01  2.5000000000E-01
                       7.5000000000E-01  7.5000000000E-01  7.5000000000E-01
                       7.6439734100E-01  2.3560265900E-01  7.6439734100E-01
                       2.3560265900E-01  2.3560265900E-01  7.6439734100E-01
                       7.6439734100E-01  7.6439734100E-01  2.3560265900E-01
                       2.3560265900E-01  7.6439734100E-01  2.3560265900E-01
                       2.3560265900E-01  7.6439734100E-01  7.6439734100E-01
                       7.6439734100E-01  2.3560265900E-01  2.3560265900E-01
                       6.0327579268E-20 -3.0066765724E-20  4.6315974422E-20
             xred4     2.5000000000E-01  2.5000000000E-01  2.5000000000E-01
                       7.5000000000E-01  7.5000000000E-01  7.5000000000E-01
                       7.6221547870E-01  2.3778452130E-01  7.6221547870E-01
                       2.3778452130E-01  2.3778452130E-01  7.6221547870E-01
                       7.6221547870E-01  7.6221547870E-01  2.3778452130E-01
                       2.3778452130E-01  7.6221547870E-01  2.3778452130E-01
                       2.3778452130E-01  7.6221547870E-01  7.6221547870E-01
                       7.6221547870E-01  2.3778452130E-01  2.3778452130E-01
                       1.2058225718E-19 -3.4539406040E-20  1.1192359223E-19
             xred5     2.5000000000E-01  2.5000000000E-01  2.5000000000E-01
                       7.5000000000E-01  7.5000000000E-01  7.5000000000E-01
                       7.6004142537E-01  2.3995857463E-01  7.6004142537E-01
                       2.3995857463E-01  2.3995857463E-01  7.6004142537E-01
                       7.6004142537E-01  7.6004142537E-01  2.3995857463E-01
                       2.3995857463E-01  7.6004142537E-01  2.3995857463E-01
                       2.3995857463E-01  7.6004142537E-01  7.6004142537E-01
                       7.6004142537E-01  2.3995857463E-01  2.3995857463E-01
                      -5.7932279709E-21 -4.9569720499E-22  7.7839234984E-21
             xred6     2.5000000000E-01  2.5000000000E-01  2.5000000000E-01
                       7.5000000000E-01  7.5000000000E-01  7.5000000000E-01
                       7.5786044992E-01  2.4213955008E-01  7.5786044992E-01
                       2.4213955008E-01  2.4213955008E-01  7.5786044992E-01
                       7.5786044992E-01  7.5786044992E-01  2.4213955008E-01
                       2.4213955008E-01  7.5786044992E-01  2.4213955008E-01
                       2.4213955008E-01  7.5786044992E-01  7.5786044992E-01
                       7.5786044992E-01  2.4213955008E-01  2.4213955008E-01
                      -6.1171432307E-20  9.3497621366E-20 -7.6380191077E-20
             xred7     2.5000000000E-01  2.5000000000E-01  2.5000000000E-01
                       7.5000000000E-01  7.5000000000E-01  7.5000000000E-01
                       7.5567740218E-01  2.4432259782E-01  7.5567740218E-01
                       2.4432259782E-01  2.4432259782E-01  7.5567740218E-01
                       7.5567740218E-01  7.5567740218E-01  2.4432259782E-01
                       2.4432259782E-01  7.5567740218E-01  2.4432259782E-01
                       2.4432259782E-01  7.5567740218E-01  7.5567740218E-01
                       7.5567740218E-01  2.4432259782E-01  2.4432259782E-01
                      -2.1063663695E-21 -2.8220745765E-21  6.6954357869E-21
             xred8     2.5000000000E-01  2.5000000000E-01  2.5000000000E-01
                       7.5000000000E-01  7.5000000000E-01  7.5000000000E-01
                       7.5354837739E-01  2.4645162261E-01  7.5354837739E-01
                       2.4645162261E-01  2.4645162261E-01  7.5354837739E-01
                       7.5354837739E-01  7.5354837739E-01  2.4645162261E-01
                       2.4645162261E-01  7.5354837739E-01  2.4645162261E-01
                       2.4645162261E-01  7.5354837739E-01  7.5354837739E-01
                       7.5354837739E-01  2.4645162261E-01  2.4645162261E-01
                      -1.8726485956E-19  2.7682660251E-20  2.1312534238E-19
             xred9     2.5000000000E-01  2.5000000000E-01  2.5000000000E-01
                       7.5000000000E-01  7.5000000000E-01  7.5000000000E-01
                       7.5143534082E-01  2.4856465918E-01  7.5143534082E-01
                       2.4856465918E-01  2.4856465918E-01  7.5143534082E-01
                       7.5143534082E-01  7.5143534082E-01  2.4856465918E-01
                       2.4856465918E-01  7.5143534082E-01  2.4856465918E-01
                       2.4856465918E-01  7.5143534082E-01  7.5143534082E-01
                       7.5143534082E-01  2.4856465918E-01  2.4856465918E-01
                      -3.8260439254E-20  7.9793642405E-20  6.0492203058E-20
             xred10    2.5000000000E-01  2.5000000000E-01  2.5000000000E-01
                       7.5000000000E-01  7.5000000000E-01  7.5000000000E-01
                       7.4936621120E-01  2.5063378880E-01  7.4936621120E-01
                       2.5063378880E-01  2.5063378880E-01  7.4936621120E-01
                       7.4936621120E-01  7.4936621120E-01  2.5063378880E-01
                       2.5063378880E-01  7.4936621120E-01  2.5063378880E-01
                       2.5063378880E-01  7.4936621120E-01  7.4936621120E-01
                       7.4936621120E-01  2.5063378880E-01  2.5063378880E-01
                      -1.8221768149E-20 -9.5187712536E-20  1.8194326585E-19
            znucl       55.00000   17.00000   72.00000

================================================================================


- Timing analysis has been suppressed with timopt=0



================================================================================

 Suggested references for the acknowledgment of ABINIT usage.

 The users of ABINIT have little formal obligations with respect to the ABINIT group
 (those specified in the GNU General Public License, http://www.gnu.org/copyleft/gpl.txt).
 However, it is common practice in the scientific literature,
 to acknowledge the efforts of people that have made the research possible.
 In this spirit, please find below suggested citations of work written by ABINIT developers,
 corresponding to implementations inside of ABINIT that you have used in the present run.
 Note also that it will be of great value to readers of publications presenting these results,
 to read papers enabling them to understand the theoretical formalism and details
 of the ABINIT implementation.
 For information on why they are suggested, see also https://docs.abinit.org/theory/acknowledgments.
-
- [1] Implementation of the Projector Augmented-Wave Method in the ABINIT code.
- M. Torrent, F. Jollet, F. Bottin, G. Zerah, and X. Gonze Comput. Mat. Science 42, 337, (2008).
- Comment: PAW calculations. Strong suggestion to cite this paper.
- DOI and bibtex: see https://docs.abinit.org/theory/bibliography/#torrent2008
-
- [2] Libxc: A library of exchange and correlation functionals for density functional theory.
- M.A.L. Marques, M.J.T. Oliveira, T. Burnus, Computer Physics Communications 183, 2227 (2012).
- Comment: to be cited when LibXC is used (negative value of ixc)
- Strong suggestion to cite this paper.
- DOI and bibtex: see https://docs.abinit.org/theory/bibliography/#marques2012
-
- [3] The Abinit project: Impact, environment and recent developments.
- Computer Phys. Comm. 248, 107042 (2020).
- X.Gonze, B. Amadon, G. Antonius, F.Arnardi, L.Baguet, J.-M.Beuken,
- J.Bieder, F.Bottin, J.Bouchet, E.Bousquet, N.Brouwer, F.Bruneval,
- G.Brunin, T.Cavignac, J.-B. Charraud, Wei Chen, M.Cote, S.Cottenier,
- J.Denier, G.Geneste, Ph.Ghosez, M.Giantomassi, Y.Gillet, O.Gingras,
- D.R.Hamann, G.Hautier, Xu He, N.Helbig, N.Holzwarth, Y.Jia, F.Jollet,
- W.Lafargue-Dit-Hauret, K.Lejaeghere, M.A.L.Marques, A.Martin, C.Martins,
- H.P.C. Miranda, F.Naccarato, K. Persson, G.Petretto, V.Planes, Y.Pouillon,
- S.Prokhorenko, F.Ricci, G.-M.Rignanese, A.H.Romero, M.M.Schmitt, M.Torrent,
- M.J.van Setten, B.Van Troeye, M.J.Verstraete, G.Zerah and J.W.Zwanzig
- Comment: the fifth generic paper describing the ABINIT project.
- Note that a version of this paper, that is not formatted for Computer Phys. Comm. 
- is available at https://www.abinit.org/sites/default/files/ABINIT20.pdf .
- The licence allows the authors to put it on the Web.
- DOI and bibtex: see https://docs.abinit.org/theory/bibliography/#gonze2020
-
- [4] ABINIT: Overview, and focus on selected capabilities
- J. Chem. Phys. 152, 124102 (2020).
- A. Romero, D.C. Allan, B. Amadon, G. Antonius, T. Applencourt, L.Baguet,
- J.Bieder, F.Bottin, J.Bouchet, E.Bousquet, F.Bruneval,
- G.Brunin, D.Caliste, M.Cote,
- J.Denier, C. Dreyer, Ph.Ghosez, M.Giantomassi, Y.Gillet, O.Gingras,
- D.R.Hamann, G.Hautier, F.Jollet, G. Jomard,
- A.Martin, 
- H.P.C. Miranda, F.Naccarato, G.Petretto, N.A. Pike, V.Planes,
- S.Prokhorenko, T. Rangel, F.Ricci, G.-M.Rignanese, M.Royo, M.Stengel, M.Torrent,
- M.J.van Setten, B.Van Troeye, M.J.Verstraete, J.Wiktor, J.W.Zwanziger, and X.Gonze.
- Comment: a global overview of ABINIT, with focus on selected capabilities .
- Note that a version of this paper, that is not formatted for J. Chem. Phys 
- is available at https://www.abinit.org/sites/default/files/ABINIT20_JPC.pdf .
- The licence allows the authors to put it on the Web.
- DOI and bibtex: see https://docs.abinit.org/theory/bibliography/#romero2020
-
- [5] Recent developments in the ABINIT software package.
- Computer Phys. Comm. 205, 106 (2016).
- X.Gonze, F.Jollet, F.Abreu Araujo, D.Adams, B.Amadon, T.Applencourt,
- C.Audouze, J.-M.Beuken, J.Bieder, A.Bokhanchuk, E.Bousquet, F.Bruneval
- D.Caliste, M.Cote, F.Dahm, F.Da Pieve, M.Delaveau, M.Di Gennaro,
- B.Dorado, C.Espejo, G.Geneste, L.Genovese, A.Gerossier, M.Giantomassi,
- Y.Gillet, D.R.Hamann, L.He, G.Jomard, J.Laflamme Janssen, S.Le Roux,
- A.Levitt, A.Lherbier, F.Liu, I.Lukacevic, A.Martin, C.Martins,
- M.J.T.Oliveira, S.Ponce, Y.Pouillon, T.Rangel, G.-M.Rignanese,
- A.H.Romero, B.Rousseau, O.Rubel, A.A.Shukri, M.Stankovski, M.Torrent,
- M.J.Van Setten, B.Van Troeye, M.J.Verstraete, D.Waroquier, J.Wiktor,
- B.Xu, A.Zhou, J.W.Zwanziger.
- Comment: the fourth generic paper describing the ABINIT project.
- Note that a version of this paper, that is not formatted for Computer Phys. Comm. 
- is available at https://www.abinit.org/sites/default/files/ABINIT16.pdf .
- The licence allows the authors to put it on the Web.
- DOI and bibtex: see https://docs.abinit.org/theory/bibliography/#gonze2016
-
- Proc.   0 individual time (sec): cpu=       3479.1  wall=       3505.4

================================================================================

 Calculation completed.
.Delivered   0 WARNINGs and   4 COMMENTs to log file.
+Overall time at end (sec) : cpu=      13889.3  wall=      14021.5
