
.Version 9.2.2 of ABINIT 
.(MPI version, prepared for a x86_64_linux_gnu9.3 computer) 

.Copyright (C) 1998-2020 ABINIT group . 
 ABINIT comes with ABSOLUTELY NO WARRANTY.
 It is free software, and you are welcome to redistribute it
 under certain conditions (GNU General Public License,
 see ~abinit/COPYING or http://www.gnu.org/copyleft/gpl.txt).

 ABINIT is a project of the Universite Catholique de Louvain,
 Corning Inc. and other collaborators, see ~abinit/doc/developers/contributors.txt .
 Please read https://docs.abinit.org/theory/acknowledgments for suggested
 acknowledgments of the ABINIT effort.
 For more information, see https://www.abinit.org .

.Starting date : Wed 23 Nov 2022.
- ( at 07h53 )
  
- input  file    -> Cs2TiI6.in
- output file    -> Cs2TiI6.out
- root for input  files -> Cs2TiI6i
- root for output files -> Cs2TiI6o

- inpspheads : Reading pseudopotential header in XML form from 
-   ../../../Psps_for_tests/ATOMICDATA/Cs.GGA_PBE-JTH.xml
- inpspheads : Reading pseudopotential header in XML form from 
-   ../../../Psps_for_tests/ATOMICDATA/I.GGA_PBE-JTH.xml
- inpspheads : Reading pseudopotential header in XML form from 
-   ../../../Psps_for_tests/ATOMICDATA/Zr.GGA_PBE-JTH.xml
- inpspheads : Reading pseudopotential header in XML form from 
-   ../../../Psps_for_tests/ATOMICDATA/Br.GGA_PBE-JTH.xml

 DATASET    1 : space group I4 m m (#107); Bravais tI (body-center tetrag.)
================================================================================
 Values of the parameters that define the memory need for DATASET  1.
     intxc =       0    ionmov =       0      iscf =      17    lmnmax =      18
     lnmax =       6     mgfft =      72  mpssoang =       3    mqgrid =    4216
     natom =       9  nloc_mem =       2    nspden =       1   nspinor =       1
    nsppol =       1      nsym =       8    n1xccc =       1    ntypat =       4
    occopt =       1   xclevel =       2
-    mband =          42        mffmem =           1         mkmem =          28
       mpw =       12943          nfft =      373248          nkpt =         163
Pmy_natom=         2
 PAW method is used; the additional fine FFT grid is defined by:
   mgfftf=       108    nfftf =   1259712
================================================================================
P This job should need less than                     621.384 Mbytes of memory.
  Rough estimation (10% accuracy) of disk space for files :
_ WF disk file :   1352.049 Mbytes ; DEN or POT disk file :      9.613 Mbytes.
================================================================================


 DATASET    2 : space group I4 m m (#107); Bravais tI (body-center tetrag.)
================================================================================
 Values of the parameters that define the memory need for DATASET  2.
     intxc =       0    ionmov =       0      iscf =      17    lmnmax =      18
     lnmax =       6     mgfft =      72  mpssoang =       3    mqgrid =    4173
     natom =       9  nloc_mem =       2    nspden =       1   nspinor =       1
    nsppol =       1      nsym =       8    n1xccc =       1    ntypat =       4
    occopt =       1   xclevel =       2
-    mband =          42        mffmem =           1         mkmem =          28
       mpw =       12550          nfft =      373248          nkpt =         163
Pmy_natom=         2
 PAW method is used; the additional fine FFT grid is defined by:
   mgfftf=       108    nfftf =   1259712
================================================================================
P This job should need less than                     613.626 Mbytes of memory.
  Rough estimation (10% accuracy) of disk space for files :
_ WF disk file :   1310.996 Mbytes ; DEN or POT disk file :      9.613 Mbytes.
================================================================================


 DATASET    3 : space group I4 m m (#107); Bravais tI (body-center tetrag.)
================================================================================
 Values of the parameters that define the memory need for DATASET  3.
     intxc =       0    ionmov =       0      iscf =      17    lmnmax =      18
     lnmax =       6     mgfft =      72  mpssoang =       3    mqgrid =    4131
     natom =       9  nloc_mem =       2    nspden =       1   nspinor =       1
    nsppol =       1      nsym =       8    n1xccc =       1    ntypat =       4
    occopt =       1   xclevel =       2
-    mband =          42        mffmem =           1         mkmem =          28
       mpw =       12158          nfft =      373248          nkpt =         163
Pmy_natom=         2
 PAW method is used; the additional fine FFT grid is defined by:
   mgfftf=       108    nfftf =   1259712
================================================================================
P This job should need less than                     605.896 Mbytes of memory.
  Rough estimation (10% accuracy) of disk space for files :
_ WF disk file :   1270.047 Mbytes ; DEN or POT disk file :      9.613 Mbytes.
================================================================================


 DATASET    4 : space group I4 m m (#107); Bravais tI (body-center tetrag.)
================================================================================
 Values of the parameters that define the memory need for DATASET  4.
     intxc =       0    ionmov =       0      iscf =      17    lmnmax =      18
     lnmax =       6     mgfft =      64  mpssoang =       3    mqgrid =    4088
     natom =       9  nloc_mem =       2    nspden =       1   nspinor =       1
    nsppol =       1      nsym =       8    n1xccc =       1    ntypat =       4
    occopt =       1   xclevel =       2
-    mband =          42        mffmem =           1         mkmem =          28
       mpw =       11783          nfft =      262144          nkpt =         163
Pmy_natom=         2
 PAW method is used; the additional fine FFT grid is defined by:
   mgfftf=       108    nfftf =   1259712
================================================================================
P This job should need less than                     581.982 Mbytes of memory.
  Rough estimation (10% accuracy) of disk space for files :
_ WF disk file :   1230.874 Mbytes ; DEN or POT disk file :      9.613 Mbytes.
================================================================================


 DATASET    5 : space group I4 m m (#107); Bravais tI (body-center tetrag.)
================================================================================
 Values of the parameters that define the memory need for DATASET  5.
     intxc =       0    ionmov =       0      iscf =      17    lmnmax =      18
     lnmax =       6     mgfft =      64  mpssoang =       3    mqgrid =    4046
     natom =       9  nloc_mem =       2    nspden =       1   nspinor =       1
    nsppol =       1      nsym =       8    n1xccc =       1    ntypat =       4
    occopt =       1   xclevel =       2
-    mband =          42        mffmem =           1         mkmem =          28
       mpw =       11419          nfft =      262144          nkpt =         163
Pmy_natom=         2
 PAW method is used; the additional fine FFT grid is defined by:
   mgfftf=       100    nfftf =   1000000
================================================================================
P This job should need less than                     512.953 Mbytes of memory.
  Rough estimation (10% accuracy) of disk space for files :
_ WF disk file :   1192.850 Mbytes ; DEN or POT disk file :      7.631 Mbytes.
================================================================================


 DATASET    6 : space group I4 m m (#107); Bravais tI (body-center tetrag.)
================================================================================
 Values of the parameters that define the memory need for DATASET  6.
     intxc =       0    ionmov =       0      iscf =      17    lmnmax =      18
     lnmax =       6     mgfft =      64  mpssoang =       3    mqgrid =    4003
     natom =       9  nloc_mem =       2    nspden =       1   nspinor =       1
    nsppol =       1      nsym =       8    n1xccc =       1    ntypat =       4
    occopt =       1   xclevel =       2
-    mband =          42        mffmem =           1         mkmem =          28
       mpw =       11076          nfft =      262144          nkpt =         163
Pmy_natom=         2
 PAW method is used; the additional fine FFT grid is defined by:
   mgfftf=       100    nfftf =   1000000
================================================================================
P This job should need less than                     506.193 Mbytes of memory.
  Rough estimation (10% accuracy) of disk space for files :
_ WF disk file :   1157.019 Mbytes ; DEN or POT disk file :      7.631 Mbytes.
================================================================================


 DATASET    7 : space group I4 m m (#107); Bravais tI (body-center tetrag.)
================================================================================
 Values of the parameters that define the memory need for DATASET  7.
     intxc =       0    ionmov =       0      iscf =      17    lmnmax =      18
     lnmax =       6     mgfft =      64  mpssoang =       3    mqgrid =    3960
     natom =       9  nloc_mem =       2    nspden =       1   nspinor =       1
    nsppol =       1      nsym =       8    n1xccc =       1    ntypat =       4
    occopt =       1   xclevel =       2
-    mband =          42        mffmem =           1         mkmem =          28
       mpw =       10728          nfft =      262144          nkpt =         163
Pmy_natom=         2
 PAW method is used; the additional fine FFT grid is defined by:
   mgfftf=       100    nfftf =   1000000
================================================================================
P This job should need less than                     499.340 Mbytes of memory.
  Rough estimation (10% accuracy) of disk space for files :
_ WF disk file :   1120.667 Mbytes ; DEN or POT disk file :      7.631 Mbytes.
================================================================================


 DATASET    8 : space group I4 m m (#107); Bravais tI (body-center tetrag.)
================================================================================
 Values of the parameters that define the memory need for DATASET  8.
     intxc =       0    ionmov =       0      iscf =      17    lmnmax =      18
     lnmax =       6     mgfft =      64  mpssoang =       3    mqgrid =    3918
     natom =       9  nloc_mem =       2    nspden =       1   nspinor =       1
    nsppol =       1      nsym =       8    n1xccc =       1    ntypat =       4
    occopt =       1   xclevel =       2
-    mband =          42        mffmem =           1         mkmem =          28
       mpw =       10373          nfft =      262144          nkpt =         163
Pmy_natom=         2
 PAW method is used; the additional fine FFT grid is defined by:
   mgfftf=       100    nfftf =   1000000
================================================================================
P This job should need less than                     492.353 Mbytes of memory.
  Rough estimation (10% accuracy) of disk space for files :
_ WF disk file :   1083.583 Mbytes ; DEN or POT disk file :      7.631 Mbytes.
================================================================================


 DATASET    9 : space group I4 m m (#107); Bravais tI (body-center tetrag.)
================================================================================
 Values of the parameters that define the memory need for DATASET  9.
     intxc =       0    ionmov =       0      iscf =      17    lmnmax =      18
     lnmax =       6     mgfft =      64  mpssoang =       3    mqgrid =    3875
     natom =       9  nloc_mem =       2    nspden =       1   nspinor =       1
    nsppol =       1      nsym =       8    n1xccc =       1    ntypat =       4
    occopt =       1   xclevel =       2
-    mband =          42        mffmem =           1         mkmem =          28
       mpw =       10048          nfft =      262144          nkpt =         163
Pmy_natom=         2
 PAW method is used; the additional fine FFT grid is defined by:
   mgfftf=        96    nfftf =    884736
================================================================================
P This job should need less than                     458.430 Mbytes of memory.
  Rough estimation (10% accuracy) of disk space for files :
_ WF disk file :   1049.633 Mbytes ; DEN or POT disk file :      6.752 Mbytes.
================================================================================


 DATASET   10 : space group I4 m m (#107); Bravais tI (body-center tetrag.)
================================================================================
 Values of the parameters that define the memory need for DATASET 10.
     intxc =       0    ionmov =       0      iscf =      17    lmnmax =      18
     lnmax =       6     mgfft =      60  mpssoang =       3    mqgrid =    3832
     natom =       9  nloc_mem =       2    nspden =       1   nspinor =       1
    nsppol =       1      nsym =       8    n1xccc =       1    ntypat =       4
    occopt =       1   xclevel =       2
-    mband =          42        mffmem =           1         mkmem =          28
       mpw =        9717          nfft =      216000          nkpt =         163
Pmy_natom=         2
 PAW method is used; the additional fine FFT grid is defined by:
   mgfftf=        96    nfftf =    884736
================================================================================
P This job should need less than                     445.053 Mbytes of memory.
  Rough estimation (10% accuracy) of disk space for files :
_ WF disk file :   1015.056 Mbytes ; DEN or POT disk file :      6.752 Mbytes.
================================================================================

--------------------------------------------------------------------------------
------------- Echo of variables that govern the present computation ------------
--------------------------------------------------------------------------------
-
- outvars: echo of selected default values                                      
-   iomode0 =  0 , fftalg0 =112 , wfoptalg0 = 10
-
- outvars: echo of global parameters not present in the input file              
-  max_nthreads =    0
-
 -outvars: echo values of preprocessed input variables --------
            acell1     1.5727551974E+01  1.5727551974E+01  1.5856130854E+01 Bohr
            acell2     1.5568359144E+01  1.5568359144E+01  1.5696665128E+01 Bohr
            acell3     1.5408059455E+01  1.5408059455E+01  1.5539551435E+01 Bohr
            acell4     1.5248326085E+01  1.5248326085E+01  1.5381238117E+01 Bohr
            acell5     1.5087661922E+01  1.5087661922E+01  1.5224913466E+01 Bohr
            acell6     1.4925447589E+01  1.4925447589E+01  1.5071923671E+01 Bohr
            acell7     1.4763919128E+01  1.4763919128E+01  1.4917494039E+01 Bohr
            acell8     1.4602560348E+01  1.4602560348E+01  1.4762723557E+01 Bohr
            acell9     1.4440444390E+01  1.4440444390E+01  1.4609625194E+01 Bohr
            acell10    1.4279405046E+01  1.4279405046E+01  1.4454213719E+01 Bohr
              amu      1.32905430E+02  1.26904470E+02  9.12240000E+01
                       7.99040000E+01
           diemac      1.20000000E+01
          dilatmx      1.15000000E+00
             ecut      1.60000000E+01 Hartree
           ecutsm      5.00000000E-01 Hartree
-          fftalg         112
           istwfk        2    0    0    0    0    0    3    0    0    0
                         0    0    0    0    0    0    0    0    0    0
                         0    0    0    0    0    0    0    0    0    0
                         0    0    0    0    0    0    0    0    0    0
                         0    0    7    0    0    0    0    0    0    0
                       outvar_i_n : Printing only first  50 k-points.
              ixc     -101130
           jdtset        1    2    3    4    5    6    7    8    9   10
              kpt      0.00000000E+00  0.00000000E+00  0.00000000E+00
                       8.33333333E-02  0.00000000E+00  0.00000000E+00
                       1.66666667E-01  0.00000000E+00  0.00000000E+00
                       2.50000000E-01  0.00000000E+00  0.00000000E+00
                       3.33333333E-01  0.00000000E+00  0.00000000E+00
                       4.16666667E-01  0.00000000E+00  0.00000000E+00
                       5.00000000E-01  0.00000000E+00  0.00000000E+00
                       8.33333333E-02  8.33333333E-02  0.00000000E+00
                       1.66666667E-01  8.33333333E-02  0.00000000E+00
                       2.50000000E-01  8.33333333E-02  0.00000000E+00
                       3.33333333E-01  8.33333333E-02  0.00000000E+00
                       4.16666667E-01  8.33333333E-02  0.00000000E+00
                       5.00000000E-01  8.33333333E-02  0.00000000E+00
                      -4.16666667E-01  8.33333333E-02  0.00000000E+00
                      -3.33333333E-01  8.33333333E-02  0.00000000E+00
                      -2.50000000E-01  8.33333333E-02  0.00000000E+00
                      -1.66666667E-01  8.33333333E-02  0.00000000E+00
                      -8.33333333E-02  8.33333333E-02  0.00000000E+00
                       1.66666667E-01  1.66666667E-01  0.00000000E+00
                       2.50000000E-01  1.66666667E-01  0.00000000E+00
                       3.33333333E-01  1.66666667E-01  0.00000000E+00
                       4.16666667E-01  1.66666667E-01  0.00000000E+00
                       5.00000000E-01  1.66666667E-01  0.00000000E+00
                      -4.16666667E-01  1.66666667E-01  0.00000000E+00
                      -3.33333333E-01  1.66666667E-01  0.00000000E+00
                      -2.50000000E-01  1.66666667E-01  0.00000000E+00
                      -1.66666667E-01  1.66666667E-01  0.00000000E+00
                       2.50000000E-01  2.50000000E-01  0.00000000E+00
                       3.33333333E-01  2.50000000E-01  0.00000000E+00
                       4.16666667E-01  2.50000000E-01  0.00000000E+00
                       5.00000000E-01  2.50000000E-01  0.00000000E+00
                      -4.16666667E-01  2.50000000E-01  0.00000000E+00
                      -3.33333333E-01  2.50000000E-01  0.00000000E+00
                      -2.50000000E-01  2.50000000E-01  0.00000000E+00
                       3.33333333E-01  3.33333333E-01  0.00000000E+00
                       4.16666667E-01  3.33333333E-01  0.00000000E+00
                       5.00000000E-01  3.33333333E-01  0.00000000E+00
                      -4.16666667E-01  3.33333333E-01  0.00000000E+00
                      -3.33333333E-01  3.33333333E-01  0.00000000E+00
                       4.16666667E-01  4.16666667E-01  0.00000000E+00
                       5.00000000E-01  4.16666667E-01  0.00000000E+00
                      -4.16666667E-01  4.16666667E-01  0.00000000E+00
                       5.00000000E-01  5.00000000E-01  0.00000000E+00
                       8.33333333E-02  0.00000000E+00  8.33333333E-02
                       1.66666667E-01  0.00000000E+00  8.33333333E-02
                       2.50000000E-01  0.00000000E+00  8.33333333E-02
                       3.33333333E-01  0.00000000E+00  8.33333333E-02
                       4.16666667E-01  0.00000000E+00  8.33333333E-02
                       5.00000000E-01  0.00000000E+00  8.33333333E-02
                      -4.16666667E-01  0.00000000E+00  8.33333333E-02
                       outvar_i_n : Printing only first  50 k-points.
         kptrlatt       12    0    0      0   12    0      0    0   12
          kptrlen1     1.88730624E+02
          kptrlen2     1.86820310E+02
          kptrlen3     1.84896713E+02
          kptrlen4     1.82979913E+02
          kptrlen5     1.81051943E+02
          kptrlen6     1.79105371E+02
          kptrlen7     1.77167030E+02
          kptrlen8     1.75230724E+02
          kptrlen9     1.73285333E+02
          kptrlen10    1.71352861E+02
P           mkmem          28
            natom           9
            nband          42
           ndtset          10
            ngfft1         72      72      72
            ngfft2         72      72      72
            ngfft3         72      72      72
            ngfft4         64      64      64
            ngfft5         64      64      64
            ngfft6         64      64      64
            ngfft7         64      64      64
            ngfft8         64      64      64
            ngfft9         64      64      64
            ngfft10        60      60      60
          ngfftdg1        108     108     108
          ngfftdg2        108     108     108
          ngfftdg3        108     108     108
          ngfftdg4        108     108     108
          ngfftdg5        100     100     100
          ngfftdg6        100     100     100
          ngfftdg7        100     100     100
          ngfftdg8        100     100     100
          ngfftdg9         96      96      96
          ngfftdg10        96      96      96
             nkpt         163
            nstep        2500
             nsym           8
           ntypat           4
              occ      2.000000  2.000000  2.000000  2.000000  2.000000  2.000000
                       2.000000  2.000000  2.000000  2.000000  2.000000  2.000000
                       2.000000  2.000000  2.000000  2.000000  2.000000  2.000000
                       2.000000  2.000000  2.000000  2.000000  2.000000  2.000000
                       2.000000  2.000000  2.000000  2.000000  2.000000  2.000000
                       2.000000  2.000000  2.000000  2.000000  2.000000  2.000000
                       0.000000  0.000000  0.000000  0.000000  0.000000  0.000000
        pawecutdg      4.00000000E+01 Hartree
            prtwf           0
            rprim1     0.0000000000E+00  7.1288765530E-01  7.0127825499E-01
                       7.1288765530E-01  0.0000000000E+00  7.0127825499E-01
                       7.0710678119E-01  7.0710678119E-01  0.0000000000E+00
            rprim2     0.0000000000E+00  7.1293437232E-01  7.0123076142E-01
                       7.1293437232E-01  0.0000000000E+00  7.0123076142E-01
                       7.0710678119E-01  7.0710678119E-01  0.0000000000E+00
            rprim3     0.0000000000E+00  7.1314121213E-01  7.0102040738E-01
                       7.1314121213E-01  0.0000000000E+00  7.0102040738E-01
                       7.0710678119E-01  7.0710678119E-01  0.0000000000E+00
            rprim4     0.0000000000E+00  7.1327027734E-01  7.0088908642E-01
                       7.1327027734E-01  0.0000000000E+00  7.0088908642E-01
                       7.0710678119E-01  7.0710678119E-01  0.0000000000E+00
            rprim5     0.0000000000E+00  7.1353928864E-01  7.0061521791E-01
                       7.1353928864E-01  0.0000000000E+00  7.0061521791E-01
                       7.0710678119E-01  7.0710678119E-01  0.0000000000E+00
            rprim6     0.0000000000E+00  7.1404622005E-01  7.0009856137E-01
                       7.1404622005E-01  0.0000000000E+00  7.0009856137E-01
                       7.0710678119E-01  7.0710678119E-01  0.0000000000E+00
            rprim7     0.0000000000E+00  7.1446213581E-01  6.9967410735E-01
                       7.1446213581E-01  0.0000000000E+00  6.9967410735E-01
                       7.0710678119E-01  7.0710678119E-01  0.0000000000E+00
            rprim8     0.0000000000E+00  7.1486244107E-01  6.9926510734E-01
                       7.1486244107E-01  0.0000000000E+00  6.9926510734E-01
                       7.0710678119E-01  7.0710678119E-01  0.0000000000E+00
            rprim9     0.0000000000E+00  7.1539107568E-01  6.9872427239E-01
                       7.1539107568E-01  0.0000000000E+00  6.9872427239E-01
                       7.0710678119E-01  7.0710678119E-01  0.0000000000E+00
            rprim10    0.0000000000E+00  7.1576319213E-01  6.9834307671E-01
                       7.1576319213E-01  0.0000000000E+00  6.9834307671E-01
                       7.0710678119E-01  7.0710678119E-01  0.0000000000E+00
          spgroup         107
           symrel      1  0  0   0  1  0   0  0  1       1  0 -1   0  1 -1   0  0 -1
                       0  1 -1   1  0 -1   0  0 -1       0  1  0   1  0  0   0  0  1
                       1  0  0   1  0 -1   1 -1  0       0  1  0   0  1 -1  -1  1  0
                       0  1 -1   0  1  0  -1  1  0       1  0 -1   1  0  0   1 -1  0
           toldfe      1.00000000E-08 Hartree
            typat      1  1  2  4  2  2  2  2  3
           useylm           1
              wtk        0.00058    0.00463    0.00463    0.00463    0.00463    0.00463
                         0.00231    0.00116    0.00463    0.00463    0.00463    0.00463
                         0.00463    0.00463    0.00463    0.00463    0.00463    0.00231
                         0.00116    0.00463    0.00463    0.00463    0.00463    0.00463
                         0.00463    0.00463    0.00231    0.00116    0.00463    0.00463
                         0.00463    0.00463    0.00463    0.00231    0.00116    0.00463
                         0.00463    0.00463    0.00231    0.00116    0.00463    0.00231
                         0.00058    0.00231    0.00926    0.00926    0.00926    0.00926
                         0.00926    0.00926
                       outvars : Printing only first  50 k-points.
           xangst1     2.9665615179E+00  2.9665615179E+00  2.9014560952E+00
                       8.8996845537E+00  8.8996845537E+00  8.7379580156E+00
                       5.9331230358E+00  5.9331230358E+00  2.8265857759E+00
                       5.9331230358E+00  5.9331230358E+00  8.9992592361E+00
                       8.9805992212E+00  5.9331230358E+00  5.8214886165E+00
                       5.9331230358E+00  8.9805992212E+00  5.8214886165E+00
                       5.9331230358E+00  2.8856468504E+00  5.8214886165E+00
                       2.8856468504E+00  5.9331230358E+00  5.8214886165E+00
                      -1.4588476521E-13 -1.4588476521E-13 -5.9198225556E-02
           xangst2     2.9367266931E+00  2.9367266931E+00  2.8718800469E+00
                       8.8101800793E+00  8.8101800793E+00  8.6489141613E+00
                       5.8734533862E+00  5.8734533862E+00  2.8197920057E+00
                       5.8734533863E+00  5.8734533863E+00  8.8792361273E+00
                       8.8662274228E+00  5.8734533862E+00  5.7643668798E+00
                       5.8734533862E+00  8.8662274228E+00  5.7643668798E+00
                       5.8734533863E+00  2.8806793497E+00  5.7643668798E+00
                       2.8806793497E+00  5.8734533863E+00  5.7643668798E+00
                      -8.4556664205E-13 -8.4556664205E-13 -6.1016944968E-02
           xangst3     2.9073319157E+00  2.9073319157E+00  2.8428519619E+00
                       8.7219957472E+00  8.7219957472E+00  8.5586876738E+00
                       5.8146638315E+00  5.8146638315E+00  2.8111030719E+00
                       5.8146638315E+00  5.8146638315E+00  8.7557882096E+00
                       8.7547261581E+00  5.8146638315E+00  5.7054206331E+00
                       5.8146638315E+00  8.7547261581E+00  5.7054206331E+00
                       5.8146638315E+00  2.8746015049E+00  5.7054206331E+00
                       2.8746015049E+00  5.8146638315E+00  5.7054206331E+00
                       8.6573286915E-14  8.6573286915E-14 -6.3427754564E-02
           xangst4     2.8777126977E+00  2.8777126977E+00  2.8140915938E+00
                       8.6331380931E+00  8.6331380931E+00  8.4696123347E+00
                       5.7554253954E+00  5.7554253954E+00  2.8014715179E+00
                       5.7554253954E+00  5.7554253954E+00  8.6343850300E+00
                       8.6432443026E+00  5.7554253954E+00  5.6476619836E+00
                       5.7554253954E+00  8.6432443026E+00  5.6476619836E+00
                       5.7554253954E+00  2.8676064883E+00  5.6476619836E+00
                       2.8676064883E+00  5.7554253954E+00  5.6476619836E+00
                       3.1210588501E-14  3.1210588501E-14 -6.6042483844E-02
           xangst5     2.8484655442E+00  2.8484655442E+00  2.7850182395E+00
                       8.5453966326E+00  8.5453966326E+00  8.3787629421E+00
                       5.6969310883E+00  5.6969310883E+00  2.7900810418E+00
                       5.6969310884E+00  5.6969310884E+00  8.5102143474E+00
                       8.5343709264E+00  5.6969310883E+00  5.5888058267E+00
                       5.6969310883E+00  8.5343709264E+00  5.5888058267E+00
                       5.6969310884E+00  2.8594912503E+00  5.5888058267E+00
                       2.8594912503E+00  5.6969310884E+00  5.5888058267E+00
                      -7.3847619417E-13 -7.3847619417E-13 -6.9342256861E-02
           xangst6     2.8198423168E+00  2.8198423168E+00  2.7545628840E+00
                       8.4595269505E+00  8.4595269505E+00  8.2840860265E+00
                       5.6396846336E+00  5.6396846336E+00  2.7773232943E+00
                       5.6396846337E+00  5.6396846337E+00  8.3818285763E+00
                       8.4292744662E+00  5.6396846336E+00  5.5278465309E+00
                       5.6396846336E+00  8.4292744662E+00  5.5278465309E+00
                       5.6396846337E+00  2.8500948011E+00  5.5278465309E+00
                       2.8500948011E+00  5.6396846337E+00  5.5278465309E+00
                      -4.8084454211E-13 -4.8084454211E-13 -7.3001764040E-02
           xangst7     2.7909497069E+00  2.7909497069E+00  2.7257546440E+00
                       8.3728491206E+00  8.3728491206E+00  8.1921191912E+00
                       5.5818994137E+00  5.5818994137E+00  2.7626970976E+00
                       5.5818994137E+00  5.5818994137E+00  8.2558551981E+00
                       8.3244995326E+00  5.5818994137E+00  5.4680202166E+00
                       5.5818994137E+00  8.3244995326E+00  5.4680202166E+00
                       5.5818994137E+00  2.8392992949E+00  5.4680202166E+00
                       2.8392992949E+00  5.5818994137E+00  5.4680202166E+00
                       8.3115736746E-13  8.3115736746E-13 -7.7590618775E-02
           xangst8     2.7619933266E+00  2.7619933266E+00  2.6964893385E+00
                       8.2859799797E+00  8.2859799797E+00  8.0999500577E+00
                       5.5239866531E+00  5.5239866531E+00  2.7469246217E+00
                       5.5239866532E+00  5.5239866532E+00  8.1318298988E+00
                       8.2207433198E+00  5.5239866531E+00  5.4086573341E+00
                       5.5239866531E+00  8.2207433198E+00  5.4086573341E+00
                       5.5239866532E+00  2.8272299864E+00  5.4086573341E+00
                       2.8272299864E+00  5.5239866532E+00  5.4086573341E+00
                      -1.0264472613E-12 -1.0264472613E-12 -8.2137499127E-02
           xangst9     2.7333497869E+00  2.7333497869E+00  2.6672247515E+00
                       8.2000493608E+00  8.2000493608E+00  8.0065640471E+00
                       5.4666995739E+00  5.4666995739E+00  2.7295954023E+00
                       5.4666995739E+00  5.4666995739E+00  8.0061318388E+00
                       8.1198668344E+00  5.4666995739E+00  5.3481634491E+00
                       5.4666995739E+00  8.1198668344E+00  5.3481634491E+00
                       5.4666995739E+00  2.8135323133E+00  5.3481634491E+00
                       2.8135323133E+00  5.4666995739E+00  5.3481634491E+00
                      -5.9655828228E-13 -5.9655828228E-13 -8.7455470585E-02
           xangst10    2.7042734816E+00  2.7042734816E+00  2.6390666653E+00
                       8.1128204449E+00  8.1128204449E+00  7.9159813885E+00
                       5.4085469633E+00  5.4085469633E+00  2.7109574727E+00
                       5.4085469633E+00  5.4085469633E+00  7.8849384949E+00
                       8.0186120383E+00  5.4085469633E+00  5.2894278801E+00
                       5.4085469633E+00  8.0186120383E+00  5.2894278801E+00
                       5.4085469633E+00  2.7984818882E+00  5.2894278801E+00
                       2.7984818882E+00  5.4085469633E+00  5.2894278801E+00
                       1.5088534472E-13  1.5088534472E-13 -9.3337756249E-02
            xcart1     5.6059888252E+00  5.6059888252E+00  5.4829574066E+00
                       1.6817966475E+01  1.6817966475E+01  1.6512347610E+01
                       1.1211977650E+01  1.1211977650E+01  5.3414730076E+00
                       1.1211977650E+01  1.1211977650E+01  1.7006135355E+01
                       1.6970873037E+01  1.1211977650E+01  1.1001019171E+01
                       1.1211977650E+01  1.6970873037E+01  1.1001019171E+01
                       1.1211977650E+01  5.4530822635E+00  1.1001019171E+01
                       5.4530822635E+00  1.1211977650E+01  1.1001019171E+01
                      -2.7568225321E-13 -2.7568225321E-13 -1.1186843385E-01
            xcart2     5.5496091771E+00  5.5496091771E+00  5.4270667752E+00
                       1.6648827531E+01  1.6648827531E+01  1.6344079112E+01
                       1.1099218354E+01  1.1099218354E+01  5.3286346424E+00
                       1.1099218354E+01  1.1099218354E+01  1.6779324550E+01
                       1.6754741661E+01  1.1099218354E+01  1.0893074732E+01
                       1.1099218354E+01  1.6754741661E+01  1.0893074732E+01
                       1.1099218354E+01  5.4436950476E+00  1.0893074732E+01
                       5.4436950476E+00  1.1099218354E+01  1.0893074732E+01
                      -1.5978893806E-12 -1.5978893806E-12 -1.1530531545E-01
            xcart3     5.4940610982E+00  5.4940610982E+00  5.3722116443E+00
                       1.6482183294E+01  1.6482183294E+01  1.6173575760E+01
                       1.0988122196E+01  1.0988122196E+01  5.3122149372E+00
                       1.0988122196E+01  1.0988122196E+01  1.6546041794E+01
                       1.6544034807E+01  1.0988122196E+01  1.0781682470E+01
                       1.0988122196E+01  1.6544034807E+01  1.0781682470E+01
                       1.0988122196E+01  5.4322095854E+00  1.0781682470E+01
                       5.4322095854E+00  1.0988122196E+01  1.0781682470E+01
                       1.6359980269E-13  1.6359980269E-13 -1.1986108535E-01
            xcart4     5.4380888878E+00  5.4380888878E+00  5.3178624252E+00
                       1.6314266663E+01  1.6314266663E+01  1.6005247764E+01
                       1.0876177776E+01  1.0876177776E+01  5.2940139380E+00
                       1.0876177776E+01  1.0876177776E+01  1.6316623033E+01
                       1.6333364631E+01  1.0876177776E+01  1.0672534440E+01
                       1.0876177776E+01  1.6333364631E+01  1.0672534440E+01
                       1.0876177776E+01  5.4189909198E+00  1.0672534440E+01
                       5.4189909198E+00  1.0876177776E+01  1.0672534440E+01
                       5.8979464713E-14  5.8979464713E-14 -1.2480220760E-01
            xcart5     5.3828197775E+00  5.3828197775E+00  5.2629217477E+00
                       1.6148459332E+01  1.6148459332E+01  1.5833567293E+01
                       1.0765639555E+01  1.0765639555E+01  5.2724890576E+00
                       1.0765639555E+01  1.0765639555E+01  1.6081974449E+01
                       1.6127623767E+01  1.0765639555E+01  1.0561312422E+01
                       1.0765639555E+01  1.6127623767E+01  1.0561312422E+01
                       1.0765639555E+01  5.4036553425E+00  1.0561312422E+01
                       5.4036553425E+00  1.0765639555E+01  1.0561312422E+01
                      -1.3955177626E-12 -1.3955177626E-12 -1.3103787490E-01
            xcart6     5.3287297167E+00  5.3287297167E+00  5.2053694665E+00
                       1.5986189150E+01  1.5986189150E+01  1.5654653851E+01
                       1.0657459433E+01  1.0657459433E+01  5.2483804088E+00
                       1.0657459433E+01  1.0657459433E+01  1.5839360502E+01
                       1.5929020240E+01  1.0657459433E+01  1.0446116048E+01
                       1.0657459433E+01  1.5929020240E+01  1.0446116048E+01
                       1.0657459433E+01  5.3858986269E+00  1.0446116048E+01
                       5.3858986269E+00  1.0657459433E+01  1.0446116048E+01
                      -9.0866449708E-13 -9.0866449708E-13 -1.3795334125E-01
            xcart7     5.2741305966E+00  5.2741305966E+00  5.1509297825E+00
                       1.5822391790E+01  1.5822391790E+01  1.5480861719E+01
                       1.0548261193E+01  1.0548261193E+01  5.2207409026E+00
                       1.0548261193E+01  1.0548261193E+01  1.5601305317E+01
                       1.5731024310E+01  1.0548261193E+01  1.0333060698E+01
                       1.0548261193E+01  1.5731024310E+01  1.0333060698E+01
                       1.0548261193E+01  5.3654980766E+00  1.0333060698E+01
                       5.3654980766E+00  1.0548261193E+01  1.0333060698E+01
                       1.5706597978E-12  1.5706597978E-12 -1.4662501997E-01
            xcart8     5.2194109681E+00  5.2194109681E+00  5.0956263700E+00
                       1.5658232904E+01  1.5658232904E+01  1.5306687299E+01
                       1.0438821936E+01  1.0438821936E+01  5.1909352427E+00
                       1.0438821936E+01  1.0438821936E+01  1.5366931468E+01
                       1.5534953483E+01  1.0438821936E+01  1.0220881108E+01
                       1.0438821936E+01  1.5534953483E+01  1.0220881108E+01
                       1.0438821936E+01  5.3426903890E+00  1.0220881108E+01
                       5.3426903890E+00  1.0438821936E+01  1.0220881108E+01
                      -1.9397042138E-12 -1.9397042138E-12 -1.5521737859E-01
            xcart9     5.1652825227E+00  5.1652825227E+00  5.0403243151E+00
                       1.5495847568E+01  1.5495847568E+01  1.5130213314E+01
                       1.0330565045E+01  1.0330565045E+01  5.1581877639E+00
                       1.0330565045E+01  1.0330565045E+01  1.5129396559E+01
                       1.5344324553E+01  1.0330565045E+01  1.0106564233E+01
                       1.0330565045E+01  1.5344324553E+01  1.0106564233E+01
                       1.0330565045E+01  5.3168055382E+00  1.0106564233E+01
                       5.3168055382E+00  1.0330565045E+01  1.0106564233E+01
                      -1.1273317758E-12 -1.1273317758E-12 -1.6526688823E-01
            xcart10    5.1103362687E+00  5.1103362687E+00  4.9871132438E+00
                       1.5331008806E+01  1.5331008806E+01  1.4959036897E+01
                       1.0220672537E+01  1.0220672537E+01  5.1229671813E+00
                       1.0220672537E+01  1.0220672537E+01  1.4900374330E+01
                       1.5152980718E+01  1.0220672537E+01  9.9955700930E+00
                       1.0220672537E+01  1.5152980718E+01  9.9955700930E+00
                       1.0220672537E+01  5.2883643566E+00  9.9955700930E+00
                       5.2883643566E+00  1.0220672537E+01  9.9955700930E+00
                       2.8513197899E-13  2.8513197899E-13 -1.7638279717E-01
             xred1     2.4856122167E-01  2.4856122167E-01  2.5143877833E-01
                       7.4856122167E-01  7.4856122167E-01  7.5143877833E-01
                       2.4214724971E-01  2.4214724971E-01  7.5785275029E-01
                       7.7094630987E-01  7.7094630987E-01  2.2905369013E-01
                       2.4189495056E-01  7.5553273744E-01  7.5810504944E-01
                       7.5553273744E-01  2.4189495056E-01  7.5810504944E-01
                       2.4189495056E-01  7.5553273744E-01  2.4446726256E-01
                       7.5553273744E-01  2.4189495056E-01  2.4446726256E-01
                      -5.0713789153E-03 -5.0713789153E-03  5.0713789153E-03
             xred2     2.4856007339E-01  2.4856007339E-01  2.5143992661E-01
                       7.4856007339E-01  7.4856007339E-01  7.5143992661E-01
                       2.4405187418E-01  2.4405187418E-01  7.5594812582E-01
                       7.6849434774E-01  7.6849434774E-01  2.3150565226E-01
                       2.4413241317E-01  7.5367489861E-01  7.5586758683E-01
                       7.5367489861E-01  2.4413241317E-01  7.5586758683E-01
                       2.4413241317E-01  7.5367489861E-01  2.4632510139E-01
                       7.5367489861E-01  2.4413241317E-01  2.4632510139E-01
                      -5.2809922669E-03 -5.2809922669E-03  5.2809922669E-03
             xred3     2.4868209175E-01  2.4868209175E-01  2.5131790825E-01
                       7.4868209175E-01  7.4868209175E-01  7.5131790825E-01
                       2.4590481721E-01  2.4590481721E-01  7.5409518279E-01
                       7.6592371185E-01  7.6592371185E-01  2.3407628815E-01
                       2.4627445627E-01  7.5190339920E-01  7.5372554373E-01
                       7.5190339920E-01  2.4627445627E-01  7.5372554373E-01
                       2.4627445627E-01  7.5190339920E-01  2.4809660080E-01
                       7.5190339920E-01  2.4627445627E-01  2.4809660080E-01
                      -5.5484235168E-03 -5.5484235168E-03  5.5484235168E-03
             xred4     2.4879155455E-01  2.4879155455E-01  2.5120844545E-01
                       7.4879155455E-01  7.4879155455E-01  7.5120844545E-01
                       2.4767582388E-01  2.4767582388E-01  7.5232417612E-01
                       7.6335897485E-01  7.6335897485E-01  2.3664102515E-01
                       2.4842724123E-01  7.5018318605E-01  7.5157275877E-01
                       7.5018318605E-01  2.4842724123E-01  7.5157275877E-01
                       2.4842724123E-01  7.5018318605E-01  2.4981681395E-01
                       7.5018318605E-01  2.4842724123E-01  2.4981681395E-01
                      -5.8387624120E-03 -5.8387624120E-03  5.8387624120E-03
             xred5     2.4894041358E-01  2.4894041358E-01  2.5105958642E-01
                       7.4894041358E-01  7.4894041358E-01  7.5105958642E-01
                       2.4939295500E-01  2.4939295500E-01  7.5060704500E-01
                       7.6069027099E-01  7.6069027099E-01  2.3930972901E-01
                       2.5052622403E-01  7.4859084760E-01  7.4947377597E-01
                       7.4859084760E-01  2.5052622403E-01  7.4947377597E-01
                       2.5052622403E-01  7.4859084760E-01  2.5140915240E-01
                       7.4859084760E-01  2.5052622403E-01  2.5140915240E-01
                      -6.1981964272E-03 -6.1981964272E-03  6.1981964272E-03
             xred6     2.4907779685E-01  2.4907779685E-01  2.5092220315E-01
                       7.4907779685E-01  7.4907779685E-01  7.5092220315E-01
                       2.5113587761E-01  2.5113587761E-01  7.4886412239E-01
                       7.5791604088E-01  7.5791604088E-01  2.4208395912E-01
                       2.5253050235E-01  7.4716628675E-01  7.4746949765E-01
                       7.4716628675E-01  2.5253050235E-01  7.4746949765E-01
                       2.5253050235E-01  7.4716628675E-01  2.5283371325E-01
                       7.4716628675E-01  2.5253050235E-01  2.5283371325E-01
                      -6.6010903796E-03 -6.6010903796E-03  6.6010903796E-03
             xred7     2.4932060608E-01  2.4932060608E-01  2.5067939392E-01
                       7.4932060608E-01  7.4932060608E-01  7.5067939392E-01
                       2.5269967578E-01  2.5269967578E-01  7.4730032422E-01
                       7.5515044109E-01  7.5515044109E-01  2.4484955891E-01
                       2.5448236766E-01  7.4582051541E-01  7.4551763234E-01
                       7.4582051541E-01  2.5448236766E-01  7.4551763234E-01
                       2.5448236766E-01  7.4582051541E-01  2.5417948459E-01
                       7.4582051541E-01  2.5448236766E-01  2.5417948459E-01
                      -7.0970951630E-03 -7.0970951630E-03  7.0970951630E-03
             xred8     2.4951503107E-01  2.4951503107E-01  2.5048496893E-01
                       7.4951503107E-01  7.4951503107E-01  7.5048496893E-01
                       2.5418197378E-01  2.5418197378E-01  7.4581802622E-01
                       7.5246497766E-01  7.5246497766E-01  2.4753502234E-01
                       2.5638571301E-01  7.4457600673E-01  7.4361428699E-01
                       7.4457600673E-01  2.5638571301E-01  7.4361428699E-01
                       2.5638571301E-01  7.4457600673E-01  2.5542399327E-01
                       7.4457600673E-01  2.5638571301E-01  2.5542399327E-01
                      -7.6004530610E-03 -7.6004530610E-03  7.6004530610E-03
             xred9     2.4977104879E-01  2.4977104879E-01  2.5022895121E-01
                       7.4977104879E-01  7.4977104879E-01  7.5022895121E-01
                       2.5561172002E-01  2.5561172002E-01  7.4438827998E-01
                       7.4973057484E-01  7.4973057484E-01  2.5026942516E-01
                       2.5816005734E-01  7.4349261032E-01  7.4183994266E-01
                       7.4349261032E-01  2.5816005734E-01  7.4183994266E-01
                       2.5816005734E-01  7.4349261032E-01  2.5650738968E-01
                       7.4349261032E-01  2.5816005734E-01  2.5650738968E-01
                      -8.1897277680E-03 -8.1897277680E-03  8.1897277680E-03
             xred10    2.5005773295E-01  2.5005773295E-01  2.4994226705E-01
                       7.5005773295E-01  7.5005773295E-01  7.4994226705E-01
                       2.5686955493E-01  2.5686955493E-01  7.4313044507E-01
                       7.4711634625E-01  7.4711634625E-01  2.5288365375E-01
                       2.5989486677E-01  7.4247643494E-01  7.4010513323E-01
                       7.4247643494E-01  2.5989486677E-01  7.4010513323E-01
                       2.5989486677E-01  7.4247643494E-01  2.5752356506E-01
                       7.4247643494E-01  2.5989486677E-01  2.5752356506E-01
                      -8.8439704965E-03 -8.8439704965E-03  8.8439704965E-03
            znucl       55.00000   53.00000   40.00000   35.00000

================================================================================

 chkinp: Checking input parameters for consistency, jdtset=   1.

 chkinp: Checking input parameters for consistency, jdtset=   2.

 chkinp: Checking input parameters for consistency, jdtset=   3.

 chkinp: Checking input parameters for consistency, jdtset=   4.

 chkinp: Checking input parameters for consistency, jdtset=   5.

 chkinp: Checking input parameters for consistency, jdtset=   6.

 chkinp: Checking input parameters for consistency, jdtset=   7.

 chkinp: Checking input parameters for consistency, jdtset=   8.

 chkinp: Checking input parameters for consistency, jdtset=   9.

 chkinp: Checking input parameters for consistency, jdtset=  10.

================================================================================
== DATASET  1 ==================================================================
-   mpi_nproc: 6, omp_nthreads: -1 (-1 if OMP is not activated)


--- !DatasetInfo
iteration_state: {dtset: 1, }
dimensions: {natom: 9, nkpt: 163, mband: 42, nsppol: 1, nspinor: 1, nspden: 1, mpw: 12943, }
cutoff_energies: {ecut:  16.0, pawecutdg:  40.0, }
electrons: {nelect:   7.20000000E+01, charge:   0.00000000E+00, occopt:   1.00000000E+00, tsmear:   1.00000000E-02, }
meta: {optdriver: 0, ionmov: 0, optcell: 0, iscf: 17, paral_kgb: 0, }
...

 Real(R)+Recip(G) space primitive vectors, cartesian coordinates (Bohr,Bohr^-1):
 R(1)=  0.0000000 11.2119777 11.0293902  G(1)= -0.0445952  0.0445952  0.0453334
 R(2)= 11.2119777  0.0000000 11.0293902  G(2)=  0.0445952 -0.0445952  0.0453334
 R(3)= 11.2119777 11.2119777  0.0000000  G(3)=  0.0445952  0.0445952 -0.0453334
 Unit cell volume ucvol=  2.7729749E+03 bohr^3
 Angles (23,13,12)=  5.97291897E+01  5.97291897E+01  6.05416205E+01 degrees

 Coarse grid specifications (used for wave-functions):

 getcut: wavevector=  0.0000  0.0000  0.0000  ngfft=  72  72  72
         ecut(hartree)=     21.160   => boxcut(ratio)=   2.19287

 Fine grid specifications (used for densities):

 getcut: wavevector=  0.0000  0.0000  0.0000  ngfft= 108 108 108
         ecut(hartree)=     52.900   => boxcut(ratio)=   2.08034

--- Pseudopotential description ------------------------------------------------
- pspini: atom type   1  psp file is ../../../Psps_for_tests/ATOMICDATA/Cs.GGA_PBE-JTH.xml
- pspatm: opening atomic psp file    ../../../Psps_for_tests/ATOMICDATA/Cs.GGA_PBE-JTH.xml
- pspatm : Reading pseudopotential header in XML form from ../../../Psps_for_tests/ATOMICDATA/Cs.GGA_PBE-JTH.xml
 Pseudopotential format is: paw10
 basis_size (lnmax)=  6 (lmn_size= 18), orbitals=   0   0   1   1   2   2
 Spheres core radius: rc_sph= 2.20660278
 1 radial meshes are used:
  - mesh 1: r(i)=AA*[exp(BB*(i-1))-1], size=1500 , AA= 0.15922E-03 BB= 0.87573E-02
 Shapefunction is SIN type: shapef(r)=[sin(pi*r/rshp)/(pi*r/rshp)]**2
 Radius for shape functions =  2.00394208
 mmax= 1500
 Radial grid used for partial waves is grid 1
 Radial grid used for projectors is grid 1
 Radial grid used for (t)core density is grid 1
 Radial grid used for Vloc is grid 1
 Radial grid used for pseudo valence density is grid 1
 Mesh size for Vloc has been set to 1341 to avoid numerical noise.
 Compensation charge density is not taken into account in XC energy/potential
 pspatm: atomic psp has been read  and splines computed

- pspini: atom type   2  psp file is ../../../Psps_for_tests/ATOMICDATA/I.GGA_PBE-JTH.xml
- pspatm: opening atomic psp file    ../../../Psps_for_tests/ATOMICDATA/I.GGA_PBE-JTH.xml
- pspatm : Reading pseudopotential header in XML form from ../../../Psps_for_tests/ATOMICDATA/I.GGA_PBE-JTH.xml
 Pseudopotential format is: paw10
 basis_size (lnmax)=  4 (lmn_size=  8), orbitals=   0   0   1   1
 Spheres core radius: rc_sph= 2.30022271
 1 radial meshes are used:
  - mesh 1: r(i)=AA*[exp(BB*(i-1))-1], size=2000 , AA= 0.12610E-03 BB= 0.66836E-02
 Shapefunction is SIN type: shapef(r)=[sin(pi*r/rshp)/(pi*r/rshp)]**2
 Radius for shape functions =  2.10879093
 mmax= 2000
 Radial grid used for partial waves is grid 1
 Radial grid used for projectors is grid 1
 Radial grid used for (t)core density is grid 1
 Radial grid used for Vloc is grid 1
 Radial grid used for pseudo valence density is grid 1
 Mesh size for Vloc has been set to 1792 to avoid numerical noise.
 Compensation charge density is not taken into account in XC energy/potential
 pspatm: atomic psp has been read  and splines computed

- pspini: atom type   3  psp file is ../../../Psps_for_tests/ATOMICDATA/Zr.GGA_PBE-JTH.xml
- pspatm: opening atomic psp file    ../../../Psps_for_tests/ATOMICDATA/Zr.GGA_PBE-JTH.xml
- pspatm : Reading pseudopotential header in XML form from ../../../Psps_for_tests/ATOMICDATA/Zr.GGA_PBE-JTH.xml
 Pseudopotential format is: paw10
 basis_size (lnmax)=  6 (lmn_size= 18), orbitals=   0   0   1   1   2   2
 Spheres core radius: rc_sph= 2.21000000
 1 radial meshes are used:
  - mesh 1: r(i)=AA*[exp(BB*(i-1))-1], size= 941 , AA= 0.35256E-03 BB= 0.14102E-01
 Shapefunction is BESSEL type: shapef(r,l)=aa(1,l)*jl(q(1,l)*r)+aa(2,l)*jl(q(2,l)*r)
 Radius for shape functions =  2.21000000
 mmax=  941
 Radial grid used for partial waves is grid 1
 Radial grid used for projectors is grid 1
 Radial grid used for (t)core density is grid 1
 Radial grid used for Vloc is grid 1
 Radial grid used for pseudo valence density is grid 1
 Mesh size for Vloc has been set to  777 to avoid numerical noise.
 Compensation charge density is not taken into account in XC energy/potential
 pspatm: atomic psp has been read  and splines computed

- pspini: atom type   4  psp file is ../../../Psps_for_tests/ATOMICDATA/Br.GGA_PBE-JTH.xml
- pspatm: opening atomic psp file    ../../../Psps_for_tests/ATOMICDATA/Br.GGA_PBE-JTH.xml
- pspatm : Reading pseudopotential header in XML form from ../../../Psps_for_tests/ATOMICDATA/Br.GGA_PBE-JTH.xml
 Pseudopotential format is: paw10
 basis_size (lnmax)=  4 (lmn_size=  8), orbitals=   0   0   1   1
 Spheres core radius: rc_sph= 2.20000000
 1 radial meshes are used:
  - mesh 1: r(i)=AA*[exp(BB*(i-1))-1], size= 927 , AA= 0.40483E-03 BB= 0.14169E-01
 Shapefunction is BESSEL type: shapef(r,l)=aa(1,l)*jl(q(1,l)*r)+aa(2,l)*jl(q(2,l)*r)
 Radius for shape functions =  2.02066386
 mmax=  927
 Radial grid used for partial waves is grid 1
 Radial grid used for projectors is grid 1
 Radial grid used for (t)core density is grid 1
 Radial grid used for Vloc is grid 1
 Radial grid used for pseudo valence density is grid 1
 Mesh size for Vloc has been set to  763 to avoid numerical noise.
 Compensation charge density is not taken into account in XC energy/potential
 pspatm: atomic psp has been read  and splines computed

   4.08286929E+04                                ecore*ucvol(ha*bohr**3)
--------------------------------------------------------------------------------

_setup2: Arith. and geom. avg. npw (full set) are   12891.935   12891.930

================================================================================

--- !BeginCycle
iteration_state: {dtset: 1, }
solver: {iscf: 17, nstep: 2500, nline: 4, wfoptalg: 10, }
tolerances: {toldfe: 1.00E-08, }
...

     iter   Etot(hartree)      deltaE(h)  residm     nres2
 ETOT  1  -160.58037587531    -1.606E+02 2.128E-01 2.507E+01
 ETOT  2  -160.78831070777    -2.079E-01 1.775E-02 7.228E+00
 ETOT  3  -160.78325752953     5.053E-03 6.460E-03 1.499E+00
 ETOT  4  -160.78418128913    -9.238E-04 3.664E-03 1.892E-01
 ETOT  5  -160.78345440150     7.269E-04 1.071E-03 1.390E-02
 ETOT  6  -160.78353232208    -7.792E-05 1.846E-03 2.550E-03
 ETOT  7  -160.78353028779     2.034E-06 4.160E-04 9.066E-04
 ETOT  8  -160.78353203405    -1.746E-06 7.521E-04 1.739E-04
 ETOT  9  -160.78353198799     4.606E-08 8.022E-04 8.617E-05
 ETOT 10  -160.78353193688     5.111E-08 4.624E-04 8.386E-06
 ETOT 11  -160.78353200488    -6.800E-08 2.481E-04 1.356E-05
 ETOT 12  -160.78353196605     3.883E-08 1.869E-04 1.653E-06
 ETOT 13  -160.78353197097    -4.914E-09 9.483E-05 8.325E-07
 ETOT 14  -160.78353196848     2.484E-09 8.839E-05 9.775E-08

 At SCF step   14, etot is converged : 
  for the second time, diff in etot=  2.484E-09 < toldfe=  1.000E-08

 Cartesian components of stress tensor (hartree/bohr^3)
  sigma(1 1)= -7.79439193E-06  sigma(3 2)= -1.30661289E-14
  sigma(2 2)= -7.79439193E-06  sigma(3 1)= -1.30653115E-14
  sigma(3 3)= -7.84592890E-06  sigma(2 1)=  2.57053096E-14


--- !ResultsGS
iteration_state: {dtset: 1, }
comment   : Summary of ground state results
lattice_vectors:
- [  0.0000000,  11.2119777,  11.0293902, ]
- [ 11.2119777,   0.0000000,  11.0293902, ]
- [ 11.2119777,  11.2119777,   0.0000000, ]
lattice_lengths: [  15.72755,   15.72755,   15.85613, ]
lattice_angles: [ 59.729,  59.729,  60.542, ] # degrees, (23, 13, 12)
lattice_volume:   2.7729749E+03
convergence: {deltae:  2.484E-09, res2:  9.775E-08, residm:  8.839E-05, diffor: null, }
etotal    :  -1.60783532E+02
entropy   :   0.00000000E+00
fermie    :  -1.01249889E-01
cartesian_stress_tensor: # hartree/bohr^3
- [ -7.79439193E-06,   2.57053096E-14,  -1.30653115E-14, ]
- [  2.57053096E-14,  -7.79439193E-06,  -1.30661289E-14, ]
- [ -1.30653115E-14,  -1.30661289E-14,  -7.84592890E-06, ]
pressure_GPa:   2.2982E-01
xred      :
- [  2.4856E-01,   2.4856E-01,   2.5144E-01, Cs]
- [  7.4856E-01,   7.4856E-01,   7.5144E-01, Cs]
- [  2.4215E-01,   2.4215E-01,   7.5785E-01,  I]
- [  7.7095E-01,   7.7095E-01,   2.2905E-01, Br]
- [  2.4189E-01,   7.5553E-01,   7.5811E-01,  I]
- [  7.5553E-01,   2.4189E-01,   7.5811E-01,  I]
- [  2.4189E-01,   7.5553E-01,   2.4447E-01,  I]
- [  7.5553E-01,   2.4189E-01,   2.4447E-01,  I]
- [ -5.0714E-03,  -5.0714E-03,   5.0714E-03, Zr]
cartesian_forces: # hartree/bohr
- [ -9.62173913E-23,   2.93626714E-22,  -2.31985773E-06, ]
- [ -9.62173913E-23,   2.93626714E-22,  -2.31985773E-06, ]
- [ -2.05052793E-22,   4.02462116E-22,   2.27133674E-06, ]
- [ -1.58477497E-22,   3.55886820E-22,   8.21639031E-06, ]
- [ -8.16828926E-06,  -1.98016568E-17,  -1.45658837E-06, ]
- [ -1.98018531E-17,  -8.16828926E-06,  -1.45658837E-06, ]
- [  1.98027012E-17,   8.16828926E-06,  -1.45658837E-06, ]
- [  8.16828926E-06,   1.98020505E-17,  -1.45658837E-06, ]
- [ -4.30461072E-24,   2.01713934E-22,  -2.16581320E-08, ]
force_length_stats: {min:   2.16581320E-08, max:   8.29714403E-06, mean:   5.37085297E-06, }
...

 Integrated electronic density in atomic spheres:
 ------------------------------------------------
 Atom  Sphere_radius  Integrated_density
    1        2.20660          5.36143976
    2        2.20660          5.36143976
    3        2.30022          4.01120750
    4        2.20000          4.92412164
    5        2.30022          4.00995413
    6        2.30022          4.00995413
    7        2.30022          4.00995413
    8        2.30022          4.00995413
    9        2.21000          8.81759729

 PAW TEST:
 ==== Compensation charge inside spheres ============
 The following values must be close to each other ...
 Compensation charge over spherical meshes =     -5.139239880952585
 Compensation charge over fine fft grid    =     -5.139239995130327

 ==== Results concerning PAW augmentation regions ====

 Total pseudopotential strength Dij (hartree):
 Atom #  1
   0.44433  -0.14711   0.00000  -0.00000   0.00000   0.00000   0.00000   0.00000  -0.00000   0.00000  -0.00000   0.00000 ...
  -0.14711   0.04436   0.00000   0.00000   0.00000   0.00000  -0.00000   0.00000   0.00000   0.00000   0.00000   0.00000 ...
   0.00000   0.00000  -0.09409   0.00000  -0.00000  -0.16624   0.00000   0.00000   0.00000  -0.00000   0.00000  -0.00000 ...
  -0.00000   0.00000   0.00000  -0.09409   0.00000   0.00000  -0.16624   0.00000  -0.00000   0.00000  -0.00000   0.00000 ...
   0.00000   0.00000  -0.00000   0.00000  -0.09409   0.00000   0.00000  -0.16624   0.00000  -0.00000   0.00000  -0.00000 ...
   0.00000   0.00000  -0.16624   0.00000   0.00000   0.40522   0.00000  -0.00001   0.00000   0.00000   0.00000   0.00000 ...
   0.00000  -0.00000   0.00000  -0.16624   0.00000   0.00000   0.40522   0.00000   0.00000   0.00000   0.00000   0.00000 ...
   0.00000   0.00000   0.00000   0.00000  -0.16624  -0.00001   0.00000   0.40522   0.00000   0.00000   0.00000   0.00000 ...
  -0.00000   0.00000   0.00000  -0.00000   0.00000   0.00000   0.00000   0.00000   0.00515   0.00000   0.00000   0.00000 ...
   0.00000   0.00000  -0.00000   0.00000  -0.00000   0.00000   0.00000   0.00000   0.00000   0.00515   0.00000  -0.00000 ...
  -0.00000   0.00000   0.00000  -0.00000   0.00000   0.00000   0.00000   0.00000   0.00000   0.00000   0.00515   0.00000 ...
   0.00000   0.00000  -0.00000   0.00000  -0.00000   0.00000   0.00000   0.00000   0.00000  -0.00000   0.00000   0.00515 ...
   ...  only 12  components have been written...
 Atom #  9
   3.08999  -0.90020   0.00000   0.00000   0.00000   0.00000   0.00000   0.00000   0.00000   0.00000   0.00004   0.00000 ...
  -0.90020   0.26907   0.00000  -0.00001   0.00000   0.00000   0.00000   0.00000   0.00000   0.00000  -0.00000   0.00000 ...
   0.00000   0.00000   0.26427   0.00000   0.00000  -0.05358   0.00000   0.00000   0.00000  -0.00006   0.00000   0.00000 ...
   0.00000  -0.00001   0.00000   0.26433   0.00000   0.00000  -0.05359   0.00000   0.00000   0.00000  -0.00007   0.00000 ...
   0.00000   0.00000   0.00000   0.00000   0.26427   0.00000   0.00000  -0.05358   0.00000   0.00000   0.00000  -0.00006 ...
   0.00000   0.00000  -0.05358   0.00000   0.00000   0.01475   0.00000   0.00000   0.00000   0.00001   0.00000   0.00000 ...
   0.00000   0.00000   0.00000  -0.05359   0.00000   0.00000   0.01475   0.00000   0.00000   0.00000   0.00001   0.00000 ...
   0.00000   0.00000   0.00000   0.00000  -0.05358   0.00000   0.00000   0.01475   0.00000   0.00000   0.00000   0.00001 ...
   0.00000   0.00000   0.00000   0.00000   0.00000   0.00000   0.00000   0.00000  -0.01946   0.00000   0.00000   0.00000 ...
   0.00000   0.00000  -0.00006   0.00000   0.00000   0.00001   0.00000   0.00000   0.00000  -0.01942   0.00000   0.00000 ...
   0.00004  -0.00000   0.00000  -0.00007   0.00000   0.00000   0.00001   0.00000   0.00000   0.00000  -0.01931   0.00000 ...
   0.00000   0.00000   0.00000   0.00000  -0.00006   0.00000   0.00000   0.00001   0.00000   0.00000   0.00000  -0.01942 ...
   ...  only 12  components have been written...


 Augmentation waves occupancies Rhoij:
 Atom #  1
   1.99665  -0.01717   0.00000  -0.00000   0.00000   0.00000  -0.00001   0.00000  -0.00196   0.00000  -0.00079   0.00000 ...
  -0.01717   0.12500   0.00000  -0.00061   0.00000   0.00000   0.00002   0.00000   0.00924   0.00000   0.00719   0.00000 ...
   0.00000   0.00000   2.00767   0.00000   0.00114  -0.00505   0.00000  -0.00018   0.00000  -0.00052   0.00000   0.00005 ...
  -0.00000  -0.00061   0.00000   2.00841   0.00000   0.00000  -0.00519   0.00000   0.00019   0.00000   0.00002   0.00000 ...
   0.00000   0.00000   0.00114   0.00000   2.00767  -0.00018   0.00000  -0.00505   0.00000   0.00005   0.00000  -0.00052 ...
   0.00000   0.00000  -0.00505   0.00000  -0.00018   0.00008   0.00000   0.00001   0.00000   0.00002   0.00000  -0.00000 ...
  -0.00001   0.00002   0.00000  -0.00519   0.00000   0.00000   0.00009   0.00000  -0.00001   0.00000  -0.00001   0.00000 ...
   0.00000   0.00000  -0.00018   0.00000  -0.00505   0.00001   0.00000   0.00008   0.00000  -0.00000   0.00000   0.00002 ...
  -0.00196   0.00924   0.00000   0.00019   0.00000   0.00000  -0.00001   0.00000   0.02940   0.00000  -0.00677   0.00000 ...
   0.00000   0.00000  -0.00052   0.00000   0.00005   0.00002   0.00000  -0.00000   0.00000   0.04206   0.00000   0.00011 ...
  -0.00079   0.00719   0.00000   0.00002   0.00000   0.00000  -0.00001   0.00000  -0.00677   0.00000   0.02152   0.00000 ...
   0.00000   0.00000   0.00005   0.00000  -0.00052  -0.00000   0.00000   0.00002   0.00000   0.00011   0.00000   0.04206 ...
   ...  only 12  components have been written...
 Atom #  9
   1.99269  -0.06446   0.00000   0.00019   0.00000   0.00000   0.00082   0.00000   0.00000   0.00000  -0.00134   0.00000 ...
  -0.06446   1.03955   0.00000   0.00258   0.00000   0.00000  -0.03702   0.00000   0.00000   0.00000   0.03062   0.00000 ...
   0.00000   0.00000   1.96700   0.00000   0.00000  -0.19602   0.00000   0.00000   0.00000  -0.00129   0.00000   0.00000 ...
   0.00019   0.00258   0.00000   1.96593   0.00000   0.00000  -0.20149   0.00000   0.00000   0.00000   0.00015   0.00000 ...
   0.00000   0.00000   0.00000   0.00000   1.96700   0.00000   0.00000  -0.19602   0.00000   0.00000   0.00000  -0.00129 ...
   0.00000   0.00000  -0.19602   0.00000   0.00000   1.44640   0.00000   0.00000   0.00000   0.01998   0.00000   0.00000 ...
   0.00082  -0.03702   0.00000  -0.20149   0.00000   0.00000   1.59063   0.00000   0.00000   0.00000  -0.10167   0.00000 ...
   0.00000   0.00000   0.00000   0.00000  -0.19602   0.00000   0.00000   1.44640   0.00000   0.00000   0.00000   0.01998 ...
   0.00000   0.00000   0.00000   0.00000   0.00000   0.00000   0.00000   0.00000   0.42261   0.00000   0.00000   0.00000 ...
   0.00000   0.00000  -0.00129   0.00000   0.00000   0.01998   0.00000   0.00000   0.00000   0.44659   0.00000   0.00000 ...
  -0.00134   0.03062   0.00000   0.00015   0.00000   0.00000  -0.10167   0.00000   0.00000   0.00000   1.33882   0.00000 ...
   0.00000   0.00000   0.00000   0.00000  -0.00129   0.00000   0.00000   0.01998   0.00000   0.00000   0.00000   0.44659 ...
   ...  only 12  components have been written...


================================================================================

 ----iterations are completed or convergence reached----

 Mean square residual over all n,k,spin=   85.773E-09; max=  88.393E-06
 reduced coordinates (array xred) for    9 atoms
       0.248561221670      0.248561221670      0.251438778330
       0.748561221670      0.748561221670      0.751438778330
       0.242147249710      0.242147249710      0.757852750290
       0.770946309870      0.770946309870      0.229053690130
       0.241894950560      0.755532737440      0.758105049440
       0.755532737440      0.241894950560      0.758105049440
       0.241894950560      0.755532737440      0.244467262560
       0.755532737440      0.241894950560      0.244467262560
      -0.005071378915     -0.005071378915      0.005071378915
 rms dE/dt=  5.7566E-05; max dE/dt=  1.0689E-04; dE/dt below (all hartree)
    1       0.000024830516      0.000024830516      0.000000000000
    2       0.000024830516      0.000024830516      0.000000000000
    3      -0.000025807559     -0.000025807559      0.000000000000
    4      -0.000091377875     -0.000091377875      0.000000000000
    5       0.000015309181      0.000106891858      0.000091582677
    6       0.000106891858      0.000015309181      0.000091582677
    7      -0.000076273495      0.000015309181     -0.000091582677
    8       0.000015309181     -0.000076273495     -0.000091582677
    9      -0.000000517224     -0.000000517224      0.000000000000

 cartesian coordinates (angstrom) at end:
    1      2.96656151788660     2.96656151788660     2.90145609522104
    2      8.89968455365988     8.89968455365988     8.73795801560735
    3      5.93312303576586     5.93312303576586     2.82658577589736
    4      5.93312303578107     5.93312303578107     8.99925923614199
    5      8.98059922115458     5.93312303576585     5.82148861645848
    6      5.93312303576585     8.98059922115458     5.82148861645848
    7      5.93312303578063     2.88564685039191     5.82148861645848
    8      2.88564685039191     5.93312303578063     5.82148861645848
    9     -0.00000000000015    -0.00000000000015    -0.05919822555631

 cartesian forces (hartree/bohr) at end:
    1     -0.00000000000000     0.00000000000000    -0.00000231985773
    2     -0.00000000000000     0.00000000000000    -0.00000231985773
    3     -0.00000000000000     0.00000000000000     0.00000227133674
    4     -0.00000000000000     0.00000000000000     0.00000821639031
    5     -0.00000816828926    -0.00000000000000    -0.00000145658837
    6     -0.00000000000000    -0.00000816828926    -0.00000145658837
    7      0.00000000000000     0.00000816828926    -0.00000145658837
    8      0.00000816828926     0.00000000000000    -0.00000145658837
    9     -0.00000000000000     0.00000000000000    -0.00000002165813
 frms,max,avg= 3.6454049E-06 8.2163903E-06   0.000E+00  0.000E+00  6.855E-08 h/b

 cartesian forces (eV/Angstrom) at end:
    1     -0.00000000000000     0.00000000000000    -0.00011929187054
    2     -0.00000000000000     0.00000000000000    -0.00011929187054
    3     -0.00000000000000     0.00000000000000     0.00011679682113
    4     -0.00000000000000     0.00000000000000     0.00042250374193
    5     -0.00042003028657    -0.00000000000000    -0.00007490077904
    6     -0.00000000000000    -0.00042003028657    -0.00007490077904
    7      0.00000000000000     0.00042003028657    -0.00007490077904
    8      0.00042003028657     0.00000000000000    -0.00007490077904
    9     -0.00000000000000     0.00000000000000    -0.00000111370583
 frms,max,avg= 1.8745424E-04 4.2250374E-04   0.000E+00  0.000E+00  3.525E-06 e/A
 length scales= 15.727551974000 15.727551974000 15.856130854000 bohr
              =  8.322662051555  8.322662051555  8.390703064357 angstroms
 prteigrs : about to open file Cs2TiI6o_DS1_EIG
 Fermi (or HOMO) energy (hartree) =  -0.10125   Average Vxc (hartree)=  -0.28347
 Eigenvalues (hartree) for nkpt= 163  k points:
 kpt#   1, nband= 42, wtk=  0.00058, kpt=  0.0000  0.0000  0.0000 (reduced coord)
  -1.91865   -1.10906   -1.10854   -1.10854   -0.85609   -0.85599   -0.60748   -0.52534
  -0.51078   -0.51078   -0.50799   -0.50659   -0.37323   -0.37277   -0.37277   -0.37133
  -0.37131   -0.37131   -0.22968   -0.19193   -0.19041   -0.19041   -0.18136   -0.18136
  -0.18120   -0.17467   -0.16969   -0.13776   -0.13776   -0.12881   -0.11428   -0.11410
  -0.11410   -0.10165   -0.10165   -0.10125   -0.03405   -0.03012   -0.03012    0.04678
   0.05662    0.06013
 prteigrs : prtvol=0 or 1, do not print more k-points.


--- !EnergyTerms
iteration_state     : {dtset: 1, }
comment             : Components of total free energy in Hartree
kinetic             :  4.45798241962017E+01
hartree             :  3.71147512494959E+01
xc                  : -5.86875517281521E+01
Ewald energy        : -1.14759448634704E+02
psp_core            :  1.47237872002602E+01
local_psp           : -1.06838795541999E+02
spherical_terms     :  2.30838384845103E+01
total_energy        : -1.60783594774388E+02
total_energy_eV     : -4.37514411579655E+03
...


--- !EnergyTermsDC
iteration_state     : {dtset: 1, }
comment             : '"Double-counting" decomposition of free energy'
band_energy         : -3.03366923648768E+01
Ewald energy        : -1.14759448634704E+02
psp_core            :  1.47237872002602E+01
xc_dc               : -5.45845370786795E+01
spherical_terms     :  2.41733589095173E+01
total_energy_dc     : -1.60783531968483E+02
total_energy_dc_eV  : -4.37514240676098E+03
...


 Cartesian components of stress tensor (hartree/bohr^3)
  sigma(1 1)= -7.79439193E-06  sigma(3 2)= -1.30661289E-14
  sigma(2 2)= -7.79439193E-06  sigma(3 1)= -1.30653115E-14
  sigma(3 3)= -7.84592890E-06  sigma(2 1)=  2.57053096E-14

-Cartesian components of stress tensor (GPa)         [Pressure=  2.2982E-01 GPa]
- sigma(1 1)= -2.29318889E-01  sigma(3 2)= -3.84418720E-10
- sigma(2 2)= -2.29318889E-01  sigma(3 1)= -3.84394671E-10
- sigma(3 3)= -2.30835159E-01  sigma(2 1)=  7.56276193E-10

================================================================================
== DATASET  2 ==================================================================
-   mpi_nproc: 6, omp_nthreads: -1 (-1 if OMP is not activated)


--- !DatasetInfo
iteration_state: {dtset: 2, }
dimensions: {natom: 9, nkpt: 163, mband: 42, nsppol: 1, nspinor: 1, nspden: 1, mpw: 12550, }
cutoff_energies: {ecut:  16.0, pawecutdg:  40.0, }
electrons: {nelect:   7.20000000E+01, charge:   0.00000000E+00, occopt:   1.00000000E+00, tsmear:   1.00000000E-02, }
meta: {optdriver: 0, ionmov: 0, optcell: 0, iscf: 17, paral_kgb: 0, }
...

 Real(R)+Recip(G) space primitive vectors, cartesian coordinates (Bohr,Bohr^-1):
 R(1)=  0.0000000 11.0992184 10.9170123  G(1)= -0.0450482  0.0450482  0.0458001
 R(2)= 11.0992184  0.0000000 10.9170123  G(2)=  0.0450482 -0.0450482  0.0458001
 R(3)= 11.0992184 11.0992184  0.0000000  G(3)=  0.0450482  0.0450482 -0.0458001
 Unit cell volume ucvol=  2.6897913E+03 bohr^3
 Angles (23,13,12)=  5.97269982E+01  5.97269982E+01  6.05460036E+01 degrees

 Coarse grid specifications (used for wave-functions):

 getcut: wavevector=  0.0000  0.0000  0.0000  ngfft=  72  72  72
         ecut(hartree)=     21.160   => boxcut(ratio)=   2.21514

 getcut : COMMENT -
  Note that boxcut > 2.2 ; recall that boxcut=Gcut(box)/Gcut(sphere) = 2
  is sufficient for exact treatment of convolution.
  Such a large boxcut is a waste : you could raise ecut
  e.g. ecut=   25.957327 Hartrees makes boxcut=2


 Fine grid specifications (used for densities):

 getcut: wavevector=  0.0000  0.0000  0.0000  ngfft= 108 108 108
         ecut(hartree)=     52.900   => boxcut(ratio)=   2.10147

--- Pseudopotential description ------------------------------------------------
- pspini: atom type   1  psp file is ../../../Psps_for_tests/ATOMICDATA/Cs.GGA_PBE-JTH.xml
- pspatm: opening atomic psp file    ../../../Psps_for_tests/ATOMICDATA/Cs.GGA_PBE-JTH.xml
- pspatm : Reading pseudopotential header in XML form from ../../../Psps_for_tests/ATOMICDATA/Cs.GGA_PBE-JTH.xml
 Pseudopotential format is: paw10
 basis_size (lnmax)=  6 (lmn_size= 18), orbitals=   0   0   1   1   2   2
 Spheres core radius: rc_sph= 2.20660278
 1 radial meshes are used:
  - mesh 1: r(i)=AA*[exp(BB*(i-1))-1], size=1500 , AA= 0.15922E-03 BB= 0.87573E-02
 Shapefunction is SIN type: shapef(r)=[sin(pi*r/rshp)/(pi*r/rshp)]**2
 Radius for shape functions =  2.00394208
 mmax= 1500
 Radial grid used for partial waves is grid 1
 Radial grid used for projectors is grid 1
 Radial grid used for (t)core density is grid 1
 Radial grid used for Vloc is grid 1
 Radial grid used for pseudo valence density is grid 1
 Mesh size for Vloc has been set to 1341 to avoid numerical noise.
 Compensation charge density is not taken into account in XC energy/potential
 pspatm: atomic psp has been read  and splines computed

- pspini: atom type   2  psp file is ../../../Psps_for_tests/ATOMICDATA/I.GGA_PBE-JTH.xml
- pspatm: opening atomic psp file    ../../../Psps_for_tests/ATOMICDATA/I.GGA_PBE-JTH.xml
- pspatm : Reading pseudopotential header in XML form from ../../../Psps_for_tests/ATOMICDATA/I.GGA_PBE-JTH.xml
 Pseudopotential format is: paw10
 basis_size (lnmax)=  4 (lmn_size=  8), orbitals=   0   0   1   1
 Spheres core radius: rc_sph= 2.30022271
 1 radial meshes are used:
  - mesh 1: r(i)=AA*[exp(BB*(i-1))-1], size=2000 , AA= 0.12610E-03 BB= 0.66836E-02
 Shapefunction is SIN type: shapef(r)=[sin(pi*r/rshp)/(pi*r/rshp)]**2
 Radius for shape functions =  2.10879093
 mmax= 2000
 Radial grid used for partial waves is grid 1
 Radial grid used for projectors is grid 1
 Radial grid used for (t)core density is grid 1
 Radial grid used for Vloc is grid 1
 Radial grid used for pseudo valence density is grid 1
 Mesh size for Vloc has been set to 1792 to avoid numerical noise.
 Compensation charge density is not taken into account in XC energy/potential
 pspatm: atomic psp has been read  and splines computed

- pspini: atom type   3  psp file is ../../../Psps_for_tests/ATOMICDATA/Zr.GGA_PBE-JTH.xml
- pspatm: opening atomic psp file    ../../../Psps_for_tests/ATOMICDATA/Zr.GGA_PBE-JTH.xml
- pspatm : Reading pseudopotential header in XML form from ../../../Psps_for_tests/ATOMICDATA/Zr.GGA_PBE-JTH.xml
 Pseudopotential format is: paw10
 basis_size (lnmax)=  6 (lmn_size= 18), orbitals=   0   0   1   1   2   2
 Spheres core radius: rc_sph= 2.21000000
 1 radial meshes are used:
  - mesh 1: r(i)=AA*[exp(BB*(i-1))-1], size= 941 , AA= 0.35256E-03 BB= 0.14102E-01
 Shapefunction is BESSEL type: shapef(r,l)=aa(1,l)*jl(q(1,l)*r)+aa(2,l)*jl(q(2,l)*r)
 Radius for shape functions =  2.21000000
 mmax=  941
 Radial grid used for partial waves is grid 1
 Radial grid used for projectors is grid 1
 Radial grid used for (t)core density is grid 1
 Radial grid used for Vloc is grid 1
 Radial grid used for pseudo valence density is grid 1
 Mesh size for Vloc has been set to  777 to avoid numerical noise.
 Compensation charge density is not taken into account in XC energy/potential
 pspatm: atomic psp has been read  and splines computed

- pspini: atom type   4  psp file is ../../../Psps_for_tests/ATOMICDATA/Br.GGA_PBE-JTH.xml
- pspatm: opening atomic psp file    ../../../Psps_for_tests/ATOMICDATA/Br.GGA_PBE-JTH.xml
- pspatm : Reading pseudopotential header in XML form from ../../../Psps_for_tests/ATOMICDATA/Br.GGA_PBE-JTH.xml
 Pseudopotential format is: paw10
 basis_size (lnmax)=  4 (lmn_size=  8), orbitals=   0   0   1   1
 Spheres core radius: rc_sph= 2.20000000
 1 radial meshes are used:
  - mesh 1: r(i)=AA*[exp(BB*(i-1))-1], size= 927 , AA= 0.40483E-03 BB= 0.14169E-01
 Shapefunction is BESSEL type: shapef(r,l)=aa(1,l)*jl(q(1,l)*r)+aa(2,l)*jl(q(2,l)*r)
 Radius for shape functions =  2.02066386
 mmax=  927
 Radial grid used for partial waves is grid 1
 Radial grid used for projectors is grid 1
 Radial grid used for (t)core density is grid 1
 Radial grid used for Vloc is grid 1
 Radial grid used for pseudo valence density is grid 1
 Mesh size for Vloc has been set to  763 to avoid numerical noise.
 Compensation charge density is not taken into account in XC energy/potential
 pspatm: atomic psp has been read  and splines computed

--------------------------------------------------------------------------------

_setup2: Arith. and geom. avg. npw (full set) are   12504.972   12504.965

================================================================================

--- !BeginCycle
iteration_state: {dtset: 2, }
solver: {iscf: 17, nstep: 2500, nline: 4, wfoptalg: 10, }
tolerances: {toldfe: 1.00E-08, }
...

     iter   Etot(hartree)      deltaE(h)  residm     nres2
 ETOT  1  -160.57689113176    -1.606E+02 2.202E-01 2.569E+01
 ETOT  2  -160.78714195473    -2.103E-01 1.391E-02 7.411E+00
 ETOT  3  -160.78214463005     4.997E-03 4.183E-03 1.525E+00
 ETOT  4  -160.78311064306    -9.660E-04 2.772E-03 1.919E-01
 ETOT  5  -160.78238726573     7.234E-04 6.616E-04 1.319E-02
 ETOT  6  -160.78246485771    -7.759E-05 1.036E-03 2.494E-03
 ETOT  7  -160.78246292774     1.930E-06 3.830E-04 8.280E-04
 ETOT  8  -160.78246490704    -1.979E-06 5.948E-04 1.623E-04
 ETOT  9  -160.78246491394    -6.901E-09 2.167E-04 7.744E-05
 ETOT 10  -160.78246490885     5.086E-09 2.010E-04 8.764E-06

 At SCF step   10, etot is converged : 
  for the second time, diff in etot=  5.086E-09 < toldfe=  1.000E-08

 Cartesian components of stress tensor (hartree/bohr^3)
  sigma(1 1)= -1.69384431E-05  sigma(3 2)= -7.79678736E-14
  sigma(2 2)= -1.69384431E-05  sigma(3 1)= -7.79682797E-14
  sigma(3 3)= -1.69657708E-05  sigma(2 1)=  1.53377028E-13


--- !ResultsGS
iteration_state: {dtset: 2, }
comment   : Summary of ground state results
lattice_vectors:
- [  0.0000000,  11.0992184,  10.9170123, ]
- [ 11.0992184,   0.0000000,  10.9170123, ]
- [ 11.0992184,  11.0992184,   0.0000000, ]
lattice_lengths: [  15.56836,   15.56836,   15.69667, ]
lattice_angles: [ 59.727,  59.727,  60.546, ] # degrees, (23, 13, 12)
lattice_volume:   2.6897913E+03
convergence: {deltae:  5.086E-09, res2:  8.764E-06, residm:  2.010E-04, diffor: null, }
etotal    :  -1.60782465E+02
entropy   :   0.00000000E+00
fermie    :  -9.71614679E-02
cartesian_stress_tensor: # hartree/bohr^3
- [ -1.69384431E-05,   1.53377028E-13,  -7.79682797E-14, ]
- [  1.53377028E-13,  -1.69384431E-05,  -7.79678736E-14, ]
- [ -7.79682797E-14,  -7.79678736E-14,  -1.69657708E-05, ]
pressure_GPa:   4.9861E-01
xred      :
- [  2.4856E-01,   2.4856E-01,   2.5144E-01, Cs]
- [  7.4856E-01,   7.4856E-01,   7.5144E-01, Cs]
- [  2.4405E-01,   2.4405E-01,   7.5595E-01,  I]
- [  7.6849E-01,   7.6849E-01,   2.3151E-01, Br]
- [  2.4413E-01,   7.5367E-01,   7.5587E-01,  I]
- [  7.5367E-01,   2.4413E-01,   7.5587E-01,  I]
- [  2.4413E-01,   7.5367E-01,   2.4633E-01,  I]
- [  7.5367E-01,   2.4413E-01,   2.4633E-01,  I]
- [ -5.2810E-03,  -5.2810E-03,   5.2810E-03, Zr]
cartesian_forces: # hartree/bohr
- [  2.92732850E-22,  -2.62482255E-22,   1.09539330E-05, ]
- [  1.05732135E-22,  -7.54815406E-23,   1.09539330E-05, ]
- [ -1.58377277E-22,   1.88627872E-22,   1.85144169E-05, ]
- [ -7.13097962E-23,   1.01560391E-22,   1.14508651E-05, ]
- [ -2.44710571E-06,  -3.33557735E-17,  -4.79206855E-06, ]
- [ -3.33540609E-17,  -2.44710571E-06,  -4.79206855E-06, ]
- [  3.33547449E-17,   2.44710571E-06,  -4.79206855E-06, ]
- [  2.44710571E-06,   3.33549382E-17,  -4.79206855E-06, ]
- [ -1.46559950E-21,   1.49585009E-21,  -3.27048738E-05, ]
force_length_stats: {min:   5.38072926E-06, max:   3.27048738E-05, mean:   1.17889932E-05, }
...

 Integrated electronic density in atomic spheres:
 ------------------------------------------------
 Atom  Sphere_radius  Integrated_density
    1        2.20660          5.37179196
    2        2.20660          5.37179196
    3        2.30022          4.01264805
    4        2.20000          4.93041077
    5        2.30022          4.01217708
    6        2.30022          4.01217708
    7        2.30022          4.01217708
    8        2.30022          4.01217708
    9        2.21000          8.82427747

 PAW TEST:
 ==== Compensation charge inside spheres ============
 The following values must be close to each other ...
 Compensation charge over spherical meshes =     -5.141118396276212
[...]
                       5.4666995739E+00  2.8135323133E+00  5.3481634491E+00
                       2.8135323133E+00  5.4666995739E+00  5.3481634491E+00
                      -5.9655828228E-13 -5.9655828228E-13 -8.7455470585E-02
           xangst10    2.7042734816E+00  2.7042734816E+00  2.6390666653E+00
                       8.1128204449E+00  8.1128204449E+00  7.9159813885E+00
                       5.4085469633E+00  5.4085469633E+00  2.7109574727E+00
                       5.4085469633E+00  5.4085469633E+00  7.8849384949E+00
                       8.0186120383E+00  5.4085469633E+00  5.2894278801E+00
                       5.4085469633E+00  8.0186120383E+00  5.2894278801E+00
                       5.4085469633E+00  2.7984818882E+00  5.2894278801E+00
                       2.7984818882E+00  5.4085469633E+00  5.2894278801E+00
                       1.5088534472E-13  1.5088534472E-13 -9.3337756249E-02
            xcart1     5.6059888252E+00  5.6059888252E+00  5.4829574066E+00
                       1.6817966475E+01  1.6817966475E+01  1.6512347610E+01
                       1.1211977650E+01  1.1211977650E+01  5.3414730076E+00
                       1.1211977650E+01  1.1211977650E+01  1.7006135355E+01
                       1.6970873037E+01  1.1211977650E+01  1.1001019171E+01
                       1.1211977650E+01  1.6970873037E+01  1.1001019171E+01
                       1.1211977650E+01  5.4530822635E+00  1.1001019171E+01
                       5.4530822635E+00  1.1211977650E+01  1.1001019171E+01
                      -2.7568225321E-13 -2.7568225321E-13 -1.1186843385E-01
            xcart2     5.5496091771E+00  5.5496091771E+00  5.4270667752E+00
                       1.6648827531E+01  1.6648827531E+01  1.6344079112E+01
                       1.1099218354E+01  1.1099218354E+01  5.3286346424E+00
                       1.1099218354E+01  1.1099218354E+01  1.6779324550E+01
                       1.6754741661E+01  1.1099218354E+01  1.0893074732E+01
                       1.1099218354E+01  1.6754741661E+01  1.0893074732E+01
                       1.1099218354E+01  5.4436950476E+00  1.0893074732E+01
                       5.4436950476E+00  1.1099218354E+01  1.0893074732E+01
                      -1.5978893806E-12 -1.5978893806E-12 -1.1530531545E-01
            xcart3     5.4940610982E+00  5.4940610982E+00  5.3722116443E+00
                       1.6482183294E+01  1.6482183294E+01  1.6173575760E+01
                       1.0988122196E+01  1.0988122196E+01  5.3122149372E+00
                       1.0988122196E+01  1.0988122196E+01  1.6546041794E+01
                       1.6544034807E+01  1.0988122196E+01  1.0781682470E+01
                       1.0988122196E+01  1.6544034807E+01  1.0781682470E+01
                       1.0988122196E+01  5.4322095854E+00  1.0781682470E+01
                       5.4322095854E+00  1.0988122196E+01  1.0781682470E+01
                       1.6359980269E-13  1.6359980269E-13 -1.1986108535E-01
            xcart4     5.4380888878E+00  5.4380888878E+00  5.3178624252E+00
                       1.6314266663E+01  1.6314266663E+01  1.6005247764E+01
                       1.0876177776E+01  1.0876177776E+01  5.2940139380E+00
                       1.0876177776E+01  1.0876177776E+01  1.6316623033E+01
                       1.6333364631E+01  1.0876177776E+01  1.0672534440E+01
                       1.0876177776E+01  1.6333364631E+01  1.0672534440E+01
                       1.0876177776E+01  5.4189909198E+00  1.0672534440E+01
                       5.4189909198E+00  1.0876177776E+01  1.0672534440E+01
                       5.8979464713E-14  5.8979464713E-14 -1.2480220760E-01
            xcart5     5.3828197775E+00  5.3828197775E+00  5.2629217477E+00
                       1.6148459332E+01  1.6148459332E+01  1.5833567293E+01
                       1.0765639555E+01  1.0765639555E+01  5.2724890576E+00
                       1.0765639555E+01  1.0765639555E+01  1.6081974449E+01
                       1.6127623767E+01  1.0765639555E+01  1.0561312422E+01
                       1.0765639555E+01  1.6127623767E+01  1.0561312422E+01
                       1.0765639555E+01  5.4036553425E+00  1.0561312422E+01
                       5.4036553425E+00  1.0765639555E+01  1.0561312422E+01
                      -1.3955177626E-12 -1.3955177626E-12 -1.3103787490E-01
            xcart6     5.3287297167E+00  5.3287297167E+00  5.2053694665E+00
                       1.5986189150E+01  1.5986189150E+01  1.5654653851E+01
                       1.0657459433E+01  1.0657459433E+01  5.2483804088E+00
                       1.0657459433E+01  1.0657459433E+01  1.5839360502E+01
                       1.5929020240E+01  1.0657459433E+01  1.0446116048E+01
                       1.0657459433E+01  1.5929020240E+01  1.0446116048E+01
                       1.0657459433E+01  5.3858986269E+00  1.0446116048E+01
                       5.3858986269E+00  1.0657459433E+01  1.0446116048E+01
                      -9.0866449708E-13 -9.0866449708E-13 -1.3795334125E-01
            xcart7     5.2741305966E+00  5.2741305966E+00  5.1509297825E+00
                       1.5822391790E+01  1.5822391790E+01  1.5480861719E+01
                       1.0548261193E+01  1.0548261193E+01  5.2207409026E+00
                       1.0548261193E+01  1.0548261193E+01  1.5601305317E+01
                       1.5731024310E+01  1.0548261193E+01  1.0333060698E+01
                       1.0548261193E+01  1.5731024310E+01  1.0333060698E+01
                       1.0548261193E+01  5.3654980766E+00  1.0333060698E+01
                       5.3654980766E+00  1.0548261193E+01  1.0333060698E+01
                       1.5706597978E-12  1.5706597978E-12 -1.4662501997E-01
            xcart8     5.2194109681E+00  5.2194109681E+00  5.0956263700E+00
                       1.5658232904E+01  1.5658232904E+01  1.5306687299E+01
                       1.0438821936E+01  1.0438821936E+01  5.1909352427E+00
                       1.0438821936E+01  1.0438821936E+01  1.5366931468E+01
                       1.5534953483E+01  1.0438821936E+01  1.0220881108E+01
                       1.0438821936E+01  1.5534953483E+01  1.0220881108E+01
                       1.0438821936E+01  5.3426903890E+00  1.0220881108E+01
                       5.3426903890E+00  1.0438821936E+01  1.0220881108E+01
                      -1.9397042138E-12 -1.9397042138E-12 -1.5521737859E-01
            xcart9     5.1652825227E+00  5.1652825227E+00  5.0403243151E+00
                       1.5495847568E+01  1.5495847568E+01  1.5130213314E+01
                       1.0330565045E+01  1.0330565045E+01  5.1581877639E+00
                       1.0330565045E+01  1.0330565045E+01  1.5129396559E+01
                       1.5344324553E+01  1.0330565045E+01  1.0106564233E+01
                       1.0330565045E+01  1.5344324553E+01  1.0106564233E+01
                       1.0330565045E+01  5.3168055382E+00  1.0106564233E+01
                       5.3168055382E+00  1.0330565045E+01  1.0106564233E+01
                      -1.1273317758E-12 -1.1273317758E-12 -1.6526688823E-01
            xcart10    5.1103362687E+00  5.1103362687E+00  4.9871132438E+00
                       1.5331008806E+01  1.5331008806E+01  1.4959036897E+01
                       1.0220672537E+01  1.0220672537E+01  5.1229671813E+00
                       1.0220672537E+01  1.0220672537E+01  1.4900374330E+01
                       1.5152980718E+01  1.0220672537E+01  9.9955700930E+00
                       1.0220672537E+01  1.5152980718E+01  9.9955700930E+00
                       1.0220672537E+01  5.2883643566E+00  9.9955700930E+00
                       5.2883643566E+00  1.0220672537E+01  9.9955700930E+00
                       2.8513197899E-13  2.8513197899E-13 -1.7638279717E-01
             xred1     2.4856122167E-01  2.4856122167E-01  2.5143877833E-01
                       7.4856122167E-01  7.4856122167E-01  7.5143877833E-01
                       2.4214724971E-01  2.4214724971E-01  7.5785275029E-01
                       7.7094630987E-01  7.7094630987E-01  2.2905369013E-01
                       2.4189495056E-01  7.5553273744E-01  7.5810504944E-01
                       7.5553273744E-01  2.4189495056E-01  7.5810504944E-01
                       2.4189495056E-01  7.5553273744E-01  2.4446726256E-01
                       7.5553273744E-01  2.4189495056E-01  2.4446726256E-01
                      -5.0713789153E-03 -5.0713789153E-03  5.0713789153E-03
             xred2     2.4856007339E-01  2.4856007339E-01  2.5143992661E-01
                       7.4856007339E-01  7.4856007339E-01  7.5143992661E-01
                       2.4405187418E-01  2.4405187418E-01  7.5594812582E-01
                       7.6849434774E-01  7.6849434774E-01  2.3150565226E-01
                       2.4413241317E-01  7.5367489861E-01  7.5586758683E-01
                       7.5367489861E-01  2.4413241317E-01  7.5586758683E-01
                       2.4413241317E-01  7.5367489861E-01  2.4632510139E-01
                       7.5367489861E-01  2.4413241317E-01  2.4632510139E-01
                      -5.2809922669E-03 -5.2809922669E-03  5.2809922669E-03
             xred3     2.4868209175E-01  2.4868209175E-01  2.5131790825E-01
                       7.4868209175E-01  7.4868209175E-01  7.5131790825E-01
                       2.4590481721E-01  2.4590481721E-01  7.5409518279E-01
                       7.6592371185E-01  7.6592371185E-01  2.3407628815E-01
                       2.4627445627E-01  7.5190339920E-01  7.5372554373E-01
                       7.5190339920E-01  2.4627445627E-01  7.5372554373E-01
                       2.4627445627E-01  7.5190339920E-01  2.4809660080E-01
                       7.5190339920E-01  2.4627445627E-01  2.4809660080E-01
                      -5.5484235168E-03 -5.5484235168E-03  5.5484235168E-03
             xred4     2.4879155455E-01  2.4879155455E-01  2.5120844545E-01
                       7.4879155455E-01  7.4879155455E-01  7.5120844545E-01
                       2.4767582388E-01  2.4767582388E-01  7.5232417612E-01
                       7.6335897485E-01  7.6335897485E-01  2.3664102515E-01
                       2.4842724123E-01  7.5018318605E-01  7.5157275877E-01
                       7.5018318605E-01  2.4842724123E-01  7.5157275877E-01
                       2.4842724123E-01  7.5018318605E-01  2.4981681395E-01
                       7.5018318605E-01  2.4842724123E-01  2.4981681395E-01
                      -5.8387624120E-03 -5.8387624120E-03  5.8387624120E-03
             xred5     2.4894041358E-01  2.4894041358E-01  2.5105958642E-01
                       7.4894041358E-01  7.4894041358E-01  7.5105958642E-01
                       2.4939295500E-01  2.4939295500E-01  7.5060704500E-01
                       7.6069027099E-01  7.6069027099E-01  2.3930972901E-01
                       2.5052622403E-01  7.4859084760E-01  7.4947377597E-01
                       7.4859084760E-01  2.5052622403E-01  7.4947377597E-01
                       2.5052622403E-01  7.4859084760E-01  2.5140915240E-01
                       7.4859084760E-01  2.5052622403E-01  2.5140915240E-01
                      -6.1981964272E-03 -6.1981964272E-03  6.1981964272E-03
             xred6     2.4907779685E-01  2.4907779685E-01  2.5092220315E-01
                       7.4907779685E-01  7.4907779685E-01  7.5092220315E-01
                       2.5113587761E-01  2.5113587761E-01  7.4886412239E-01
                       7.5791604088E-01  7.5791604088E-01  2.4208395912E-01
                       2.5253050235E-01  7.4716628675E-01  7.4746949765E-01
                       7.4716628675E-01  2.5253050235E-01  7.4746949765E-01
                       2.5253050235E-01  7.4716628675E-01  2.5283371325E-01
                       7.4716628675E-01  2.5253050235E-01  2.5283371325E-01
                      -6.6010903796E-03 -6.6010903796E-03  6.6010903796E-03
             xred7     2.4932060608E-01  2.4932060608E-01  2.5067939392E-01
                       7.4932060608E-01  7.4932060608E-01  7.5067939392E-01
                       2.5269967578E-01  2.5269967578E-01  7.4730032422E-01
                       7.5515044109E-01  7.5515044109E-01  2.4484955891E-01
                       2.5448236766E-01  7.4582051541E-01  7.4551763234E-01
                       7.4582051541E-01  2.5448236766E-01  7.4551763234E-01
                       2.5448236766E-01  7.4582051541E-01  2.5417948459E-01
                       7.4582051541E-01  2.5448236766E-01  2.5417948459E-01
                      -7.0970951630E-03 -7.0970951630E-03  7.0970951630E-03
             xred8     2.4951503107E-01  2.4951503107E-01  2.5048496893E-01
                       7.4951503107E-01  7.4951503107E-01  7.5048496893E-01
                       2.5418197378E-01  2.5418197378E-01  7.4581802622E-01
                       7.5246497766E-01  7.5246497766E-01  2.4753502234E-01
                       2.5638571301E-01  7.4457600673E-01  7.4361428699E-01
                       7.4457600673E-01  2.5638571301E-01  7.4361428699E-01
                       2.5638571301E-01  7.4457600673E-01  2.5542399327E-01
                       7.4457600673E-01  2.5638571301E-01  2.5542399327E-01
                      -7.6004530610E-03 -7.6004530610E-03  7.6004530610E-03
             xred9     2.4977104879E-01  2.4977104879E-01  2.5022895121E-01
                       7.4977104879E-01  7.4977104879E-01  7.5022895121E-01
                       2.5561172002E-01  2.5561172002E-01  7.4438827998E-01
                       7.4973057484E-01  7.4973057484E-01  2.5026942516E-01
                       2.5816005734E-01  7.4349261032E-01  7.4183994266E-01
                       7.4349261032E-01  2.5816005734E-01  7.4183994266E-01
                       2.5816005734E-01  7.4349261032E-01  2.5650738968E-01
                       7.4349261032E-01  2.5816005734E-01  2.5650738968E-01
                      -8.1897277680E-03 -8.1897277680E-03  8.1897277680E-03
             xred10    2.5005773295E-01  2.5005773295E-01  2.4994226705E-01
                       7.5005773295E-01  7.5005773295E-01  7.4994226705E-01
                       2.5686955493E-01  2.5686955493E-01  7.4313044507E-01
                       7.4711634625E-01  7.4711634625E-01  2.5288365375E-01
                       2.5989486677E-01  7.4247643494E-01  7.4010513323E-01
                       7.4247643494E-01  2.5989486677E-01  7.4010513323E-01
                       2.5989486677E-01  7.4247643494E-01  2.5752356506E-01
                       7.4247643494E-01  2.5989486677E-01  2.5752356506E-01
                      -8.8439704965E-03 -8.8439704965E-03  8.8439704965E-03
            znucl       55.00000   53.00000   40.00000   35.00000

================================================================================


- Timing analysis has been suppressed with timopt=0



================================================================================

 Suggested references for the acknowledgment of ABINIT usage.

 The users of ABINIT have little formal obligations with respect to the ABINIT group
 (those specified in the GNU General Public License, http://www.gnu.org/copyleft/gpl.txt).
 However, it is common practice in the scientific literature,
 to acknowledge the efforts of people that have made the research possible.
 In this spirit, please find below suggested citations of work written by ABINIT developers,
 corresponding to implementations inside of ABINIT that you have used in the present run.
 Note also that it will be of great value to readers of publications presenting these results,
 to read papers enabling them to understand the theoretical formalism and details
 of the ABINIT implementation.
 For information on why they are suggested, see also https://docs.abinit.org/theory/acknowledgments.
-
- [1] Implementation of the Projector Augmented-Wave Method in the ABINIT code.
- M. Torrent, F. Jollet, F. Bottin, G. Zerah, and X. Gonze Comput. Mat. Science 42, 337, (2008).
- Comment: PAW calculations. Strong suggestion to cite this paper.
- DOI and bibtex: see https://docs.abinit.org/theory/bibliography/#torrent2008
-
- [2] Libxc: A library of exchange and correlation functionals for density functional theory.
- M.A.L. Marques, M.J.T. Oliveira, T. Burnus, Computer Physics Communications 183, 2227 (2012).
- Comment: to be cited when LibXC is used (negative value of ixc)
- Strong suggestion to cite this paper.
- DOI and bibtex: see https://docs.abinit.org/theory/bibliography/#marques2012
-
- [3] The Abinit project: Impact, environment and recent developments.
- Computer Phys. Comm. 248, 107042 (2020).
- X.Gonze, B. Amadon, G. Antonius, F.Arnardi, L.Baguet, J.-M.Beuken,
- J.Bieder, F.Bottin, J.Bouchet, E.Bousquet, N.Brouwer, F.Bruneval,
- G.Brunin, T.Cavignac, J.-B. Charraud, Wei Chen, M.Cote, S.Cottenier,
- J.Denier, G.Geneste, Ph.Ghosez, M.Giantomassi, Y.Gillet, O.Gingras,
- D.R.Hamann, G.Hautier, Xu He, N.Helbig, N.Holzwarth, Y.Jia, F.Jollet,
- W.Lafargue-Dit-Hauret, K.Lejaeghere, M.A.L.Marques, A.Martin, C.Martins,
- H.P.C. Miranda, F.Naccarato, K. Persson, G.Petretto, V.Planes, Y.Pouillon,
- S.Prokhorenko, F.Ricci, G.-M.Rignanese, A.H.Romero, M.M.Schmitt, M.Torrent,
- M.J.van Setten, B.Van Troeye, M.J.Verstraete, G.Zerah and J.W.Zwanzig
- Comment: the fifth generic paper describing the ABINIT project.
- Note that a version of this paper, that is not formatted for Computer Phys. Comm. 
- is available at https://www.abinit.org/sites/default/files/ABINIT20.pdf .
- The licence allows the authors to put it on the Web.
- DOI and bibtex: see https://docs.abinit.org/theory/bibliography/#gonze2020
-
- [4] ABINIT: Overview, and focus on selected capabilities
- J. Chem. Phys. 152, 124102 (2020).
- A. Romero, D.C. Allan, B. Amadon, G. Antonius, T. Applencourt, L.Baguet,
- J.Bieder, F.Bottin, J.Bouchet, E.Bousquet, F.Bruneval,
- G.Brunin, D.Caliste, M.Cote,
- J.Denier, C. Dreyer, Ph.Ghosez, M.Giantomassi, Y.Gillet, O.Gingras,
- D.R.Hamann, G.Hautier, F.Jollet, G. Jomard,
- A.Martin, 
- H.P.C. Miranda, F.Naccarato, G.Petretto, N.A. Pike, V.Planes,
- S.Prokhorenko, T. Rangel, F.Ricci, G.-M.Rignanese, M.Royo, M.Stengel, M.Torrent,
- M.J.van Setten, B.Van Troeye, M.J.Verstraete, J.Wiktor, J.W.Zwanziger, and X.Gonze.
- Comment: a global overview of ABINIT, with focus on selected capabilities .
- Note that a version of this paper, that is not formatted for J. Chem. Phys 
- is available at https://www.abinit.org/sites/default/files/ABINIT20_JPC.pdf .
- The licence allows the authors to put it on the Web.
- DOI and bibtex: see https://docs.abinit.org/theory/bibliography/#romero2020
-
- [5] Recent developments in the ABINIT software package.
- Computer Phys. Comm. 205, 106 (2016).
- X.Gonze, F.Jollet, F.Abreu Araujo, D.Adams, B.Amadon, T.Applencourt,
- C.Audouze, J.-M.Beuken, J.Bieder, A.Bokhanchuk, E.Bousquet, F.Bruneval
- D.Caliste, M.Cote, F.Dahm, F.Da Pieve, M.Delaveau, M.Di Gennaro,
- B.Dorado, C.Espejo, G.Geneste, L.Genovese, A.Gerossier, M.Giantomassi,
- Y.Gillet, D.R.Hamann, L.He, G.Jomard, J.Laflamme Janssen, S.Le Roux,
- A.Levitt, A.Lherbier, F.Liu, I.Lukacevic, A.Martin, C.Martins,
- M.J.T.Oliveira, S.Ponce, Y.Pouillon, T.Rangel, G.-M.Rignanese,
- A.H.Romero, B.Rousseau, O.Rubel, A.A.Shukri, M.Stankovski, M.Torrent,
- M.J.Van Setten, B.Van Troeye, M.J.Verstraete, D.Waroquier, J.Wiktor,
- B.Xu, A.Zhou, J.W.Zwanziger.
- Comment: the fourth generic paper describing the ABINIT project.
- Note that a version of this paper, that is not formatted for Computer Phys. Comm. 
- is available at https://www.abinit.org/sites/default/files/ABINIT16.pdf .
- The licence allows the authors to put it on the Web.
- DOI and bibtex: see https://docs.abinit.org/theory/bibliography/#gonze2016
-
- Proc.   0 individual time (sec): cpu=      12749.0  wall=      12749.3

================================================================================

 Calculation completed.
.Delivered   0 WARNINGs and  12 COMMENTs to log file.
+Overall time at end (sec) : cpu=      76494.1  wall=      76495.7
