
.Version 9.2.2 of ABINIT 
.(MPI version, prepared for a x86_64_linux_gnu9.3 computer) 

.Copyright (C) 1998-2020 ABINIT group . 
 ABINIT comes with ABSOLUTELY NO WARRANTY.
 It is free software, and you are welcome to redistribute it
 under certain conditions (GNU General Public License,
 see ~abinit/COPYING or http://www.gnu.org/copyleft/gpl.txt).

 ABINIT is a project of the Universite Catholique de Louvain,
 Corning Inc. and other collaborators, see ~abinit/doc/developers/contributors.txt .
 Please read https://docs.abinit.org/theory/acknowledgments for suggested
 acknowledgments of the ABINIT effort.
 For more information, see https://www.abinit.org .

.Starting date : Wed 19 Jul 2023.
- ( at 22h52 )
  
- The starting date is more than 2 years after the initial release
- of this version of ABINIT, namely Nov 2020.
- Note that the use beyond 3 years after the release will not be supported.
- Action: please, switch to a more recent version of ABINIT.

- input  file    -> Cs2TiI6.in
- output file    -> Cs2TiI6.out
- root for input  files -> Cs2TiI6i
- root for output files -> Cs2TiI6o


 Symmetries : space group Im m 2 (# 44); Bravais oI (body-center ortho.)
================================================================================
 Values of the parameters that define the memory need of the present run
     intxc =       0    ionmov =       0      iscf =      17    lmnmax =       8
     lnmax =       8     mgfft =      64  mpssoang =       4    mqgrid =    3001
     natom =       9  nloc_mem =       1    nspden =       1   nspinor =       1
    nsppol =       1      nsym =       4    n1xccc =    2501    ntypat =       4
    occopt =       1   xclevel =       2
-    mband =          42        mffmem =           1         mkmem =           2
       mpw =       10582          nfft =      262144          nkpt =           5
================================================================================
P This job should need less than                     106.421 Mbytes of memory.
  Rough estimation (10% accuracy) of disk space for files :
_ WF disk file :     33.910 Mbytes ; DEN or POT disk file :      2.002 Mbytes.
================================================================================

--------------------------------------------------------------------------------
------------- Echo of variables that govern the present computation ------------
--------------------------------------------------------------------------------
-
- outvars: echo of selected default values                                      
-   iomode0 =  0 , fftalg0 =112 , wfoptalg0 =  0
-
- outvars: echo of global parameters not present in the input file              
-  max_nthreads =    0
-
 -outvars: echo values of preprocessed input variables --------
            acell      1.5145584566E+01  1.5516755279E+01  1.5145584566E+01 Bohr
              amu      1.32905430E+02  1.26904470E+02  9.12240000E+01
                       3.54527000E+01
           diemac      1.20000000E+01
             ecut      2.00000000E+01 Hartree
-          fftalg         112
             iscf          17
           istwfk        1    1    1    1    1
              ixc        -428
              kpt      0.00000000E+00  0.00000000E+00  0.00000000E+00
                       5.00000000E-01  0.00000000E+00  0.00000000E+00
                       0.00000000E+00  5.00000000E-01  0.00000000E+00
                       5.00000000E-01  5.00000000E-01  0.00000000E+00
                       5.00000000E-01  0.00000000E+00  5.00000000E-01
         kptns_hf      0.00000000E+00  0.00000000E+00  0.00000000E+00
                       5.00000000E-01  0.00000000E+00  0.00000000E+00
                       0.00000000E+00  5.00000000E-01  0.00000000E+00
                       5.00000000E-01  5.00000000E-01  0.00000000E+00
                       0.00000000E+00  0.00000000E+00  5.00000000E-01
                       5.00000000E-01  0.00000000E+00  5.00000000E-01
                       0.00000000E+00  5.00000000E-01  5.00000000E-01
                       5.00000000E-01  5.00000000E-01  5.00000000E-01
         kptrlatt        2    0    0      0    2    0      0    0    2
          kptrlen      2.99869489E+01
P           mkmem           2
            natom           9
            nband          42
          nbandhf          36
            ngfft          64      64      64
             nkpt           5
           nkpthf           8
-           npkpt           4
            nstep        2500
             nsym           4
           ntypat           4
              occ      2.000000  2.000000  2.000000  2.000000  2.000000  2.000000
                       2.000000  2.000000  2.000000  2.000000  2.000000  2.000000
                       2.000000  2.000000  2.000000  2.000000  2.000000  2.000000
                       2.000000  2.000000  2.000000  2.000000  2.000000  2.000000
                       2.000000  2.000000  2.000000  2.000000  2.000000  2.000000
                       2.000000  2.000000  2.000000  2.000000  2.000000  2.000000
                       0.000000  0.000000  0.000000  0.000000  0.000000  0.000000
            rprim      1.2215289848E-02  7.0184956085E-01  7.1222045788E-01
                       7.0710678119E-01  0.0000000000E+00  7.0710678119E-01
                       7.1222045788E-01  7.0184956085E-01  1.2215289848E-02
          spgroup          44
           symrel      1  0  0   0  1  0   0  0  1       0  1 -1   0  1  0  -1  1  0
                       0  0 -1   0 -1  0  -1  0  0       1 -1  0   0 -1  0   0 -1  1
           toldfe      1.00000000E-08 Hartree
            typat      1  1  2  4  2  4  4  4  3
          usefock           1
              wtk        0.12500    0.25000    0.25000    0.25000    0.12500
           xangst      2.9441207046E+00  2.7679537435E+00  2.8620131520E+00
                       8.7502545612E+00  8.4822710288E+00  8.6681470086E+00
                       5.7355778468E+00  5.6251123861E+00  2.9399014166E+00
                       5.9264410096E+00  5.6251123861E+00  8.9632648100E+00
                       8.6723662966E+00  5.6251123861E+00  5.8766898664E+00
                       5.8399502965E+00  8.7830562641E+00  5.7723174167E+00
                       5.8399502965E+00  2.4671685081E+00  5.7723174167E+00
                       2.6490029032E+00  5.6251123861E+00  5.6858267036E+00
                       9.1406938007E-02  2.1274389311E-17 -9.1406938007E-02
            xcart      5.5635818338E+00  5.2306745236E+00  5.4084210461E+00
                       1.6535584714E+01  1.6029169229E+01  1.6380423926E+01
                       1.0838671344E+01  1.0629921876E+01  5.5556085351E+00
                       1.1199350451E+01  1.0629921876E+01  1.6938115747E+01
                       1.6388397225E+01  1.0629921876E+01  1.1105334415E+01
                       1.1035906690E+01  1.6597570949E+01  1.0908099070E+01
                       1.1035906690E+01  4.6622728041E+00  1.0908099070E+01
                       5.0058900122E+00  1.0629921876E+01  1.0744655309E+01
                       1.7273407948E-01  4.0202769442E-17 -1.7273407948E-01
             xred      2.3871788396E-01  2.5396458297E-01  2.5335295009E-01
                       7.4664704991E-01  7.4603541703E-01  7.6128211604E-01
                       2.5084563981E-01  2.4709604340E-01  7.4915436019E-01
                       7.7064573097E-01  7.8223928240E-01  2.2935426903E-01
                       2.5084563981E-01  7.5290395660E-01  7.4915436019E-01
                       7.7467298297E-01  2.1929948584E-01  7.8672804535E-01
                       2.1327195465E-01  7.8070051416E-01  2.2532701703E-01
                       7.7064573097E-01  2.1776071760E-01  2.2935426903E-01
                      -1.6292613058E-02 -1.1789765272E-18  1.6292613058E-02
            znucl       55.00000   53.00000   40.00000   17.00000

================================================================================

 chkinp: Checking input parameters for consistency.

================================================================================
== DATASET  1 ==================================================================
-   mpi_nproc: 4, omp_nthreads: -1 (-1 if OMP is not activated)
-    --> not optimal distribution: autoparal keyword recommended in input file <--


--- !DatasetInfo
iteration_state: {dtset: 1, }
dimensions: {natom: 9, nkpt: 5, mband: 42, nsppol: 1, nspinor: 1, nspden: 1, mpw: 10582, }
cutoff_energies: {ecut:  20.0, pawecutdg:  -1.0, }
electrons: {nelect:   7.20000000E+01, charge:   0.00000000E+00, occopt:   1.00000000E+00, tsmear:   1.00000000E-02, }
meta: {optdriver: 0, ionmov: 0, optcell: 0, iscf: 17, paral_kgb: 0, }
...

 Real(R)+Recip(G) space primitive vectors, cartesian coordinates (Bohr,Bohr^-1):
 R(1)=  0.1850077 10.6299219 10.7869952  G(1)= -0.0471610  0.0470370  0.0471610
 R(2)= 10.9720029  0.0000000 10.9720029  G(2)=  0.0455705 -0.0470370  0.0455705
 R(3)= 10.7869952 10.6299219  0.1850077  G(3)=  0.0471610  0.0470370 -0.0471610
 Unit cell volume ucvol=  2.4730521E+03 bohr^3
 Angles (23,13,12)=  5.91859535E+01  5.93366522E+01  5.91859535E+01 degrees

 getcut: wavevector=  0.0000  0.0000  0.0000  ngfft=  64  64  64
         ecut(hartree)=     20.000   => boxcut(ratio)=   2.04880

--- Pseudopotential description ------------------------------------------------
- pspini: atom type   1  psp file is ../../../Psps_for_tests/ONCVPSP-PBE-PDv0.4/Cs-sp.psp8
- pspatm: opening atomic psp file    ../../../Psps_for_tests/ONCVPSP-PBE-PDv0.4/Cs-sp.psp8
- Cs    ONCVPSP-3.2.3.1  r_core=   2.27353   1.85623   2.01788   1.90105
- 55.00000   9.00000    170703                znucl, zion, pspdat
    8   32    3    4       600   0.00000      pspcod,pspxc,lmax,lloc,mmax,r2well
    5.99000000000000    5.00000000000000    0.00000000000000   rchrg,fchrg,qchrg
     nproj     2     2     2     2
     extension_switch     1
  pspatm : epsatm=   22.81663475
         --- l  ekb(1:nproj) -->
             0    6.176104    0.756334
             1    6.263084    0.786397
             2    3.737592    0.906929
             3   -9.272327   -2.535859
 pspatm: atomic psp has been read  and splines computed

- pspini: atom type   2  psp file is ../../../Psps_for_tests/ONCVPSP-PBE-PDv0.4/I.psp8
- pspatm: opening atomic psp file    ../../../Psps_for_tests/ONCVPSP-PBE-PDv0.4/I.psp8
- I     ONCVPSP-3.2.3.1  r_core=   2.02042   2.17032   2.27639
- 53.00000   7.00000    170510                znucl, zion, pspdat
    8   32    2    4       600   0.00000      pspcod,pspxc,lmax,lloc,mmax,r2well
    5.99000000000000    4.00000000000000    0.00000000000000   rchrg,fchrg,qchrg
     nproj     2     2     2
     extension_switch     1
  pspatm : epsatm=   19.17050482
         --- l  ekb(1:nproj) -->
             0    5.955518    0.916455
             1    4.011347    0.742302
             2    4.134838    0.711910
 pspatm: atomic psp has been read  and splines computed

- pspini: atom type   3  psp file is ../../../Psps_for_tests/ONCVPSP-PBE-PDv0.4/Zr-sp.psp8
- pspatm: opening atomic psp file    ../../../Psps_for_tests/ONCVPSP-PBE-PDv0.4/Zr-sp.psp8
- Zr    ONCVPSP-3.2.3.1  r_core=   1.56507   1.56507   1.51006
- 40.00000  12.00000    170510                znucl, zion, pspdat
    8   32    2    4       600   0.00000      pspcod,pspxc,lmax,lloc,mmax,r2well
    5.99000000000000    5.00000000000000    0.00000000000000   rchrg,fchrg,qchrg
     nproj     2     2     2
     extension_switch     1
  pspatm : epsatm=   18.79873988
         --- l  ekb(1:nproj) -->
             0   10.621766    0.898805
             1    5.849837    0.750341
             2    1.531478    0.503023
 pspatm: atomic psp has been read  and splines computed

- pspini: atom type   4  psp file is ../../../Psps_for_tests/ONCVPSP-PBE-PDv0.4/Cl.psp8
- pspatm: opening atomic psp file    ../../../Psps_for_tests/ONCVPSP-PBE-PDv0.4/Cl.psp8
- Cl    ONCVPSP-3.2.3.1  r_core=   1.56009   1.35202   1.75774
- 17.00000   7.00000    170504                znucl, zion, pspdat
    8   32    2    4       600   0.00000      pspcod,pspxc,lmax,lloc,mmax,r2well
    5.99000000000000    8.00000000000000    0.00000000000000   rchrg,fchrg,qchrg
     nproj     2     2     2
     extension_switch     1
  pspatm : epsatm=    9.12776994
         --- l  ekb(1:nproj) -->
             0    8.139296    0.698720
             1    3.821713    1.107519
             2   -2.938609   -0.805455
 pspatm: atomic psp has been read  and splines computed

   1.00284551E+04                                ecore*ucvol(ha*bohr**3)
--------------------------------------------------------------------------------

_setup2: Arith. and geom. avg. npw (full set) are   10571.375   10571.372

================================================================================

--- !BeginCycle
iteration_state: {dtset: 1, }
solver: {iscf: 17, nstep: 2500, nline: 4, wfoptalg: 0, }
tolerances: {toldfe: 1.00E-08, }
...

     iter   Etot(hartree)      deltaE(h)  residm     nres2
 ETOT  1  -183.80751857678    -1.838E+02 1.756E-02 3.944E+00
 ETOT  2  -189.44101296659    -5.633E+00 4.587E-03 3.286E+00
 ETOT  3  -189.43695546731     4.057E-03 6.394E-03 1.098E+00
 ETOT  4  -189.41713165213     1.982E-02 2.628E-03 8.162E-02
 ETOT  5  -189.41838929825    -1.258E-03 2.534E-03 5.074E-02
 ETOT  6  -189.41833953466     4.976E-05 2.198E-03 6.436E-03
 ETOT  7  -189.41831375117     2.578E-05 1.238E-03 6.824E-04
 ETOT  8  -189.41832413328    -1.038E-05 9.380E-04 1.372E-04
 ETOT  9  -189.41832420486    -7.158E-08 9.967E-04 5.313E-06
 ETOT 10  -189.41832444001    -2.351E-07 7.584E-04 4.799E-06
 ETOT 11  -189.41832439406     4.595E-08 3.754E-04 1.233E-06
 ETOT 12  -189.41832438707     6.987E-09 2.706E-04 1.342E-07
 ETOT 13  -189.41832438816    -1.083E-09 1.748E-04 2.038E-08

 At SCF step   13, etot is converged : 
  for the second time, diff in etot=  1.083E-09 < toldfe=  1.000E-08

 Cartesian components of stress tensor (hartree/bohr^3)
  sigma(1 1)=  5.75982935E-05  sigma(3 2)=  0.00000000E+00
  sigma(2 2)=  6.01453944E-05  sigma(3 1)= -2.69404189E-07
  sigma(3 3)=  5.75982935E-05  sigma(2 1)=  0.00000000E+00


--- !ResultsGS
iteration_state: {dtset: 1, }
comment   : Summary of ground state results
lattice_vectors:
- [  0.1850077,  10.6299219,  10.7869952, ]
- [ 10.9720029,   0.0000000,  10.9720029, ]
- [ 10.7869952,  10.6299219,   0.1850077, ]
lattice_lengths: [  15.14558,   15.51676,   15.14558, ]
lattice_angles: [ 59.186,  59.337,  59.186, ] # degrees, (23, 13, 12)
lattice_volume:   2.4730521E+03
convergence: {deltae: -1.083E-09, res2:  2.038E-08, residm:  1.748E-04, diffor: null, }
etotal    :  -1.89418324E+02
entropy   :   0.00000000E+00
fermie    :   8.34225985E-03
cartesian_stress_tensor: # hartree/bohr^3
- [  5.75982935E-05,   0.00000000E+00,  -2.69404189E-07, ]
- [  0.00000000E+00,   6.01453944E-05,   0.00000000E+00, ]
- [ -2.69404189E-07,   0.00000000E+00,   5.75982935E-05, ]
pressure_GPa:  -1.7196E+00
xred      :
- [  2.3872E-01,   2.5396E-01,   2.5335E-01, Cs]
- [  7.4665E-01,   7.4604E-01,   7.6128E-01, Cs]
- [  2.5085E-01,   2.4710E-01,   7.4915E-01,  I]
- [  7.7065E-01,   7.8224E-01,   2.2935E-01, Cl]
- [  2.5085E-01,   7.5290E-01,   7.4915E-01,  I]
- [  7.7467E-01,   2.1930E-01,   7.8673E-01, Cl]
- [  2.1327E-01,   7.8070E-01,   2.2533E-01, Cl]
- [  7.7065E-01,   2.1776E-01,   2.2935E-01, Cl]
- [ -1.6293E-02,  -1.1790E-18,   1.6293E-02, Zr]
cartesian_forces: # hartree/bohr
- [ -5.66929143E-05,   4.88981640E-05,   5.66929143E-05, ]
- [ -5.66929143E-05,  -4.88981640E-05,   5.66929143E-05, ]
- [  1.38674284E-04,   1.11390312E-16,  -2.05639058E-03, ]
- [  2.42365255E-04,  -2.19167126E-16,   3.52676632E-03, ]
- [  2.05639058E-03,  -1.11288498E-16,  -1.38674284E-04, ]
- [  1.43719404E-04,   3.41193856E-03,  -1.43719404E-04, ]
- [  1.43719404E-04,  -3.41193856E-03,  -1.43719404E-04, ]
- [ -3.52676632E-03,   2.19065926E-16,  -2.42365255E-04, ]
- [  9.15283227E-04,  -2.97158688E-20,  -9.15283227E-04, ]
force_length_stats: {min:   9.39106145E-05, max:   3.53508439E-03, mean:   2.16783246E-03, }
...

 Integrated electronic density in atomic spheres:
 ------------------------------------------------
 Atom  Sphere_radius  Integrated_density
    1        2.00000          4.47314862
    2        2.00000          4.47314862
    3        2.00000          2.86544058
    4        2.00000          5.08238298
    5        2.00000          2.86544058
    6        2.00000          5.07747733
    7        2.00000          5.07747733
    8        2.00000          5.08238298
    9        2.00000          8.15171654
================================================================================

 ----iterations are completed or convergence reached----

 Mean square residual over all n,k,spin=   21.909E-07; max=  17.480E-05
 reduced coordinates (array xred) for    9 atoms
       0.238717883960      0.253964582975      0.253352950090
       0.746647049910      0.746035417025      0.761282116040
       0.250845639810      0.247096043400      0.749154360190
       0.770645730970      0.782239282400      0.229354269030
       0.250845639810      0.752903956600      0.749154360190
       0.774672982970      0.219299485840      0.786728045350
       0.213271954650      0.780700514160      0.225327017030
       0.770645730970      0.217760717600      0.229354269030
      -0.016292613058     -0.000000000000      0.016292613058
 rms dE/dt=  2.2505E-02; max dE/dt=  4.1355E-02; dE/dt below (all hartree)
    1      -0.001107409238      0.000000000000      0.000067841911
    2      -0.000067841911      0.000000000000      0.001107409238
    3       0.022170051428      0.021041188708     -0.001128862720
    4      -0.038074618765     -0.041354922544     -0.003280303778
    5       0.001128862720     -0.021041188708     -0.022170051428
    6      -0.034731496987      0.000000000000     -0.037805783606
    7       0.037805783606      0.000000000000      0.034731496987
    8       0.003280303778      0.041354922544      0.038074618765
    9       0.009717253301      0.000000000000     -0.009717253301

 cartesian coordinates (angstrom) at end:
    1      2.94412070456344     2.76795374346148     2.86201315203556
    2      8.75025456116245     8.48227102877212     8.66814700863458
    3      5.73557784680369     5.62511238611680     2.93990141662828
    4      5.92644100959975     5.62511238611680     8.96326481000777
    5      8.67236629656974     5.62511238611680     5.87668986639432
    6      5.83995029647040     8.78305626409834     5.77231741672798
    7      5.83995029647003     2.46716850813526     5.77231741672761
    8      2.64900290319024     5.62511238611680     5.68582670359826
    9      0.09140693800719     0.00000000000000    -0.09140693800719

 cartesian forces (hartree/bohr) at end:
    1     -0.00005669291432     0.00004889816402     0.00005669291432
    2     -0.00005669291432    -0.00004889816402     0.00005669291432
    3      0.00013867428379     0.00000000000000    -0.00205639057844
    4      0.00024236525544    -0.00000000000000     0.00352676632397
    5      0.00205639057844    -0.00000000000000    -0.00013867428379
    6      0.00014371940372     0.00341193855589    -0.00014371940372
    7      0.00014371940372    -0.00341193855589    -0.00014371940372
    8     -0.00352676632397     0.00000000000000    -0.00024236525544
    9      0.00091528322749    -0.00000000000000    -0.00091528322749
 frms,max,avg= 1.4725637E-03 3.5267663E-03   1.267E-06  0.000E+00 -1.267E-06 h/b

 cartesian forces (eV/Angstrom) at end:
    1     -0.00291526662260     0.00251444448039     0.00291526662260
    2     -0.00291526662260    -0.00251444448039     0.00291526662260
    3      0.00713091778437     0.00000000000001    -0.10574384627254
    4      0.01246292148060    -0.00000000000001     0.18135360077527
    5      0.10574384627254    -0.00000000000001    -0.00713091778437
    6      0.00739034826014     0.17544892002908    -0.00739034826014
    7      0.00739034826014    -0.17544892002908    -0.00739034826014
    8     -0.18135360077527     0.00000000000001    -0.01246292148060
    9      0.04706575196268    -0.00000000000000    -0.04706575196268
 frms,max,avg= 7.5722264E-02 1.8135360E-01   6.515E-05  0.000E+00 -6.515E-05 e/A
 length scales= 15.145584566000 15.516755279000 15.145584566000 bohr
              =  8.014698163100  8.211113244915  8.014698163100 angstroms
 prteigrs : about to open file Cs2TiI6o_EIG
 Fermi (or HOMO) energy (hartree) =   0.00834   Average Vxc (hartree)=  -0.23363
 Eigenvalues (hartree) for nkpt=   5  k points:
 kpt#   1, nband= 42, wtk=  0.12500, kpt=  0.0000  0.0000  0.0000 (reduced coord)
  -1.93229   -1.07290   -1.07209   -1.07185   -0.79478   -0.79456   -0.57165   -0.56302
  -0.56152   -0.55513   -0.43348   -0.42468   -0.27693   -0.27600   -0.27587   -0.27384
  -0.27381   -0.27360   -0.15043   -0.12846   -0.12415   -0.11839   -0.11785   -0.11370
  -0.10266   -0.09446   -0.09399   -0.07351   -0.06595   -0.06245   -0.05365   -0.02929
  -0.02070   -0.01248   -0.01034    0.00834    0.12297    0.12972    0.12986    0.19437
   0.21748    0.21941
 prteigrs : prtvol=0 or 1, do not print more k-points.


--- !EnergyTerms
iteration_state     : {dtset: 1, }
comment             : Components of total free energy in Hartree
kinetic             :  5.29124349632737E+01
hartree             :  4.68009930340181E+01
xc                  : -4.42856812632801E+01
Ewald energy        : -1.14400015807532E+02
psp_core            :  4.05509251605837E+00
local_psp           : -1.53806414877318E+02
non_local_psp+x     :  1.93054078335897E+01
total_energy        : -1.89418183601190E+02
...


--- !EnergyTermsDC
iteration_state     : {dtset: 1, }
comment             : '"Double-counting" decomposition of free energy'
band_energy         : -2.58119773194359E+01
Ewald energy        : -1.14400015807532E+02
psp_core            :  4.05509251605837E+00
xc_dc               : -5.32614237772457E+01
total_energy_dc     : -1.89418324388155E+02
...


 Cartesian components of stress tensor (hartree/bohr^3)
  sigma(1 1)=  5.75982935E-05  sigma(3 2)=  0.00000000E+00
  sigma(2 2)=  6.01453944E-05  sigma(3 1)= -2.69404189E-07
  sigma(3 3)=  5.75982935E-05  sigma(2 1)=  0.00000000E+00

-Cartesian components of stress tensor (GPa)         [Pressure= -1.7196E+00 GPa]
- sigma(1 1)=  1.69460001E+00  sigma(3 2)=  0.00000000E+00
- sigma(2 2)=  1.76953830E+00  sigma(3 1)= -7.92614356E-03
- sigma(3 3)=  1.69460001E+00  sigma(2 1)=  0.00000000E+00

== END DATASET(S) ==============================================================
================================================================================
  
 -outvars: echo values of variables after computation  --------
            acell      1.5145584566E+01  1.5516755279E+01  1.5145584566E+01 Bohr
              amu      1.32905430E+02  1.26904470E+02  9.12240000E+01
                       3.54527000E+01
           diemac      1.20000000E+01
             ecut      2.00000000E+01 Hartree
           etotal     -1.8941832439E+02
            fcart     -5.6692914318E-05  4.8898164023E-05  5.6692914318E-05
                      -5.6692914318E-05 -4.8898164023E-05  5.6692914318E-05
                       1.3867428379E-04  1.1139031164E-16 -2.0563905784E-03
                       2.4236525544E-04 -2.1916712596E-16  3.5267663240E-03
                       2.0563905784E-03 -1.1128849808E-16 -1.3867428379E-04
                       1.4371940372E-04  3.4119385559E-03 -1.4371940372E-04
                       1.4371940372E-04 -3.4119385559E-03 -1.4371940372E-04
                      -3.5267663240E-03  2.1906592590E-16 -2.4236525544E-04
                       9.1528322749E-04 -2.9715868760E-20 -9.1528322749E-04
-          fftalg         112
             iscf          17
           istwfk        1    1    1    1    1
              ixc        -428
              kpt      0.00000000E+00  0.00000000E+00  0.00000000E+00
                       5.00000000E-01  0.00000000E+00  0.00000000E+00
                       0.00000000E+00  5.00000000E-01  0.00000000E+00
                       5.00000000E-01  5.00000000E-01  0.00000000E+00
                       5.00000000E-01  0.00000000E+00  5.00000000E-01
         kptns_hf      0.00000000E+00  0.00000000E+00  0.00000000E+00
                       5.00000000E-01  0.00000000E+00  0.00000000E+00
                       0.00000000E+00  5.00000000E-01  0.00000000E+00
                       5.00000000E-01  5.00000000E-01  0.00000000E+00
                       0.00000000E+00  0.00000000E+00  5.00000000E-01
                       5.00000000E-01  0.00000000E+00  5.00000000E-01
                       0.00000000E+00  5.00000000E-01  5.00000000E-01
                       5.00000000E-01  5.00000000E-01  5.00000000E-01
         kptrlatt        2    0    0      0    2    0      0    0    2
          kptrlen      2.99869489E+01
P           mkmem           2
            natom           9
            nband          42
          nbandhf          36
            ngfft          64      64      64
             nkpt           5
           nkpthf           8
-           npkpt           4
            nstep        2500
             nsym           4
           ntypat           4
              occ      2.000000  2.000000  2.000000  2.000000  2.000000  2.000000
                       2.000000  2.000000  2.000000  2.000000  2.000000  2.000000
                       2.000000  2.000000  2.000000  2.000000  2.000000  2.000000
                       2.000000  2.000000  2.000000  2.000000  2.000000  2.000000
                       2.000000  2.000000  2.000000  2.000000  2.000000  2.000000
                       2.000000  2.000000  2.000000  2.000000  2.000000  2.000000
                       0.000000  0.000000  0.000000  0.000000  0.000000  0.000000
            rprim      1.2215289848E-02  7.0184956085E-01  7.1222045788E-01
                       7.0710678119E-01  0.0000000000E+00  7.0710678119E-01
                       7.1222045788E-01  7.0184956085E-01  1.2215289848E-02
          spgroup          44
           strten      5.7598293475E-05  6.0145394368E-05  5.7598293475E-05
                       0.0000000000E+00 -2.6940418916E-07  0.0000000000E+00
           symrel      1  0  0   0  1  0   0  0  1       0  1 -1   0  1  0  -1  1  0
                       0  0 -1   0 -1  0  -1  0  0       1 -1  0   0 -1  0   0 -1  1
           toldfe      1.00000000E-08 Hartree
            typat      1  1  2  4  2  4  4  4  3
          usefock           1
              wtk        0.12500    0.25000    0.25000    0.25000    0.12500
           xangst      2.9441207046E+00  2.7679537435E+00  2.8620131520E+00
                       8.7502545612E+00  8.4822710288E+00  8.6681470086E+00
                       5.7355778468E+00  5.6251123861E+00  2.9399014166E+00
                       5.9264410096E+00  5.6251123861E+00  8.9632648100E+00
                       8.6723662966E+00  5.6251123861E+00  5.8766898664E+00
                       5.8399502965E+00  8.7830562641E+00  5.7723174167E+00
                       5.8399502965E+00  2.4671685081E+00  5.7723174167E+00
                       2.6490029032E+00  5.6251123861E+00  5.6858267036E+00
                       9.1406938007E-02  2.1274389311E-17 -9.1406938007E-02
            xcart      5.5635818338E+00  5.2306745236E+00  5.4084210461E+00
                       1.6535584714E+01  1.6029169229E+01  1.6380423926E+01
                       1.0838671344E+01  1.0629921876E+01  5.5556085351E+00
                       1.1199350451E+01  1.0629921876E+01  1.6938115747E+01
                       1.6388397225E+01  1.0629921876E+01  1.1105334415E+01
                       1.1035906690E+01  1.6597570949E+01  1.0908099070E+01
                       1.1035906690E+01  4.6622728041E+00  1.0908099070E+01
                       5.0058900122E+00  1.0629921876E+01  1.0744655309E+01
                       1.7273407948E-01  4.0202769442E-17 -1.7273407948E-01
             xred      2.3871788396E-01  2.5396458297E-01  2.5335295009E-01
                       7.4664704991E-01  7.4603541703E-01  7.6128211604E-01
                       2.5084563981E-01  2.4709604340E-01  7.4915436019E-01
                       7.7064573097E-01  7.8223928240E-01  2.2935426903E-01
                       2.5084563981E-01  7.5290395660E-01  7.4915436019E-01
                       7.7467298297E-01  2.1929948584E-01  7.8672804535E-01
                       2.1327195465E-01  7.8070051416E-01  2.2532701703E-01
                       7.7064573097E-01  2.1776071760E-01  2.2935426903E-01
                      -1.6292613058E-02 -1.1789765272E-18  1.6292613058E-02
            znucl       55.00000   53.00000   40.00000   17.00000

================================================================================


- Timing analysis has been suppressed with timopt=0



================================================================================

 Suggested references for the acknowledgment of ABINIT usage.

 The users of ABINIT have little formal obligations with respect to the ABINIT group
 (those specified in the GNU General Public License, http://www.gnu.org/copyleft/gpl.txt).
 However, it is common practice in the scientific literature,
 to acknowledge the efforts of people that have made the research possible.
 In this spirit, please find below suggested citations of work written by ABINIT developers,
 corresponding to implementations inside of ABINIT that you have used in the present run.
 Note also that it will be of great value to readers of publications presenting these results,
 to read papers enabling them to understand the theoretical formalism and details
 of the ABINIT implementation.
 For information on why they are suggested, see also https://docs.abinit.org/theory/acknowledgments.
-
- [1] Libxc: A library of exchange and correlation functionals for density functional theory.
- M.A.L. Marques, M.J.T. Oliveira, T. Burnus, Computer Physics Communications 183, 2227 (2012).
- Comment: to be cited when LibXC is used (negative value of ixc)
- Strong suggestion to cite this paper.
- DOI and bibtex: see https://docs.abinit.org/theory/bibliography/#marques2012
-
- [2] The Abinit project: Impact, environment and recent developments.
- Computer Phys. Comm. 248, 107042 (2020).
- X.Gonze, B. Amadon, G. Antonius, F.Arnardi, L.Baguet, J.-M.Beuken,
- J.Bieder, F.Bottin, J.Bouchet, E.Bousquet, N.Brouwer, F.Bruneval,
- G.Brunin, T.Cavignac, J.-B. Charraud, Wei Chen, M.Cote, S.Cottenier,
- J.Denier, G.Geneste, Ph.Ghosez, M.Giantomassi, Y.Gillet, O.Gingras,
- D.R.Hamann, G.Hautier, Xu He, N.Helbig, N.Holzwarth, Y.Jia, F.Jollet,
- W.Lafargue-Dit-Hauret, K.Lejaeghere, M.A.L.Marques, A.Martin, C.Martins,
- H.P.C. Miranda, F.Naccarato, K. Persson, G.Petretto, V.Planes, Y.Pouillon,
- S.Prokhorenko, F.Ricci, G.-M.Rignanese, A.H.Romero, M.M.Schmitt, M.Torrent,
- M.J.van Setten, B.Van Troeye, M.J.Verstraete, G.Zerah and J.W.Zwanzig
- Comment: the fifth generic paper describing the ABINIT project.
- Note that a version of this paper, that is not formatted for Computer Phys. Comm. 
- is available at https://www.abinit.org/sites/default/files/ABINIT20.pdf .
- The licence allows the authors to put it on the Web.
- DOI and bibtex: see https://docs.abinit.org/theory/bibliography/#gonze2020
-
- [3] Optimized norm-conserving Vanderbilt pseudopotentials.
- D.R. Hamann, Phys. Rev. B 88, 085117 (2013).
- Comment: Some pseudopotential generated using the ONCVPSP code were used.
- DOI and bibtex: see https://docs.abinit.org/theory/bibliography/#hamann2013
-
- [4] ABINIT: Overview, and focus on selected capabilities
- J. Chem. Phys. 152, 124102 (2020).
- A. Romero, D.C. Allan, B. Amadon, G. Antonius, T. Applencourt, L.Baguet,
- J.Bieder, F.Bottin, J.Bouchet, E.Bousquet, F.Bruneval,
- G.Brunin, D.Caliste, M.Cote,
- J.Denier, C. Dreyer, Ph.Ghosez, M.Giantomassi, Y.Gillet, O.Gingras,
- D.R.Hamann, G.Hautier, F.Jollet, G. Jomard,
- A.Martin, 
- H.P.C. Miranda, F.Naccarato, G.Petretto, N.A. Pike, V.Planes,
- S.Prokhorenko, T. Rangel, F.Ricci, G.-M.Rignanese, M.Royo, M.Stengel, M.Torrent,
- M.J.van Setten, B.Van Troeye, M.J.Verstraete, J.Wiktor, J.W.Zwanziger, and X.Gonze.
- Comment: a global overview of ABINIT, with focus on selected capabilities .
- Note that a version of this paper, that is not formatted for J. Chem. Phys 
- is available at https://www.abinit.org/sites/default/files/ABINIT20_JPC.pdf .
- The licence allows the authors to put it on the Web.
- DOI and bibtex: see https://docs.abinit.org/theory/bibliography/#romero2020
-
- [5] Recent developments in the ABINIT software package.
- Computer Phys. Comm. 205, 106 (2016).
- X.Gonze, F.Jollet, F.Abreu Araujo, D.Adams, B.Amadon, T.Applencourt,
- C.Audouze, J.-M.Beuken, J.Bieder, A.Bokhanchuk, E.Bousquet, F.Bruneval
- D.Caliste, M.Cote, F.Dahm, F.Da Pieve, M.Delaveau, M.Di Gennaro,
- B.Dorado, C.Espejo, G.Geneste, L.Genovese, A.Gerossier, M.Giantomassi,
- Y.Gillet, D.R.Hamann, L.He, G.Jomard, J.Laflamme Janssen, S.Le Roux,
- A.Levitt, A.Lherbier, F.Liu, I.Lukacevic, A.Martin, C.Martins,
- M.J.T.Oliveira, S.Ponce, Y.Pouillon, T.Rangel, G.-M.Rignanese,
- A.H.Romero, B.Rousseau, O.Rubel, A.A.Shukri, M.Stankovski, M.Torrent,
- M.J.Van Setten, B.Van Troeye, M.J.Verstraete, D.Waroquier, J.Wiktor,
- B.Xu, A.Zhou, J.W.Zwanziger.
- Comment: the fourth generic paper describing the ABINIT project.
- Note that a version of this paper, that is not formatted for Computer Phys. Comm. 
- is available at https://www.abinit.org/sites/default/files/ABINIT16.pdf .
- The licence allows the authors to put it on the Web.
- DOI and bibtex: see https://docs.abinit.org/theory/bibliography/#gonze2016
-
- Proc.   0 individual time (sec): cpu=       6903.1  wall=       6913.5

================================================================================

 Calculation completed.
.Delivered   0 WARNINGs and   0 COMMENTs to log file.
+Overall time at end (sec) : cpu=      27623.4  wall=      27654.0
