
.Version 9.2.2 of ABINIT 
.(MPI version, prepared for a x86_64_linux_gnu9.3 computer) 

.Copyright (C) 1998-2020 ABINIT group . 
 ABINIT comes with ABSOLUTELY NO WARRANTY.
 It is free software, and you are welcome to redistribute it
 under certain conditions (GNU General Public License,
 see ~abinit/COPYING or http://www.gnu.org/copyleft/gpl.txt).

 ABINIT is a project of the Universite Catholique de Louvain,
 Corning Inc. and other collaborators, see ~abinit/doc/developers/contributors.txt .
 Please read https://docs.abinit.org/theory/acknowledgments for suggested
 acknowledgments of the ABINIT effort.
 For more information, see https://www.abinit.org .

.Starting date : Mon  5 Sep 2022.
- ( at 10h21 )
  
- input  file    -> Cs2TiI6.in
- output file    -> Cs2TiI6.out
- root for input  files -> Cs2TiI6i
- root for output files -> Cs2TiI6o

- inpspheads : Reading pseudopotential header in XML form from 
-   ../../../Psps_for_tests/ATOMICDATA/Cs.GGA_PBE-JTH.xml
- inpspheads : Reading pseudopotential header in XML form from 
-   ../../../Psps_for_tests/ATOMICDATA/I.GGA_PBE-JTH.xml
- inpspheads : Reading pseudopotential header in XML form from 
-   ../../../Psps_for_tests/ATOMICDATA/Hf.GGA_PBE-JTH.xml

 DATASET    1 : space group Fm -3 m (#225); Bravais cF (face-center cubic)
================================================================================
 Values of the parameters that define the memory need for DATASET  1.
     intxc =       0    ionmov =       0      iscf =      17    lmnmax =      18
     lnmax =       6     mgfft =      30  mpssoang =       3    mqgrid =    3001
     natom =       9  nloc_mem =       2    nspden =       1   nspinor =       1
    nsppol =       1      nsym =      48    n1xccc =       1    ntypat =       3
    occopt =       1   xclevel =       2
-    mband =          42        mffmem =           1         mkmem =           2
       mpw =        1084          nfft =       27000          nkpt =           8
Pmy_natom=         3
 PAW method is used; the additional fine FFT grid is defined by:
   mgfftf=        48    nfftf =    110592
================================================================================
P This job should need less than                      36.021 Mbytes of memory.
  Rough estimation (10% accuracy) of disk space for files :
_ WF disk file :      5.560 Mbytes ; DEN or POT disk file :      0.846 Mbytes.
================================================================================


 DATASET    2 : space group Fm -3 m (#225); Bravais cF (face-center cubic)
================================================================================
 Values of the parameters that define the memory need for DATASET  2.
     intxc =       0    ionmov =       0      iscf =      17    lmnmax =      18
     lnmax =       6     mgfft =      32  mpssoang =       3    mqgrid =    3001
     natom =       9  nloc_mem =       2    nspden =       1   nspinor =       1
    nsppol =       1      nsym =      48    n1xccc =       1    ntypat =       3
    occopt =       1   xclevel =       2
-    mband =          42        mffmem =           1         mkmem =           2
       mpw =        1540          nfft =       32768          nkpt =           8
Pmy_natom=         3
 PAW method is used; the additional fine FFT grid is defined by:
   mgfftf=        54    nfftf =    157464
================================================================================
P This job should need less than                      48.734 Mbytes of memory.
  Rough estimation (10% accuracy) of disk space for files :
_ WF disk file :      7.898 Mbytes ; DEN or POT disk file :      1.203 Mbytes.
================================================================================


 DATASET    3 : space group Fm -3 m (#225); Bravais cF (face-center cubic)
================================================================================
 Values of the parameters that define the memory need for DATASET  3.
     intxc =       0    ionmov =       0      iscf =      17    lmnmax =      18
     lnmax =       6     mgfft =      36  mpssoang =       3    mqgrid =    3001
     natom =       9  nloc_mem =       2    nspden =       1   nspinor =       1
    nsppol =       1      nsym =      48    n1xccc =       1    ntypat =       3
    occopt =       1   xclevel =       2
-    mband =          42        mffmem =           1         mkmem =           2
       mpw =        1996          nfft =       46656          nkpt =           8
Pmy_natom=         3
 PAW method is used; the additional fine FFT grid is defined by:
   mgfftf=        60    nfftf =    216000
================================================================================
P This job should need less than                      65.440 Mbytes of memory.
  Rough estimation (10% accuracy) of disk space for files :
_ WF disk file :     10.235 Mbytes ; DEN or POT disk file :      1.650 Mbytes.
================================================================================


 DATASET    4 : space group Fm -3 m (#225); Bravais cF (face-center cubic)
================================================================================
 Values of the parameters that define the memory need for DATASET  4.
     intxc =       0    ionmov =       0      iscf =      17    lmnmax =      18
     lnmax =       6     mgfft =      40  mpssoang =       3    mqgrid =    3001
     natom =       9  nloc_mem =       2    nspden =       1   nspinor =       1
    nsppol =       1      nsym =      48    n1xccc =       1    ntypat =       3
    occopt =       1   xclevel =       2
-    mband =          42        mffmem =           1         mkmem =           2
       mpw =        2502          nfft =       64000          nkpt =           8
Pmy_natom=         3
 PAW method is used; the additional fine FFT grid is defined by:
   mgfftf=        60    nfftf =    216000
================================================================================
P This job should need less than                      68.754 Mbytes of memory.
  Rough estimation (10% accuracy) of disk space for files :
_ WF disk file :     12.830 Mbytes ; DEN or POT disk file :      1.650 Mbytes.
================================================================================


 DATASET    5 : space group Fm -3 m (#225); Bravais cF (face-center cubic)
================================================================================
 Values of the parameters that define the memory need for DATASET  5.
     intxc =       0    ionmov =       0      iscf =      17    lmnmax =      18
     lnmax =       6     mgfft =      45  mpssoang =       3    mqgrid =    3001
     natom =       9  nloc_mem =       2    nspden =       1   nspinor =       1
    nsppol =       1      nsym =      48    n1xccc =       1    ntypat =       3
    occopt =       1   xclevel =       2
-    mband =          42        mffmem =           1         mkmem =           2
       mpw =        3054          nfft =       91125          nkpt =           8
Pmy_natom=         3
 PAW method is used; the additional fine FFT grid is defined by:
   mgfftf=        64    nfftf =    262144
================================================================================
P This job should need less than                      84.607 Mbytes of memory.
  Rough estimation (10% accuracy) of disk space for files :
_ WF disk file :     15.660 Mbytes ; DEN or POT disk file :      2.002 Mbytes.
================================================================================


 DATASET    6 : space group Fm -3 m (#225); Bravais cF (face-center cubic)
================================================================================
 Values of the parameters that define the memory need for DATASET  6.
     intxc =       0    ionmov =       0      iscf =      17    lmnmax =      18
     lnmax =       6     mgfft =      45  mpssoang =       3    mqgrid =    3001
     natom =       9  nloc_mem =       2    nspden =       1   nspinor =       1
    nsppol =       1      nsym =      48    n1xccc =       1    ntypat =       3
    occopt =       1   xclevel =       2
-    mband =          42        mffmem =           1         mkmem =           2
       mpw =        3644          nfft =       91125          nkpt =           8
Pmy_natom=         3
 PAW method is used; the additional fine FFT grid is defined by:
   mgfftf=        72    nfftf =    373248
================================================================================
P This job should need less than                     111.981 Mbytes of memory.
  Rough estimation (10% accuracy) of disk space for files :
_ WF disk file :     18.685 Mbytes ; DEN or POT disk file :      2.850 Mbytes.
================================================================================


 DATASET    7 : space group Fm -3 m (#225); Bravais cF (face-center cubic)
================================================================================
 Values of the parameters that define the memory need for DATASET  7.
     intxc =       0    ionmov =       0      iscf =      17    lmnmax =      18
     lnmax =       6     mgfft =      48  mpssoang =       3    mqgrid =    3001
     natom =       9  nloc_mem =       2    nspden =       1   nspinor =       1
    nsppol =       1      nsym =      48    n1xccc =       1    ntypat =       3
    occopt =       1   xclevel =       2
-    mband =          42        mffmem =           1         mkmem =           2
       mpw =        4260          nfft =      110592          nkpt =           8
Pmy_natom=         3
 PAW method is used; the additional fine FFT grid is defined by:
   mgfftf=        72    nfftf =    373248
================================================================================
P This job should need less than                     115.768 Mbytes of memory.
  Rough estimation (10% accuracy) of disk space for files :
_ WF disk file :     21.843 Mbytes ; DEN or POT disk file :      2.850 Mbytes.
================================================================================


 DATASET    8 : space group Fm -3 m (#225); Bravais cF (face-center cubic)
================================================================================
 Values of the parameters that define the memory need for DATASET  8.
     intxc =       0    ionmov =       0      iscf =      17    lmnmax =      18
     lnmax =       6     mgfft =      48  mpssoang =       3    mqgrid =    3055
     natom =       9  nloc_mem =       2    nspden =       1   nspinor =       1
    nsppol =       1      nsym =      48    n1xccc =       1    ntypat =       3
    occopt =       1   xclevel =       2
-    mband =          42        mffmem =           1         mkmem =           2
       mpw =        4916          nfft =      110592          nkpt =           8
Pmy_natom=         3
 PAW method is used; the additional fine FFT grid is defined by:
   mgfftf=        80    nfftf =    512000
================================================================================
P This job should need less than                     149.840 Mbytes of memory.
  Rough estimation (10% accuracy) of disk space for files :
_ WF disk file :     25.206 Mbytes ; DEN or POT disk file :      3.908 Mbytes.
================================================================================


 DATASET    9 : space group Fm -3 m (#225); Bravais cF (face-center cubic)
================================================================================
 Values of the parameters that define the memory need for DATASET  9.
     intxc =       0    ionmov =       0      iscf =      17    lmnmax =      18
     lnmax =       6     mgfft =      50  mpssoang =       3    mqgrid =    3191
     natom =       9  nloc_mem =       2    nspden =       1   nspinor =       1
    nsppol =       1      nsym =      48    n1xccc =       1    ntypat =       3
    occopt =       1   xclevel =       2
-    mband =          42        mffmem =           1         mkmem =           2
       mpw =        5609          nfft =      125000          nkpt =           8
Pmy_natom=         3
 PAW method is used; the additional fine FFT grid is defined by:
   mgfftf=        80    nfftf =    512000
================================================================================
P This job should need less than                     153.004 Mbytes of memory.
  Rough estimation (10% accuracy) of disk space for files :
_ WF disk file :     28.759 Mbytes ; DEN or POT disk file :      3.908 Mbytes.
================================================================================


 DATASET   10 : space group Fm -3 m (#225); Bravais cF (face-center cubic)
================================================================================
 Values of the parameters that define the memory need for DATASET 10.
     intxc =       0    ionmov =       0      iscf =      17    lmnmax =      18
     lnmax =       6     mgfft =      54  mpssoang =       3    mqgrid =    3321
     natom =       9  nloc_mem =       2    nspden =       1   nspinor =       1
    nsppol =       1      nsym =      48    n1xccc =       1    ntypat =       3
    occopt =       1   xclevel =       2
-    mband =          42        mffmem =           1         mkmem =           2
       mpw =        6317          nfft =      157464          nkpt =           8
Pmy_natom=         3
 PAW method is used; the additional fine FFT grid is defined by:
   mgfftf=        90    nfftf =    729000
================================================================================
P This job should need less than                     210.662 Mbytes of memory.
  Rough estimation (10% accuracy) of disk space for files :
_ WF disk file :     32.389 Mbytes ; DEN or POT disk file :      5.564 Mbytes.
================================================================================


 DATASET   11 : space group Fm -3 m (#225); Bravais cF (face-center cubic)
================================================================================
 Values of the parameters that define the memory need for DATASET 11.
     intxc =       0    ionmov =       0      iscf =      17    lmnmax =      18
     lnmax =       6     mgfft =      54  mpssoang =       3    mqgrid =    3447
     natom =       9  nloc_mem =       2    nspden =       1   nspinor =       1
    nsppol =       1      nsym =      48    n1xccc =       1    ntypat =       3
    occopt =       1   xclevel =       2
-    mband =          42        mffmem =           1         mkmem =           2
       mpw =        7075          nfft =      157464          nkpt =           8
Pmy_natom=         3
 PAW method is used; the additional fine FFT grid is defined by:
   mgfftf=        90    nfftf =    729000
================================================================================
P This job should need less than                     211.774 Mbytes of memory.
  Rough estimation (10% accuracy) of disk space for files :
_ WF disk file :     36.275 Mbytes ; DEN or POT disk file :      5.564 Mbytes.
================================================================================


 DATASET   12 : space group Fm -3 m (#225); Bravais cF (face-center cubic)
================================================================================
 Values of the parameters that define the memory need for DATASET 12.
     intxc =       0    ionmov =       0      iscf =      17    lmnmax =      18
     lnmax =       6     mgfft =      60  mpssoang =       3    mqgrid =    3568
     natom =       9  nloc_mem =       2    nspden =       1   nspinor =       1
    nsppol =       1      nsym =      48    n1xccc =       1    ntypat =       3
    occopt =       1   xclevel =       2
-    mband =          42        mffmem =           1         mkmem =           2
       mpw =        7848          nfft =      216000          nkpt =           8
Pmy_natom=         3
 PAW method is used; the additional fine FFT grid is defined by:
   mgfftf=        90    nfftf =    729000
================================================================================
P This job should need less than                     221.619 Mbytes of memory.
  Rough estimation (10% accuracy) of disk space for files :
_ WF disk file :     40.238 Mbytes ; DEN or POT disk file :      5.564 Mbytes.
================================================================================


 DATASET   13 : space group Fm -3 m (#225); Bravais cF (face-center cubic)
================================================================================
 Values of the parameters that define the memory need for DATASET 13.
     intxc =       0    ionmov =       0      iscf =      17    lmnmax =      18
     lnmax =       6     mgfft =      60  mpssoang =       3    mqgrid =    3685
     natom =       9  nloc_mem =       2    nspden =       1   nspinor =       1
    nsppol =       1      nsym =      48    n1xccc =       1    ntypat =       3
    occopt =       1   xclevel =       2
-    mband =          42        mffmem =           1         mkmem =           2
       mpw =        8627          nfft =      216000          nkpt =           8
Pmy_natom=         3
 PAW method is used; the additional fine FFT grid is defined by:
   mgfftf=        96    nfftf =    884736
================================================================================
P This job should need less than                     259.921 Mbytes of memory.
  Rough estimation (10% accuracy) of disk space for files :
_ WF disk file :     44.232 Mbytes ; DEN or POT disk file :      6.752 Mbytes.
================================================================================


 DATASET   14 : space group Fm -3 m (#225); Bravais cF (face-center cubic)
================================================================================
 Values of the parameters that define the memory need for DATASET 14.
     intxc =       0    ionmov =       0      iscf =      17    lmnmax =      18
     lnmax =       6     mgfft =      60  mpssoang =       3    mqgrid =    3798
     natom =       9  nloc_mem =       2    nspden =       1   nspinor =       1
    nsppol =       1      nsym =      48    n1xccc =       1    ntypat =       3
    occopt =       1   xclevel =       2
-    mband =          42        mffmem =           1         mkmem =           2
       mpw =        9453          nfft =      216000          nkpt =           8
Pmy_natom=         3
 PAW method is used; the additional fine FFT grid is defined by:
   mgfftf=        96    nfftf =    884736
================================================================================
P This job should need less than                     261.129 Mbytes of memory.
  Rough estimation (10% accuracy) of disk space for files :
_ WF disk file :     48.467 Mbytes ; DEN or POT disk file :      6.752 Mbytes.
================================================================================


 DATASET   15 : space group Fm -3 m (#225); Bravais cF (face-center cubic)
================================================================================
 Values of the parameters that define the memory need for DATASET 15.
     intxc =       0    ionmov =       0      iscf =      17    lmnmax =      18
     lnmax =       6     mgfft =      64  mpssoang =       3    mqgrid =    3908
     natom =       9  nloc_mem =       2    nspden =       1   nspinor =       1
    nsppol =       1      nsym =      48    n1xccc =       1    ntypat =       3
    occopt =       1   xclevel =       2
-    mband =          42        mffmem =           1         mkmem =           2
       mpw =       10284          nfft =      262144          nkpt =           8
Pmy_natom=         3
 PAW method is used; the additional fine FFT grid is defined by:
   mgfftf=        96    nfftf =    884736
================================================================================
P This job should need less than                     269.211 Mbytes of memory.
  Rough estimation (10% accuracy) of disk space for files :
_ WF disk file :     52.728 Mbytes ; DEN or POT disk file :      6.752 Mbytes.
================================================================================


 DATASET   16 : space group Fm -3 m (#225); Bravais cF (face-center cubic)
================================================================================
 Values of the parameters that define the memory need for DATASET 16.
     intxc =       0    ionmov =       0      iscf =      17    lmnmax =      18
     lnmax =       6     mgfft =      64  mpssoang =       3    mqgrid =    4015
     natom =       9  nloc_mem =       2    nspden =       1   nspinor =       1
    nsppol =       1      nsym =      48    n1xccc =       1    ntypat =       3
    occopt =       1   xclevel =       2
-    mband =          42        mffmem =           1         mkmem =           2
       mpw =       11152          nfft =      262144          nkpt =           8
Pmy_natom=         3
 PAW method is used; the additional fine FFT grid is defined by:
   mgfftf=       100    nfftf =   1000000
================================================================================
P This job should need less than                     297.981 Mbytes of memory.
  Rough estimation (10% accuracy) of disk space for files :
_ WF disk file :     57.178 Mbytes ; DEN or POT disk file :      7.631 Mbytes.
================================================================================


 DATASET   17 : space group Fm -3 m (#225); Bravais cF (face-center cubic)
================================================================================
 Values of the parameters that define the memory need for DATASET 17.
     intxc =       0    ionmov =       0      iscf =      17    lmnmax =      18
     lnmax =       6     mgfft =      64  mpssoang =       3    mqgrid =    4120
     natom =       9  nloc_mem =       2    nspden =       1   nspinor =       1
    nsppol =       1      nsym =      48    n1xccc =       1    ntypat =       3
    occopt =       1   xclevel =       2
-    mband =          42        mffmem =           1         mkmem =           2
       mpw =       12036          nfft =      262144          nkpt =           8
Pmy_natom=         3
 PAW method is used; the additional fine FFT grid is defined by:
   mgfftf=       108    nfftf =   1259712
================================================================================
P This job should need less than                     361.235 Mbytes of memory.
  Rough estimation (10% accuracy) of disk space for files :
_ WF disk file :     61.710 Mbytes ; DEN or POT disk file :      9.613 Mbytes.
================================================================================


 DATASET   18 : space group Fm -3 m (#225); Bravais cF (face-center cubic)
================================================================================
 Values of the parameters that define the memory need for DATASET 18.
     intxc =       0    ionmov =       0      iscf =      17    lmnmax =      18
     lnmax =       6     mgfft =      72  mpssoang =       3    mqgrid =    4221
     natom =       9  nloc_mem =       2    nspden =       1   nspinor =       1
    nsppol =       1      nsym =      48    n1xccc =       1    ntypat =       3
    occopt =       1   xclevel =       2
-    mband =          42        mffmem =           1         mkmem =           2
       mpw =       12967          nfft =      373248          nkpt =           8
Pmy_natom=         3
 PAW method is used; the additional fine FFT grid is defined by:
   mgfftf=       108    nfftf =   1259712
================================================================================
P This job should need less than                     379.128 Mbytes of memory.
  Rough estimation (10% accuracy) of disk space for files :
_ WF disk file :     66.483 Mbytes ; DEN or POT disk file :      9.613 Mbytes.
================================================================================


 DATASET   19 : space group Fm -3 m (#225); Bravais cF (face-center cubic)
================================================================================
 Values of the parameters that define the memory need for DATASET 19.
     intxc =       0    ionmov =       0      iscf =      17    lmnmax =      18
     lnmax =       6     mgfft =      72  mpssoang =       3    mqgrid =    4321
     natom =       9  nloc_mem =       2    nspden =       1   nspinor =       1
    nsppol =       1      nsym =      48    n1xccc =       1    ntypat =       3
    occopt =       1   xclevel =       2
-    mband =          42        mffmem =           1         mkmem =           2
       mpw =       13875          nfft =      373248          nkpt =           8
Pmy_natom=         3
 PAW method is used; the additional fine FFT grid is defined by:
   mgfftf=       108    nfftf =   1259712
================================================================================
P This job should need less than                     380.452 Mbytes of memory.
  Rough estimation (10% accuracy) of disk space for files :
_ WF disk file :     71.138 Mbytes ; DEN or POT disk file :      9.613 Mbytes.
================================================================================


 DATASET   20 : space group Fm -3 m (#225); Bravais cF (face-center cubic)
================================================================================
 Values of the parameters that define the memory need for DATASET 20.
     intxc =       0    ionmov =       0      iscf =      17    lmnmax =      18
     lnmax =       6     mgfft =      72  mpssoang =       3    mqgrid =    4418
     natom =       9  nloc_mem =       2    nspden =       1   nspinor =       1
    nsppol =       1      nsym =      48    n1xccc =       1    ntypat =       3
    occopt =       1   xclevel =       2
-    mband =          42        mffmem =           1         mkmem =           2
       mpw =       14856          nfft =      373248          nkpt =           8
Pmy_natom=         3
 PAW method is used; the additional fine FFT grid is defined by:
   mgfftf=       120    nfftf =   1728000
================================================================================
P This job should need less than                     493.599 Mbytes of memory.
  Rough estimation (10% accuracy) of disk space for files :
_ WF disk file :     76.168 Mbytes ; DEN or POT disk file :     13.186 Mbytes.
================================================================================

--------------------------------------------------------------------------------
------------- Echo of variables that govern the present computation ------------
--------------------------------------------------------------------------------
-
- outvars: echo of selected default values                                      
-   iomode0 =  0 , fftalg0 =112 , wfoptalg0 = 10
-
- outvars: echo of global parameters not present in the input file              
-  max_nthreads =    0
-
 -outvars: echo values of preprocessed input variables --------
            acell      2.2413663327E+01  2.2413663327E+01  2.2413663327E+01 Bohr
              amu      1.32905430E+02  1.26904470E+02  1.78490000E+02
           diemac      1.20000000E+01
             ecut1     4.00000000E+00 Hartree
             ecut2     5.00000000E+00 Hartree
             ecut3     6.00000000E+00 Hartree
             ecut4     7.00000000E+00 Hartree
             ecut5     8.00000000E+00 Hartree
             ecut6     9.00000000E+00 Hartree
             ecut7     1.00000000E+01 Hartree
             ecut8     1.10000000E+01 Hartree
             ecut9     1.20000000E+01 Hartree
             ecut10    1.30000000E+01 Hartree
             ecut11    1.40000000E+01 Hartree
             ecut12    1.50000000E+01 Hartree
             ecut13    1.60000000E+01 Hartree
             ecut14    1.70000000E+01 Hartree
             ecut15    1.80000000E+01 Hartree
             ecut16    1.90000000E+01 Hartree
             ecut17    2.00000000E+01 Hartree
             ecut18    2.10000000E+01 Hartree
             ecut19    2.20000000E+01 Hartree
             ecut20    2.30000000E+01 Hartree
-          fftalg         112
           istwfk        2    0    3    0    0    0    7    0
              ixc     -101130
           jdtset        1    2    3    4    5    6    7    8    9   10
                        11   12   13   14   15   16   17   18   19   20
              kpt      0.00000000E+00  0.00000000E+00  0.00000000E+00
                       2.50000000E-01  0.00000000E+00  0.00000000E+00
                       5.00000000E-01  0.00000000E+00  0.00000000E+00
                       2.50000000E-01  2.50000000E-01  0.00000000E+00
                       5.00000000E-01  2.50000000E-01  0.00000000E+00
                      -2.50000000E-01  2.50000000E-01  0.00000000E+00
                       5.00000000E-01  5.00000000E-01  0.00000000E+00
                      -2.50000000E-01  5.00000000E-01  2.50000000E-01
         kptrlatt        4    0    0      0    4    0      0    0    4
          kptrlen      6.33954133E+01
P           mkmem           2
            natom           9
            nband          42
           ndtset          20
            ngfft1         30      30      30
            ngfft2         32      32      32
            ngfft3         36      36      36
            ngfft4         40      40      40
            ngfft5         45      45      45
            ngfft6         45      45      45
            ngfft7         48      48      48
            ngfft8         48      48      48
            ngfft9         50      50      50
            ngfft10        54      54      54
            ngfft11        54      54      54
            ngfft12        60      60      60
            ngfft13        60      60      60
            ngfft14        60      60      60
            ngfft15        64      64      64
            ngfft16        64      64      64
            ngfft17        64      64      64
            ngfft18        72      72      72
            ngfft19        72      72      72
            ngfft20        72      72      72
          ngfftdg1         48      48      48
          ngfftdg2         54      54      54
          ngfftdg3         60      60      60
          ngfftdg4         60      60      60
          ngfftdg5         64      64      64
          ngfftdg6         72      72      72
          ngfftdg7         72      72      72
          ngfftdg8         80      80      80
          ngfftdg9         80      80      80
          ngfftdg10        90      90      90
          ngfftdg11        90      90      90
          ngfftdg12        90      90      90
          ngfftdg13        96      96      96
          ngfftdg14        96      96      96
          ngfftdg15        96      96      96
          ngfftdg16       100     100     100
          ngfftdg17       108     108     108
          ngfftdg18       108     108     108
          ngfftdg19       108     108     108
          ngfftdg20       120     120     120
             nkpt           8
            nstep        2500
             nsym          48
           ntypat           3
              occ      2.000000  2.000000  2.000000  2.000000  2.000000  2.000000
                       2.000000  2.000000  2.000000  2.000000  2.000000  2.000000
                       2.000000  2.000000  2.000000  2.000000  2.000000  2.000000
                       2.000000  2.000000  2.000000  2.000000  2.000000  2.000000
                       2.000000  2.000000  2.000000  2.000000  2.000000  2.000000
                       2.000000  2.000000  2.000000  2.000000  2.000000  2.000000
                       0.000000  0.000000  0.000000  0.000000  0.000000  0.000000
        pawecutdg1     1.00000000E+01 Hartree
        pawecutdg2     1.25000000E+01 Hartree
        pawecutdg3     1.50000000E+01 Hartree
        pawecutdg4     1.75000000E+01 Hartree
        pawecutdg5     2.00000000E+01 Hartree
        pawecutdg6     2.25000000E+01 Hartree
        pawecutdg7     2.50000000E+01 Hartree
        pawecutdg8     2.75000000E+01 Hartree
        pawecutdg9     3.00000000E+01 Hartree
        pawecutdg10    3.25000000E+01 Hartree
        pawecutdg11    3.50000000E+01 Hartree
        pawecutdg12    3.75000000E+01 Hartree
        pawecutdg13    4.00000000E+01 Hartree
        pawecutdg14    4.25000000E+01 Hartree
        pawecutdg15    4.50000000E+01 Hartree
        pawecutdg16    4.75000000E+01 Hartree
        pawecutdg17    5.00000000E+01 Hartree
        pawecutdg18    5.25000000E+01 Hartree
        pawecutdg19    5.50000000E+01 Hartree
        pawecutdg20    5.75000000E+01 Hartree
            prtwf           0
            rprim      0.0000000000E+00  5.0000000000E-01  5.0000000000E-01
                       5.0000000000E-01  0.0000000000E+00  5.0000000000E-01
                       5.0000000000E-01  5.0000000000E-01  0.0000000000E+00
          spgroup         225
           symrel      1  0  0   0  1  0   0  0  1      -1  0  0   0 -1  0   0  0 -1
                       0 -1  1   0 -1  0   1 -1  0       0  1 -1   0  1  0  -1  1  0
                      -1  0  0  -1  0  1  -1  1  0       1  0  0   1  0 -1   1 -1  0
                       0  1 -1   1  0 -1   0  0 -1       0 -1  1  -1  0  1   0  0  1
                      -1  0  0  -1  1  0  -1  0  1       1  0  0   1 -1  0   1  0 -1
                       0 -1  1   1 -1  0   0 -1  0       0  1 -1  -1  1  0   0  1  0
                       1  0  0   0  0  1   0  1  0      -1  0  0   0  0 -1   0 -1  0
                       0  1 -1   0  0 -1   1  0 -1       0 -1  1   0  0  1  -1  0  1
                      -1  0  1  -1  1  0  -1  0  0       1  0 -1   1 -1  0   1  0  0
                       0 -1  0   1 -1  0   0 -1  1       0  1  0  -1  1  0   0  1 -1
                       1  0 -1   0  0 -1   0  1 -1      -1  0  1   0  0  1   0 -1  1
                       0  1  0   0  0  1   1  0  0       0 -1  0   0  0 -1  -1  0  0
                       1  0 -1   0  1 -1   0  0 -1      -1  0  1   0 -1  1   0  0  1
                       0 -1  0   0 -1  1   1 -1  0       0  1  0   0  1 -1  -1  1  0
                      -1  0  1  -1  0  0  -1  1  0       1  0 -1   1  0  0   1 -1  0
                       0  1  0   1  0  0   0  0  1       0 -1  0  -1  0  0   0  0 -1
                       0  0 -1   0  1 -1   1  0 -1       0  0  1   0 -1  1  -1  0  1
                       1 -1  0   0 -1  1   0 -1  0      -1  1  0   0  1 -1   0  1  0
                       0  0  1   1  0  0   0  1  0       0  0 -1  -1  0  0   0 -1  0
                      -1  1  0  -1  0  0  -1  0  1       1 -1  0   1  0  0   1  0 -1
                       0  0  1   0  1  0   1  0  0       0  0 -1   0 -1  0  -1  0  0
                       1 -1  0   0 -1  0   0 -1  1      -1  1  0   0  1  0   0  1 -1
                       0  0 -1   1  0 -1   0  1 -1       0  0  1  -1  0  1   0 -1  1
                      -1  1  0  -1  0  1  -1  0  0       1 -1  0   1  0 -1   1  0  0
           toldfe      1.00000000E-06 Hartree
            typat      1  1  2  2  2  2  2  2  3
           useylm           1
              wtk        0.01563    0.12500    0.06250    0.09375    0.37500    0.18750
                         0.04688    0.09375
           xangst      2.9651999484E+00  2.9651999484E+00  2.9651999484E+00
                       8.8955998452E+00  8.8955998452E+00  8.8955998452E+00
                       5.9303998968E+00  9.0321769548E+00  5.9303998968E+00
                       5.9303998968E+00  5.9303998968E+00  2.8286228388E+00
                       5.9303998968E+00  5.9303998968E+00  9.0321769548E+00
                       5.9303998968E+00  2.8286228388E+00  5.9303998968E+00
                       9.0321769548E+00  5.9303998968E+00  5.9303998968E+00
                       2.8286228388E+00  5.9303998968E+00  5.9303998968E+00
                       0.0000000000E+00  0.0000000000E+00  0.0000000000E+00
            xcart      5.6034158317E+00  5.6034158317E+00  5.6034158317E+00
                       1.6810247495E+01  1.6810247495E+01  1.6810247495E+01
                       1.1206831663E+01  1.7068340828E+01  1.1206831663E+01
                       1.1206831663E+01  1.1206831663E+01  5.3453224985E+00
                       1.1206831663E+01  1.1206831663E+01  1.7068340828E+01
                       1.1206831663E+01  5.3453224985E+00  1.1206831663E+01
                       1.7068340828E+01  1.1206831663E+01  1.1206831663E+01
                       5.3453224985E+00  1.1206831663E+01  1.1206831663E+01
                       0.0000000000E+00  0.0000000000E+00  0.0000000000E+00
             xred      2.5000000000E-01  2.5000000000E-01  2.5000000000E-01
                       7.5000000000E-01  7.5000000000E-01  7.5000000000E-01
                       7.6151500000E-01  2.3848500000E-01  7.6151500000E-01
                       2.3848500000E-01  2.3848500000E-01  7.6151500000E-01
                       7.6151500000E-01  7.6151500000E-01  2.3848500000E-01
                       2.3848500000E-01  7.6151500000E-01  2.3848500000E-01
                       2.3848500000E-01  7.6151500000E-01  7.6151500000E-01
                       7.6151500000E-01  2.3848500000E-01  2.3848500000E-01
                       0.0000000000E+00  0.0000000000E+00  0.0000000000E+00
            znucl       55.00000   53.00000   72.00000

================================================================================

 chkinp: Checking input parameters for consistency, jdtset=   1.

 chkinp: Checking input parameters for consistency, jdtset=   2.

 chkinp: Checking input parameters for consistency, jdtset=   3.

 chkinp: Checking input parameters for consistency, jdtset=   4.

 chkinp: Checking input parameters for consistency, jdtset=   5.

 chkinp: Checking input parameters for consistency, jdtset=   6.

 chkinp: Checking input parameters for consistency, jdtset=   7.

 chkinp: Checking input parameters for consistency, jdtset=   8.

 chkinp: Checking input parameters for consistency, jdtset=   9.

 chkinp: Checking input parameters for consistency, jdtset=  10.

 chkinp: Checking input parameters for consistency, jdtset=  11.

 chkinp: Checking input parameters for consistency, jdtset=  12.

 chkinp: Checking input parameters for consistency, jdtset=  13.

 chkinp: Checking input parameters for consistency, jdtset=  14.

 chkinp: Checking input parameters for consistency, jdtset=  15.

 chkinp: Checking input parameters for consistency, jdtset=  16.

 chkinp: Checking input parameters for consistency, jdtset=  17.

 chkinp: Checking input parameters for consistency, jdtset=  18.

 chkinp: Checking input parameters for consistency, jdtset=  19.

 chkinp: Checking input parameters for consistency, jdtset=  20.

================================================================================
== DATASET  1 ==================================================================
-   mpi_nproc: 4, omp_nthreads: -1 (-1 if OMP is not activated)


--- !DatasetInfo
iteration_state: {dtset: 1, }
dimensions: {natom: 9, nkpt: 8, mband: 42, nsppol: 1, nspinor: 1, nspden: 1, mpw: 1084, }
cutoff_energies: {ecut:   4.0, pawecutdg:  10.0, }
electrons: {nelect:   7.20000000E+01, charge:   0.00000000E+00, occopt:   1.00000000E+00, tsmear:   1.00000000E-02, }
meta: {optdriver: 0, ionmov: 0, optcell: 0, iscf: 17, paral_kgb: 0, }
...

 Real(R)+Recip(G) space primitive vectors, cartesian coordinates (Bohr,Bohr^-1):
 R(1)=  0.0000000 11.2068317 11.2068317  G(1)= -0.0446156  0.0446156  0.0446156
 R(2)= 11.2068317  0.0000000 11.2068317  G(2)=  0.0446156 -0.0446156  0.0446156
 R(3)= 11.2068317 11.2068317  0.0000000  G(3)=  0.0446156  0.0446156 -0.0446156
 Unit cell volume ucvol=  2.8150009E+03 bohr^3
 Angles (23,13,12)=  6.00000000E+01  6.00000000E+01  6.00000000E+01 degrees

 Coarse grid specifications (used for wave-functions):

 getcut: wavevector=  0.0000  0.0000  0.0000  ngfft=  30  30  30
         ecut(hartree)=      4.000   => boxcut(ratio)=   2.10480

 Fine grid specifications (used for densities):

 getcut: wavevector=  0.0000  0.0000  0.0000  ngfft=  48  48  48
         ecut(hartree)=     10.000   => boxcut(ratio)=   2.12754

--- Pseudopotential description ------------------------------------------------
- pspini: atom type   1  psp file is ../../../Psps_for_tests/ATOMICDATA/Cs.GGA_PBE-JTH.xml
- pspatm: opening atomic psp file    ../../../Psps_for_tests/ATOMICDATA/Cs.GGA_PBE-JTH.xml
- pspatm : Reading pseudopotential header in XML form from ../../../Psps_for_tests/ATOMICDATA/Cs.GGA_PBE-JTH.xml
 Pseudopotential format is: paw10
 basis_size (lnmax)=  6 (lmn_size= 18), orbitals=   0   0   1   1   2   2
 Spheres core radius: rc_sph= 2.20660278
 1 radial meshes are used:
  - mesh 1: r(i)=AA*[exp(BB*(i-1))-1], size=1500 , AA= 0.15922E-03 BB= 0.87573E-02
 Shapefunction is SIN type: shapef(r)=[sin(pi*r/rshp)/(pi*r/rshp)]**2
 Radius for shape functions =  2.00394208
 mmax= 1500
 Radial grid used for partial waves is grid 1
 Radial grid used for projectors is grid 1
 Radial grid used for (t)core density is grid 1
 Radial grid used for Vloc is grid 1
 Radial grid used for pseudo valence density is grid 1
 Mesh size for Vloc has been set to 1341 to avoid numerical noise.
 Compensation charge density is not taken into account in XC energy/potential
 pspatm: atomic psp has been read  and splines computed

- pspini: atom type   2  psp file is ../../../Psps_for_tests/ATOMICDATA/I.GGA_PBE-JTH.xml
- pspatm: opening atomic psp file    ../../../Psps_for_tests/ATOMICDATA/I.GGA_PBE-JTH.xml
- pspatm : Reading pseudopotential header in XML form from ../../../Psps_for_tests/ATOMICDATA/I.GGA_PBE-JTH.xml
 Pseudopotential format is: paw10
 basis_size (lnmax)=  4 (lmn_size=  8), orbitals=   0   0   1   1
 Spheres core radius: rc_sph= 2.30022271
 1 radial meshes are used:
  - mesh 1: r(i)=AA*[exp(BB*(i-1))-1], size=2000 , AA= 0.12610E-03 BB= 0.66836E-02
 Shapefunction is SIN type: shapef(r)=[sin(pi*r/rshp)/(pi*r/rshp)]**2
 Radius for shape functions =  2.10879093
 mmax= 2000
 Radial grid used for partial waves is grid 1
 Radial grid used for projectors is grid 1
 Radial grid used for (t)core density is grid 1
 Radial grid used for Vloc is grid 1
 Radial grid used for pseudo valence density is grid 1
 Mesh size for Vloc has been set to 1792 to avoid numerical noise.
 Compensation charge density is not taken into account in XC energy/potential
 pspatm: atomic psp has been read  and splines computed

- pspini: atom type   3  psp file is ../../../Psps_for_tests/ATOMICDATA/Hf.GGA_PBE-JTH.xml
- pspatm: opening atomic psp file    ../../../Psps_for_tests/ATOMICDATA/Hf.GGA_PBE-JTH.xml
- pspatm : Reading pseudopotential header in XML form from ../../../Psps_for_tests/ATOMICDATA/Hf.GGA_PBE-JTH.xml
 Pseudopotential format is: paw10
 basis_size (lnmax)=  6 (lmn_size= 18), orbitals=   0   0   1   1   2   2
 Spheres core radius: rc_sph= 2.41000000
 1 radial meshes are used:
  - mesh 1: r(i)=AA*[exp(BB*(i-1))-1], size= 972 , AA= 0.19796E-03 BB= 0.14253E-01
 Shapefunction is SIN type: shapef(r)=[sin(pi*r/rshp)/(pi*r/rshp)]**2
 Radius for shape functions =  2.41000000
 mmax=  972
 Radial grid used for partial waves is grid 1
 Radial grid used for projectors is grid 1
 Radial grid used for (t)core density is grid 1
 Radial grid used for Vloc is grid 1
 Radial grid used for pseudo valence density is grid 1
 Mesh size for Vloc has been set to  809 to avoid numerical noise.
 Compensation charge density is not taken into account in XC energy/potential
 pspatm: atomic psp has been read  and splines computed

   5.00972281E+04                                ecore*ucvol(ha*bohr**3)
--------------------------------------------------------------------------------

_setup2: Arith. and geom. avg. npw (full set) are    1078.766    1078.743

================================================================================

--- !BeginCycle
iteration_state: {dtset: 1, }
solver: {iscf: 17, nstep: 2500, nline: 4, wfoptalg: 10, }
tolerances: {toldfe: 1.00E-06, }
...

     iter   Etot(hartree)      deltaE(h)  residm     nres2
 ETOT  1  -159.67752351070    -1.597E+02 1.744E+00 2.744E+00
 ETOT  2  -160.42868215480    -7.512E-01 2.437E-03 4.596E-01
 ETOT  3  -160.42041729511     8.265E-03 6.762E-04 5.110E-02
 ETOT  4  -160.41920404567     1.213E-03 5.937E-04 2.423E-03
 ETOT  5  -160.41910426036     9.979E-05 4.227E-04 8.223E-04
 ETOT  6  -160.41906962129     3.464E-05 2.004E-04 1.396E-04
 ETOT  7  -160.41906543055     4.191E-06 6.793E-05 2.184E-05
 ETOT  8  -160.41906539485     3.570E-08 8.579E-05 6.794E-07
 ETOT  9  -160.41906541456    -1.971E-08 4.316E-05 1.034E-07

 At SCF step    9, etot is converged : 
  for the second time, diff in etot=  1.971E-08 < toldfe=  1.000E-06

 Cartesian components of stress tensor (hartree/bohr^3)
  sigma(1 1)=  3.34917634E-05  sigma(3 2)=  0.00000000E+00
  sigma(2 2)=  3.34917634E-05  sigma(3 1)=  0.00000000E+00
  sigma(3 3)=  3.34917634E-05  sigma(2 1)=  0.00000000E+00


--- !ResultsGS
iteration_state: {dtset: 1, }
comment   : Summary of ground state results
lattice_vectors:
- [  0.0000000,  11.2068317,  11.2068317, ]
- [ 11.2068317,   0.0000000,  11.2068317, ]
- [ 11.2068317,  11.2068317,   0.0000000, ]
lattice_lengths: [  15.84885,   15.84885,   15.84885, ]
lattice_angles: [ 60.000,  60.000,  60.000, ] # degrees, (23, 13, 12)
lattice_volume:   2.8150009E+03
convergence: {deltae: -1.971E-08, res2:  1.034E-07, residm:  4.316E-05, diffor: null, }
etotal    :  -1.60419065E+02
entropy   :   0.00000000E+00
fermie    :  -1.34111792E-01
cartesian_stress_tensor: # hartree/bohr^3
- [  3.34917634E-05,   0.00000000E+00,   0.00000000E+00, ]
- [  0.00000000E+00,   3.34917634E-05,   0.00000000E+00, ]
- [  0.00000000E+00,   0.00000000E+00,   3.34917634E-05, ]
pressure_GPa:  -9.8536E-01
xred      :
- [  2.5000E-01,   2.5000E-01,   2.5000E-01, Cs]
- [  7.5000E-01,   7.5000E-01,   7.5000E-01, Cs]
- [  7.6151E-01,   2.3848E-01,   7.6152E-01,  I]
- [  2.3848E-01,   2.3849E-01,   7.6151E-01,  I]
- [  7.6151E-01,   7.6151E-01,   2.3849E-01,  I]
- [  2.3849E-01,   7.6151E-01,   2.3848E-01,  I]
- [  2.3848E-01,   7.6152E-01,   7.6151E-01,  I]
- [  7.6151E-01,   2.3848E-01,   2.3849E-01,  I]
- [  0.0000E+00,   0.0000E+00,   0.0000E+00, Hf]
cartesian_forces: # hartree/bohr
- [ -9.63735172E-20,   9.63735357E-20,  -8.00211437E-20, ]
- [ -9.63735264E-20,   9.63735326E-20,  -8.00210914E-20, ]
- [ -2.43545497E-19,  -7.14582801E-03,   6.71508850E-20, ]
- [  4.64981558E-21,  -4.64981558E-21,   7.14582801E-03, ]
- [  6.69964870E-19,  -6.69964870E-19,  -7.14582801E-03, ]
- [  5.07984439E-20,   7.14582801E-03,  -2.27193056E-19, ]
- [ -7.14582801E-03,  -5.07984439E-20,   6.71508850E-20, ]
- [  7.14582801E-03,   2.43545497E-19,  -2.27193056E-19, ]
- [ -9.63735264E-20,   9.63735264E-20,  -8.00210853E-20, ]
force_length_stats: {min:   1.58047737E-19, max:   7.14582801E-03, mean:   4.76388534E-03, }
...

 Integrated electronic density in atomic spheres:
 ------------------------------------------------
 Atom  Sphere_radius  Integrated_density
    1        2.20660          4.94791547
    2        2.20660          4.94791547
    3        2.30022          3.93806922
    4        2.30022          3.93806922
    5        2.30022          3.93806922
    6        2.30022          3.93806922
    7        2.30022          3.93806922
    8        2.30022          3.93806922
    9        2.41000          9.18030431

 PAW TEST:
 ==== Compensation charge inside spheres ============
 The following values must be close to each other ...
 Compensation charge over spherical meshes =     -1.245267273126025
 Compensation charge over fine fft grid    =     -1.245190562319565

 ==== Results concerning PAW augmentation regions ====

 Total pseudopotential strength Dij (hartree):
 Atom #  1
   0.46793  -0.15437   0.00000   0.00000   0.00000   0.00000   0.00000   0.00000   0.00000   0.00000   0.00000   0.00000 ...
  -0.15437   0.04660   0.00000   0.00000   0.00000   0.00000   0.00000   0.00000   0.00000   0.00000   0.00000   0.00000 ...
   0.00000   0.00000  -0.09363   0.00000   0.00000  -0.16941   0.00000   0.00000   0.00000   0.00000   0.00000   0.00000 ...
   0.00000   0.00000   0.00000  -0.09363   0.00000   0.00000  -0.16941   0.00000   0.00000   0.00000   0.00000   0.00000 ...
   0.00000   0.00000   0.00000   0.00000  -0.09363   0.00000   0.00000  -0.16941   0.00000   0.00000   0.00000   0.00000 ...
   0.00000   0.00000  -0.16941   0.00000   0.00000   0.41789   0.00000   0.00000   0.00000   0.00000   0.00000  -0.00000 ...
   0.00000   0.00000   0.00000  -0.16941   0.00000   0.00000   0.41789   0.00000  -0.00000   0.00000   0.00000   0.00000 ...
   0.00000   0.00000   0.00000   0.00000  -0.16941   0.00000   0.00000   0.41789   0.00000  -0.00000   0.00000   0.00000 ...
   0.00000   0.00000   0.00000   0.00000   0.00000   0.00000  -0.00000   0.00000   0.00536   0.00000   0.00000   0.00000 ...
   0.00000   0.00000   0.00000   0.00000   0.00000   0.00000   0.00000  -0.00000   0.00000   0.00536   0.00000   0.00000 ...
   0.00000   0.00000   0.00000   0.00000   0.00000   0.00000   0.00000   0.00000   0.00000   0.00000   0.00536   0.00000 ...
   0.00000   0.00000   0.00000   0.00000   0.00000  -0.00000   0.00000   0.00000   0.00000   0.00000   0.00000   0.00536 ...
   ...  only 12  components have been written...
 Atom #  9
  -3.54538   0.43888   0.00000   0.00000   0.00000   0.00000   0.00000   0.00000   0.00000   0.00000   0.00000   0.00000 ...
   0.43888   0.00089   0.00000   0.00000   0.00000   0.00000   0.00000   0.00000   0.00000   0.00000   0.00000   0.00000 ...
   0.00000   0.00000  -1.50534   0.00000   0.00000   0.13352   0.00000   0.00000   0.00000   0.00000   0.00000   0.00000 ...
   0.00000   0.00000   0.00000  -1.50534   0.00000   0.00000   0.13352   0.00000   0.00000   0.00000   0.00000   0.00000 ...
   0.00000   0.00000   0.00000   0.00000  -1.50534   0.00000   0.00000   0.13352   0.00000   0.00000   0.00000   0.00000 ...
   0.00000   0.00000   0.13352   0.00000   0.00000   0.01172   0.00000   0.00000   0.00000   0.00000   0.00000   0.00000 ...
   0.00000   0.00000   0.00000   0.13352   0.00000   0.00000   0.01172   0.00000   0.00000   0.00000   0.00000   0.00000 ...
   0.00000   0.00000   0.00000   0.00000   0.13352   0.00000   0.00000   0.01172   0.00000   0.00000   0.00000   0.00000 ...
   0.00000   0.00000   0.00000   0.00000   0.00000   0.00000   0.00000   0.00000  -0.40301   0.00000   0.00000   0.00000 ...
   0.00000   0.00000   0.00000   0.00000   0.00000   0.00000   0.00000   0.00000   0.00000  -0.40301   0.00000   0.00000 ...
   0.00000   0.00000   0.00000   0.00000   0.00000   0.00000   0.00000   0.00000   0.00000   0.00000  -0.40239   0.00000 ...
   0.00000   0.00000   0.00000   0.00000   0.00000   0.00000   0.00000   0.00000   0.00000   0.00000   0.00000  -0.40301 ...
   ...  only 12  components have been written...


 Augmentation waves occupancies Rhoij:
 Atom #  1
   1.34841  -1.29710   0.00000   0.00000   0.00000   0.00000   0.00000   0.00000   0.00000   0.00000   0.00000   0.00000 ...
  -1.29710   1.50712   0.00000   0.00000   0.00000   0.00000   0.00000   0.00000   0.00000   0.00000   0.00000   0.00000 ...
   0.00000   0.00000   0.89987   0.00000   0.00000  -0.37943   0.00000   0.00000   0.00000   0.00000   0.00000  -0.00015 ...
   0.00000   0.00000   0.00000   0.89987   0.00000   0.00000  -0.37943   0.00000  -0.00015   0.00000   0.00000   0.00000 ...
   0.00000   0.00000   0.00000   0.00000   0.89987   0.00000   0.00000  -0.37943   0.00000  -0.00015   0.00000   0.00000 ...
   0.00000   0.00000  -0.37943   0.00000   0.00000   0.16018   0.00000   0.00000   0.00000   0.00000   0.00000   0.00019 ...
   0.00000   0.00000   0.00000  -0.37943   0.00000   0.00000   0.16018   0.00000   0.00019   0.00000   0.00000   0.00000 ...
   0.00000   0.00000   0.00000   0.00000  -0.37943   0.00000   0.00000   0.16018   0.00000   0.00019   0.00000   0.00000 ...
   0.00000   0.00000   0.00000  -0.00015   0.00000   0.00000   0.00019   0.00000   0.03509   0.00000   0.00000   0.00000 ...
   0.00000   0.00000   0.00000   0.00000  -0.00015   0.00000   0.00000   0.00019   0.00000   0.03509   0.00000   0.00000 ...
   0.00000   0.00000   0.00000   0.00000   0.00000   0.00000   0.00000   0.00000   0.00000   0.00000   0.02373   0.00000 ...
   0.00000   0.00000  -0.00015   0.00000   0.00000   0.00019   0.00000   0.00000   0.00000   0.00000   0.00000   0.03509 ...
   ...  only 12  components have been written...
 Atom #  9
   2.04199   0.09456   0.00000   0.00000   0.00000   0.00000   0.00000   0.00000   0.00000   0.00000   0.00000   0.00000 ...
   0.09456   1.04346   0.00000   0.00000   0.00000   0.00000   0.00000   0.00000   0.00000   0.00000   0.00000   0.00000 ...
   0.00000   0.00000   1.89906   0.00000   0.00000  -0.42761   0.00000   0.00000   0.00000   0.00000   0.00000   0.00000 ...
   0.00000   0.00000   0.00000   1.89906   0.00000   0.00000  -0.42761   0.00000   0.00000   0.00000   0.00000   0.00000 ...
   0.00000   0.00000   0.00000   0.00000   1.89906   0.00000   0.00000  -0.42761   0.00000   0.00000   0.00000   0.00000 ...
   0.00000   0.00000  -0.42761   0.00000   0.00000   1.55301   0.00000   0.00000   0.00000   0.00000   0.00000   0.00000 ...
   0.00000   0.00000   0.00000  -0.42761   0.00000   0.00000   1.55301   0.00000   0.00000   0.00000   0.00000   0.00000 ...
   0.00000   0.00000   0.00000   0.00000  -0.42761   0.00000   0.00000   1.55301   0.00000   0.00000   0.00000   0.00000 ...
   0.00000   0.00000   0.00000   0.00000   0.00000   0.00000   0.00000   0.00000   1.01291   0.00000   0.00000   0.00000 ...
   0.00000   0.00000   0.00000   0.00000   0.00000   0.00000   0.00000   0.00000   0.00000   1.01291   0.00000   0.00000 ...
   0.00000   0.00000   0.00000   0.00000   0.00000   0.00000   0.00000   0.00000   0.00000   0.00000   2.97142   0.00000 ...
   0.00000   0.00000   0.00000   0.00000   0.00000   0.00000   0.00000   0.00000   0.00000   0.00000   0.00000   1.01291 ...
   ...  only 12  components have been written...


================================================================================

 ----iterations are completed or convergence reached----

 Mean square residual over all n,k,spin=   55.147E-08; max=  43.156E-06
 reduced coordinates (array xred) for    9 atoms
       0.250000000000      0.250000000000      0.250000000000
       0.750000000000      0.750000000000      0.750000000000
       0.761515000000      0.238485000000      0.761515000000
       0.238485000000      0.238485000000      0.761515000000
       0.761515000000      0.761515000000      0.238485000000
       0.238485000000      0.761515000000      0.238485000000
       0.238485000000      0.761515000000      0.761515000000
       0.761515000000      0.238485000000      0.238485000000
       0.000000000000      0.000000000000      0.000000000000
 rms dE/dt=  5.3388E-02; max dE/dt=  8.0082E-02; dE/dt below (all hartree)
    1       0.000000000000      0.000000000000     -0.000000000000
    2       0.000000000000      0.000000000000     -0.000000000000
    3       0.080082091643      0.000000000000      0.080082091643
    4      -0.080082091643     -0.080082091643      0.000000000000
    5       0.080082091643      0.080082091643      0.000000000000
    6      -0.080082091643      0.000000000000     -0.080082091643
    7      -0.000000000000      0.080082091643      0.080082091643
    8       0.000000000000     -0.080082091643     -0.080082091643
    9       0.000000000000      0.000000000000      0.000000000000

 cartesian coordinates (angstrom) at end:
    1      2.96519994839860     2.96519994839860     2.96519994839860
    2      8.89559984519581     8.89559984519581     8.89559984519581
    3      5.93039989679720     9.03217695481904     5.93039989679720
    4      5.93039989679720     5.93039989679720     2.82862283877536
    5      5.93039989679720     5.93039989679720     9.03217695481904
    6      5.93039989679720     2.82862283877536     5.93039989679720
    7      9.03217695481905     5.93039989679720     5.93039989679720
    8      2.82862283877536     5.93039989679720     5.93039989679720
    9      0.00000000000000     0.00000000000000     0.00000000000000

 cartesian forces (hartree/bohr) at end:
    1     -0.00000000000000     0.00000000000000    -0.00000000000000
    2     -0.00000000000000     0.00000000000000    -0.00000000000000
    3     -0.00000000000000    -0.00714582801350     0.00000000000000
    4      0.00000000000000    -0.00000000000000     0.00714582801350
    5      0.00000000000000    -0.00000000000000    -0.00714582801350
    6      0.00000000000000     0.00714582801350    -0.00000000000000
    7     -0.00714582801350    -0.00000000000000     0.00000000000000
    8      0.00714582801350     0.00000000000000    -0.00000000000000
    9     -0.00000000000000     0.00000000000000    -0.00000000000000
 frms,max,avg= 3.3685756E-03 7.1458280E-03   0.000E+00  0.000E+00  0.000E+00 h/b

 cartesian forces (eV/Angstrom) at end:
    1     -0.00000000000000     0.00000000000000    -0.00000000000000
    2     -0.00000000000000     0.00000000000000    -0.00000000000000
    3     -0.00000000000000    -0.36745321967074     0.00000000000000
    4      0.00000000000000    -0.00000000000000     0.36745321967074
    5      0.00000000000000    -0.00000000000000    -0.36745321967074
    6      0.00000000000000     0.36745321967074    -0.00000000000000
    7     -0.36745321967074    -0.00000000000000     0.00000000000000
    8      0.36745321967074     0.00000000000000    -0.00000000000000
    9     -0.00000000000000     0.00000000000000    -0.00000000000000
 frms,max,avg= 1.7321911E-01 3.6745322E-01   0.000E+00  0.000E+00  0.000E+00 e/A
 length scales= 22.413663326880 22.413663326880 22.413663326880 bohr
              = 11.860799793594 11.860799793594 11.860799793594 angstroms
 prteigrs : about to open file Cs2TiI6o_DS1_EIG
 Fermi (or HOMO) energy (hartree) =  -0.13411   Average Vxc (hartree)=  -0.28655
 Eigenvalues (hartree) for nkpt=   8  k points:
 kpt#   1, nband= 42, wtk=  0.01563, kpt=  0.0000  0.0000  0.0000 (reduced coord)
  -2.45872   -1.29691   -1.29691   -1.29691   -0.92801   -0.92761   -0.56839   -0.54585
  -0.54585   -0.54585   -0.54278   -0.54278   -0.38236   -0.38236   -0.38236   -0.37965
  -0.37965   -0.37965   -0.28099   -0.21821   -0.21821   -0.21821   -0.21576   -0.21576
  -0.21576   -0.20297   -0.20297   -0.16372   -0.16372   -0.16372   -0.14348   -0.14348
  -0.14348   -0.13411   -0.13411   -0.13411   -0.03756   -0.03756   -0.03756    0.00760
   0.02032    0.02561
 prteigrs : prtvol=0 or 1, do not print more k-points.


--- !EnergyTerms
iteration_state     : {dtset: 1, }
comment             : Components of total free energy in Hartree
kinetic             :  3.50067308894099E+01
hartree             :  3.47160067654894E+01
xc                  : -5.92695519780719E+01
Ewald energy        : -1.13533415726719E+02
psp_core            :  1.77965228238892E+01
local_psp           : -6.62558268250613E+01
spherical_terms     : -8.87953265281445E+00
total_energy        : -1.60419066703878E+02
total_energy_eV     : -4.36522480254217E+03
...


--- !EnergyTermsDC
iteration_state     : {dtset: 1, }
comment             : '"Double-counting" decomposition of free energy'
band_energy         : -3.43521438762640E+01
Ewald energy        : -1.13533415726719E+02
psp_core            :  1.77965228238892E+01
xc_dc               : -5.68099969778948E+01
spherical_terms     :  2.64799683424312E+01
total_energy_dc     : -1.60419065414557E+02
total_energy_dc_eV  : -4.36522476745796E+03
...


 Cartesian components of stress tensor (hartree/bohr^3)
  sigma(1 1)=  3.34917634E-05  sigma(3 2)=  0.00000000E+00
  sigma(2 2)=  3.34917634E-05  sigma(3 1)=  0.00000000E+00
  sigma(3 3)=  3.34917634E-05  sigma(2 1)=  0.00000000E+00

-Cartesian components of stress tensor (GPa)         [Pressure= -9.8536E-01 GPa]
- sigma(1 1)=  9.85361533E-01  sigma(3 2)=  0.00000000E+00
- sigma(2 2)=  9.85361533E-01  sigma(3 1)=  0.00000000E+00
- sigma(3 3)=  9.85361533E-01  sigma(2 1)=  0.00000000E+00

================================================================================
== DATASET  2 ==================================================================
-   mpi_nproc: 4, omp_nthreads: -1 (-1 if OMP is not activated)


--- !DatasetInfo
iteration_state: {dtset: 2, }
dimensions: {natom: 9, nkpt: 8, mband: 42, nsppol: 1, nspinor: 1, nspden: 1, mpw: 1540, }
cutoff_energies: {ecut:   5.0, pawecutdg:  12.5, }
electrons: {nelect:   7.20000000E+01, charge:   0.00000000E+00, occopt:   1.00000000E+00, tsmear:   1.00000000E-02, }
meta: {optdriver: 0, ionmov: 0, optcell: 0, iscf: 17, paral_kgb: 0, }
...

 Real(R)+Recip(G) space primitive vectors, cartesian coordinates (Bohr,Bohr^-1):
 R(1)=  0.0000000 11.2068317 11.2068317  G(1)= -0.0446156  0.0446156  0.0446156
 R(2)= 11.2068317  0.0000000 11.2068317  G(2)=  0.0446156 -0.0446156  0.0446156
 R(3)= 11.2068317 11.2068317  0.0000000  G(3)=  0.0446156  0.0446156 -0.0446156
 Unit cell volume ucvol=  2.8150009E+03 bohr^3
 Angles (23,13,12)=  6.00000000E+01  6.00000000E+01  6.00000000E+01 degrees

 Coarse grid specifications (used for wave-functions):

 getcut: wavevector=  0.0000  0.0000  0.0000  ngfft=  32  32  32
         ecut(hartree)=      5.000   => boxcut(ratio)=   2.00587

 Fine grid specifications (used for densities):

 getcut: wavevector=  0.0000  0.0000  0.0000  ngfft=  54  54  54
         ecut(hartree)=     12.500   => boxcut(ratio)=   2.14153

--- Pseudopotential description ------------------------------------------------
- pspini: atom type   1  psp file is ../../../Psps_for_tests/ATOMICDATA/Cs.GGA_PBE-JTH.xml
- pspatm: opening atomic psp file    ../../../Psps_for_tests/ATOMICDATA/Cs.GGA_PBE-JTH.xml
- pspatm : Reading pseudopotential header in XML form from ../../../Psps_for_tests/ATOMICDATA/Cs.GGA_PBE-JTH.xml
 Pseudopotential format is: paw10
 basis_size (lnmax)=  6 (lmn_size= 18), orbitals=   0   0   1   1   2   2
 Spheres core radius: rc_sph= 2.20660278
 1 radial meshes are used:
  - mesh 1: r(i)=AA*[exp(BB*(i-1))-1], size=1500 , AA= 0.15922E-03 BB= 0.87573E-02
 Shapefunction is SIN type: shapef(r)=[sin(pi*r/rshp)/(pi*r/rshp)]**2
 Radius for shape functions =  2.00394208
 mmax= 1500
 Radial grid used for partial waves is grid 1
 Radial grid used for projectors is grid 1
 Radial grid used for (t)core density is grid 1
 Radial grid used for Vloc is grid 1
 Radial grid used for pseudo valence density is grid 1
 Mesh size for Vloc has been set to 1341 to avoid numerical noise.
 Compensation charge density is not taken into account in XC energy/potential
 pspatm: atomic psp has been read  and splines computed

- pspini: atom type   2  psp file is ../../../Psps_for_tests/ATOMICDATA/I.GGA_PBE-JTH.xml
- pspatm: opening atomic psp file    ../../../Psps_for_tests/ATOMICDATA/I.GGA_PBE-JTH.xml
- pspatm : Reading pseudopotential header in XML form from ../../../Psps_for_tests/ATOMICDATA/I.GGA_PBE-JTH.xml
 Pseudopotential format is: paw10
 basis_size (lnmax)=  4 (lmn_size=  8), orbitals=   0   0   1   1
 Spheres core radius: rc_sph= 2.30022271
 1 radial meshes are used:
  - mesh 1: r(i)=AA*[exp(BB*(i-1))-1], size=2000 , AA= 0.12610E-03 BB= 0.66836E-02
 Shapefunction is SIN type: shapef(r)=[sin(pi*r/rshp)/(pi*r/rshp)]**2
 Radius for shape functions =  2.10879093
 mmax= 2000
 Radial grid used for partial waves is grid 1
 Radial grid used for projectors is grid 1
 Radial grid used for (t)core density is grid 1
 Radial grid used for Vloc is grid 1
 Radial grid used for pseudo valence density is grid 1
 Mesh size for Vloc has been set to 1792 to avoid numerical noise.
 Compensation charge density is not taken into account in XC energy/potential
 pspatm: atomic psp has been read  and splines computed

- pspini: atom type   3  psp file is ../../../Psps_for_tests/ATOMICDATA/Hf.GGA_PBE-JTH.xml
- pspatm: opening atomic psp file    ../../../Psps_for_tests/ATOMICDATA/Hf.GGA_PBE-JTH.xml
- pspatm : Reading pseudopotential header in XML form from ../../../Psps_for_tests/ATOMICDATA/Hf.GGA_PBE-JTH.xml
 Pseudopotential format is: paw10
 basis_size (lnmax)=  6 (lmn_size= 18), orbitals=   0   0   1   1   2   2
 Spheres core radius: rc_sph= 2.41000000
 1 radial meshes are used:
  - mesh 1: r(i)=AA*[exp(BB*(i-1))-1], size= 972 , AA= 0.19796E-03 BB= 0.14253E-01
 Shapefunction is SIN type: shapef(r)=[sin(pi*r/rshp)/(pi*r/rshp)]**2
 Radius for shape functions =  2.41000000
 mmax=  972
 Radial grid used for partial waves is grid 1
 Radial grid used for projectors is grid 1
 Radial grid used for (t)core density is grid 1
 Radial grid used for Vloc is grid 1
 Radial grid used for pseudo valence density is grid 1
 Mesh size for Vloc has been set to  809 to avoid numerical noise.
 Compensation charge density is not taken into account in XC energy/potential
 pspatm: atomic psp has been read  and splines computed

--------------------------------------------------------------------------------

_setup2: Arith. and geom. avg. npw (full set) are    1505.516    1505.451

================================================================================

--- !BeginCycle
iteration_state: {dtset: 2, }
solver: {iscf: 17, nstep: 2500, nline: 4, wfoptalg: 10, }
tolerances: {toldfe: 1.00E-06, }
...

     iter   Etot(hartree)      deltaE(h)  residm     nres2
 ETOT  1  -159.84744582611    -1.598E+02 1.145E+00 3.537E+00
 ETOT  2  -160.54054392812    -6.931E-01 4.912E-03 4.641E-01
 ETOT  3  -160.53572983554     4.814E-03 1.105E-03 5.449E-02
 ETOT  4  -160.53512997466     5.999E-04 6.282E-04 3.478E-03
 ETOT  5  -160.53508729321     4.268E-05 2.212E-04 1.103E-03
 ETOT  6  -160.53507330036     1.399E-05 2.118E-04 1.726E-04
 ETOT  7  -160.53507347191    -1.716E-07 7.393E-05 2.305E-05
 ETOT  8  -160.53507387746    -4.055E-07 1.166E-04 1.008E-06

 At SCF step    8, etot is converged : 
  for the second time, diff in etot=  4.055E-07 < toldfe=  1.000E-06

 Cartesian components of stress tensor (hartree/bohr^3)
  sigma(1 1)=  1.62351758E-04  sigma(3 2)=  0.00000000E+00
  sigma(2 2)=  1.62351758E-04  sigma(3 1)=  0.00000000E+00
  sigma(3 3)=  1.62351758E-04  sigma(2 1)=  0.00000000E+00


--- !ResultsGS
iteration_state: {dtset: 2, }
comment   : Summary of ground state results
lattice_vectors:
- [  0.0000000,  11.2068317,  11.2068317, ]
- [ 11.2068317,   0.0000000,  11.2068317, ]
- [ 11.2068317,  11.2068317,   0.0000000, ]
lattice_lengths: [  15.84885,   15.84885,   15.84885, ]
lattice_angles: [ 60.000,  60.000,  60.000, ] # degrees, (23, 13, 12)
lattice_volume:   2.8150009E+03
convergence: {deltae: -4.055E-07, res2:  1.008E-06, residm:  1.166E-04, diffor: null, }
etotal    :  -1.60535074E+02
entropy   :   0.00000000E+00
fermie    :  -1.35154245E-01
cartesian_stress_tensor: # hartree/bohr^3
- [  1.62351758E-04,   0.00000000E+00,   0.00000000E+00, ]
- [  0.00000000E+00,   1.62351758E-04,   0.00000000E+00, ]
- [  0.00000000E+00,   0.00000000E+00,   1.62351758E-04, ]
pressure_GPa:  -4.7766E+00
xred      :
- [  2.5000E-01,   2.5000E-01,   2.5000E-01, Cs]
- [  7.5000E-01,   7.5000E-01,   7.5000E-01, Cs]
- [  7.6151E-01,   2.3848E-01,   7.6152E-01,  I]
- [  2.3848E-01,   2.3849E-01,   7.6151E-01,  I]
- [  7.6151E-01,   7.6151E-01,   2.3849E-01,  I]
- [  2.3849E-01,   7.6151E-01,   2.3848E-01,  I]
- [  2.3848E-01,   7.6152E-01,   7.6151E-01,  I]
- [  7.6151E-01,   2.3848E-01,   2.3849E-01,  I]
- [  0.0000E+00,   0.0000E+00,   0.0000E+00, Hf]
cartesian_forces: # hartree/bohr
- [  9.63735203E-20,   2.40933798E-19,  -1.41923861E-19, ]
- [  9.63735387E-20,   2.40933816E-19,  -1.41923880E-19, ]
- [ -7.32006256E-19,  -6.70867161E-03,   6.86455915E-19, ]
- [  1.35355482E-19,   2.01951861E-19,   6.70867161E-03, ]
- [  5.73915712E-20,   2.79915771E-19,  -6.70867161E-03, ]
- [  1.20101327E-19,   6.70867161E-03,  -1.65651668E-19, ]
- [ -6.70867161E-03,  -4.01960410E-19,   5.00970359E-19, ]
- [  6.70867161E-03,   4.50147173E-19,  -3.51137224E-19, ]
- [  9.63735264E-20,   2.40933816E-19,  -1.41923867E-19, ]
force_length_stats: {min:   2.95769053E-19, max:   6.70867161E-03, mean:   4.47244774E-03, }
...

 Integrated electronic density in atomic spheres:
 ------------------------------------------------
 Atom  Sphere_radius  Integrated_density
    1        2.20660          5.08248175
    2        2.20660          5.08248175
    3        2.30022          4.01613241
    4        2.30022          4.01613241
    5        2.30022          4.01613241
    6        2.30022          4.01613241
    7        2.30022          4.01613241
    8        2.30022          4.01613241
    9        2.41000          9.27495542

 PAW TEST:
 ==== Compensation charge inside spheres ============
 The following values must be close to each other ...
 Compensation charge over spherical meshes =     -0.988751366659723
 Compensation charge over fine fft grid    =     -0.988261447633451

 ==== Results concerning PAW augmentation regions ====

 Total pseudopotential strength Dij (hartree):
 Atom #  1
   0.47017  -0.15520   0.00000   0.00000   0.00000   0.00000   0.00000   0.00000   0.00000   0.00000   0.00000   0.00000 ...
  -0.15520   0.04689   0.00000   0.00000   0.00000   0.00000   0.00000   0.00000   0.00000   0.00000   0.00000   0.00000 ...
   0.00000   0.00000  -0.09469   0.00000   0.00000  -0.16810   0.00000   0.00000   0.00000   0.00000   0.00000  -0.00000 ...
   0.00000   0.00000   0.00000  -0.09469   0.00000   0.00000  -0.16810   0.00000  -0.00000   0.00000   0.00000   0.00000 ...
   0.00000   0.00000   0.00000   0.00000  -0.09469   0.00000   0.00000  -0.16810   0.00000  -0.00000   0.00000   0.00000 ...
   0.00000   0.00000  -0.16810   0.00000   0.00000   0.41727   0.00000   0.00000   0.00000   0.00000   0.00000   0.00000 ...
   0.00000   0.00000   0.00000  -0.16810   0.00000   0.00000   0.41727   0.00000   0.00000   0.00000   0.00000   0.00000 ...
   0.00000   0.00000   0.00000   0.00000  -0.16810   0.00000   0.00000   0.41727   0.00000   0.00000   0.00000   0.00000 ...
   0.00000   0.00000   0.00000  -0.00000   0.00000   0.00000   0.00000   0.00000   0.00518   0.00000   0.00000   0.00000 ...
   0.00000   0.00000   0.00000   0.00000  -0.00000   0.00000   0.00000   0.00000   0.00000   0.00518   0.00000   0.00000 ...
   0.00000   0.00000   0.00000   0.00000   0.00000   0.00000   0.00000   0.00000   0.00000   0.00000   0.00518   0.00000 ...
   0.00000   0.00000  -0.00000   0.00000   0.00000   0.00000   0.00000   0.00000   0.00000   0.00000   0.00000   0.00518 ...
   ...  only 12  components have been written...
 Atom #  9
  -3.53514   0.43473   0.00000   0.00000   0.00000   0.00000   0.00000   0.00000   0.00000   0.00000   0.00000   0.00000 ...
   0.43473   0.00176   0.00000   0.00000   0.00000   0.00000   0.00000   0.00000   0.00000   0.00000   0.00000   0.00000 ...
   0.00000   0.00000  -1.48744   0.00000   0.00000   0.12974   0.00000   0.00000   0.00000   0.00000   0.00000   0.00000 ...
   0.00000   0.00000   0.00000  -1.48744   0.00000   0.00000   0.12974   0.00000   0.00000   0.00000   0.00000   0.00000 ...
   0.00000   0.00000   0.00000   0.00000  -1.48744   0.00000   0.00000   0.12974   0.00000   0.00000   0.00000   0.00000 ...
   0.00000   0.00000   0.12974   0.00000   0.00000   0.01239   0.00000   0.00000   0.00000   0.00000   0.00000   0.00000 ...
   0.00000   0.00000   0.00000   0.12974   0.00000   0.00000   0.01239   0.00000   0.00000   0.00000   0.00000   0.00000 ...
   0.00000   0.00000   0.00000   0.00000   0.12974   0.00000   0.00000   0.01239   0.00000   0.00000   0.00000   0.00000 ...
   0.00000   0.00000   0.00000   0.00000   0.00000   0.00000   0.00000   0.00000  -0.39976   0.00000   0.00000   0.00000 ...
   0.00000   0.00000   0.00000   0.00000   0.00000   0.00000   0.00000   0.00000   0.00000  -0.39976   0.00000   0.00000 ...
   0.00000   0.00000   0.00000   0.00000   0.00000   0.00000   0.00000   0.00000   0.00000   0.00000  -0.39907   0.00000 ...
   0.00000   0.00000   0.00000   0.00000   0.00000   0.00000   0.00000   0.00000   0.00000   0.00000   0.00000  -0.39976 ...
   ...  only 12  components have been written...


 Augmentation waves occupancies Rhoij:
 Atom #  1
   1.59725  -0.85044   0.00000   0.00000   0.00000   0.00000   0.00000   0.00000   0.00000   0.00000   0.00000   0.00000 ...
  -0.85044   0.64787   0.00000   0.00000   0.00000   0.00000   0.00000   0.00000   0.00000   0.00000   0.00000   0.00000 ...
   0.00000   0.00000   0.98248   0.00000   0.00000  -0.34562   0.00000   0.00000   0.00000   0.00000   0.00000   0.00056 ...
   0.00000   0.00000   0.00000   0.98248   0.00000   0.00000  -0.34562   0.00000   0.00056   0.00000   0.00000   0.00000 ...
   0.00000   0.00000   0.00000   0.00000   0.98248   0.00000   0.00000  -0.34562   0.00000   0.00056   0.00000   0.00000 ...
   0.00000   0.00000  -0.34562   0.00000   0.00000   0.12181   0.00000   0.00000   0.00000   0.00000   0.00000  -0.00036 ...
   0.00000   0.00000   0.00000  -0.34562   0.00000   0.00000   0.12181   0.00000  -0.00036   0.00000   0.00000   0.00000 ...
   0.00000   0.00000   0.00000   0.00000  -0.34562   0.00000   0.00000   0.12181   0.00000  -0.00036   0.00000   0.00000 ...
   0.00000   0.00000   0.00000   0.00056   0.00000   0.00000  -0.00036   0.00000   0.03677   0.00000   0.00000   0.00000 ...
   0.00000   0.00000   0.00000   0.00000   0.00056   0.00000   0.00000  -0.00036   0.00000   0.03677   0.00000   0.00000 ...
   0.00000   0.00000   0.00000   0.00000   0.00000   0.00000   0.00000   0.00000   0.00000   0.00000   0.02386   0.00000 ...
   0.00000   0.00000   0.00056   0.00000   0.00000  -0.00036   0.00000   0.00000   0.00000   0.00000   0.00000   0.03677 ...
   ...  only 12  components have been written...
 Atom #  9
   2.04283   0.09432   0.00000   0.00000   0.00000   0.00000   0.00000   0.00000   0.00000   0.00000   0.00000   0.00000 ...
   0.09432   0.99209   0.00000   0.00000   0.00000   0.00000   0.00000   0.00000   0.00000   0.00000   0.00000   0.00000 ...
   0.00000   0.00000   1.91403   0.00000   0.00000  -0.35412   0.00000   0.00000   0.00000   0.00000   0.00000   0.00000 ...
   0.00000   0.00000   0.00000   1.91403   0.00000   0.00000  -0.35412   0.00000   0.00000   0.00000   0.00000   0.00000 ...
   0.00000   0.00000   0.00000   0.00000   1.91403   0.00000   0.00000  -0.35412   0.00000   0.00000   0.00000   0.00000 ...
   0.00000   0.00000  -0.35412   0.00000   0.00000   1.43043   0.00000   0.00000   0.00000   0.00000   0.00000   0.00000 ...
   0.00000   0.00000   0.00000  -0.35412   0.00000   0.00000   1.43043   0.00000   0.00000   0.00000   0.00000   0.00000 ...
   0.00000   0.00000   0.00000   0.00000  -0.35412   0.00000   0.00000   1.43043   0.00000   0.00000   0.00000   0.00000 ...
   0.00000   0.00000   0.00000   0.00000   0.00000   0.00000   0.00000   0.00000   0.67038   0.00000   0.00000   0.00000 ...
   0.00000   0.00000   0.00000   0.00000   0.00000   0.00000   0.00000   0.00000   0.00000   0.67038   0.00000   0.00000 ...
   0.00000   0.00000   0.00000   0.00000   0.00000   0.00000   0.00000   0.00000   0.00000   0.00000   1.97222   0.00000 ...
   0.00000   0.00000   0.00000   0.00000   0.00000   0.00000   0.00000   0.00000   0.00000   0.00000   0.00000   0.67038 ...
   ...  only 12  components have been written...


================================================================================

 ----iterations are completed or convergence reached----

 Mean square residual over all n,k,spin=   15.851E-07; max=  11.662E-05
 reduced coordinates (array xred) for    9 atoms
       0.250000000000      0.250000000000      0.250000000000
       0.750000000000      0.750000000000      0.750000000000
       0.761515000000      0.238485000000      0.761515000000
       0.238485000000      0.238485000000      0.761515000000
       0.761515000000      0.761515000000      0.238485000000
       0.238485000000      0.761515000000      0.238485000000
       0.238485000000      0.761515000000      0.761515000000
       0.761515000000      0.238485000000      0.238485000000
       0.000000000000      0.000000000000      0.000000000000
 rms dE/dt=  5.0122E-02; max dE/dt=  7.5183E-02; dE/dt below (all hartree)
    1       0.000000000000      0.000000000000      0.000000000000
    2       0.000000000000      0.000000000000     -0.000000000000
    3       0.075182953363      0.000000000000      0.075182953363
    4      -0.075182953363     -0.075182953363      0.000000000000
    5       0.075182953363      0.075182953363      0.000000000000
    6      -0.075182953363      0.000000000000     -0.075182953363
    7      -0.000000000000      0.075182953363      0.075182953363
    8       0.000000000000     -0.075182953363     -0.075182953363
    9       0.000000000000      0.000000000000      0.000000000000

 cartesian coordinates (angstrom) at end:
    1      2.96519994839860     2.96519994839860     2.96519994839860
    2      8.89559984519581     8.89559984519581     8.89559984519581
    3      5.93039989679720     9.03217695481904     5.93039989679720
    4      5.93039989679720     5.93039989679720     2.82862283877536
    5      5.93039989679720     5.93039989679720     9.03217695481904
    6      5.93039989679720     2.82862283877536     5.93039989679720
    7      9.03217695481905     5.93039989679720     5.93039989679720
    8      2.82862283877536     5.93039989679720     5.93039989679720
    9      0.00000000000000     0.00000000000000     0.00000000000000

 cartesian forces (hartree/bohr) at end:
    1      0.00000000000000     0.00000000000000    -0.00000000000000
    2      0.00000000000000     0.00000000000000    -0.00000000000000
    3     -0.00000000000000    -0.00670867160500     0.00000000000000
    4      0.00000000000000     0.00000000000000     0.00670867160500
    5      0.00000000000000     0.00000000000000    -0.00670867160500
    6      0.00000000000000     0.00670867160500    -0.00000000000000
    7     -0.00670867160500    -0.00000000000000     0.00000000000000
    8      0.00670867160500     0.00000000000000    -0.00000000000000
    9      0.00000000000000     0.00000000000000    -0.00000000000000
 frms,max,avg= 3.1624981E-03 6.7086716E-03   0.000E+00  0.000E+00  0.000E+00 h/b

 cartesian forces (eV/Angstrom) at end:
    1      0.00000000000000     0.00000000000000    -0.00000000000000
    2      0.00000000000000     0.00000000000000    -0.00000000000000
    3     -0.00000000000000    -0.34497373520844     0.00000000000000
    4      0.00000000000000     0.00000000000000     0.34497373520844
    5      0.00000000000000     0.00000000000000    -0.34497373520844
    6      0.00000000000000     0.34497373520844    -0.00000000000000
    7     -0.34497373520844    -0.00000000000000     0.00000000000000
    8      0.34497373520844     0.00000000000000    -0.00000000000000
    9      0.00000000000000     0.00000000000000    -0.00000000000000
 frms,max,avg= 1.6262218E-01 3.4497374E-01   0.000E+00  0.000E+00  0.000E+00 e/A
 length scales= 22.413663326880 22.413663326880 22.413663326880 bohr
              = 11.860799793594 11.860799793594 11.860799793594 angstroms
 prteigrs : about to open file Cs2TiI6o_DS2_EIG
 Fermi (or HOMO) energy (hartree) =  -0.13515   Average Vxc (hartree)=  -0.28602
 Eigenvalues (hartree) for nkpt=   8  k points:
 kpt#   1, nband= 42, wtk=  0.01563, kpt=  0.0000  0.0000  0.0000 (reduced coord)
  -2.43077   -1.27179   -1.27179   -1.27179   -0.93110   -0.93071   -0.56913   -0.54695
  -0.54695   -0.54695   -0.54419   -0.54419   -0.38609   -0.38609   -0.38609   -0.38467
  -0.38467   -0.38467   -0.27876   -0.21821   -0.21821   -0.21821   -0.21716   -0.21716
  -0.21716   -0.20530   -0.20530   -0.16470   -0.16470   -0.16470   -0.14395   -0.14395
  -0.14395   -0.13515   -0.13515   -0.13515   -0.04706   -0.04706   -0.04706    0.00768
   0.02387    0.02687
 prteigrs : prtvol=0 or 1, do not print more k-points.


--- !EnergyTerms
iteration_state     : {dtset: 2, }
comment             : Components of total free energy in Hartree
[...]
                       2.5360304720E-19  5.6609320743E-03 -2.5674260674E-19
                      -5.6609320743E-03 -3.8481532680E-19  3.0591174710E-19
                       5.6609320743E-03 -6.2681295526E-19  5.4790937556E-19
                       9.6373526443E-20  2.0609506295E-20 -9.9513085988E-20
            fcart18   -0.0000000000E+00 -0.0000000000E+00 -8.6272787579E-20
                      -0.0000000000E+00 -0.0000000000E+00 -8.6272787579E-20
                      -5.2458751877E-19 -5.6578688718E-03  4.3831473119E-19
                      -1.5361640546E-19  1.5361640546E-19  5.6578688718E-03
                       1.5361640546E-19 -1.5361640546E-19 -5.6578688718E-03
                       9.0906649778E-20  5.6578688718E-03 -1.7717943736E-19
                      -5.6578688718E-03 -9.0906649778E-20  4.6338621994E-21
                       5.6578688718E-03  9.0906649778E-20 -1.7717943736E-19
                      -0.0000000000E+00 -0.0000000000E+00 -8.6272787579E-20
            fcart19   -1.2013409784E-29  1.2013409784E-29 -2.3070351474E-20
                      -7.2080458706E-29  9.6107278275E-29 -2.3070351607E-20
                       2.0763316338E-19 -5.6571926968E-03 -2.3070351487E-19
                       8.4857362407E-20 -8.4857362407E-20  5.6571926968E-03
                      -8.4857362407E-20  8.4857362407E-20 -5.6571926968E-03
                      -2.0763316338E-19  5.6571926968E-03  1.8456281189E-19
                      -5.6571926968E-03 -1.6333794993E-19  1.4026759845E-19
                       5.6571926968E-03  1.6333794993E-19 -1.8640830142E-19
                      -0.0000000000E+00 -0.0000000000E+00 -2.3070351487E-20
            fcart20   -9.6373526410E-20 -6.8796269568E-20  4.5030714896E-19
                      -9.6373526332E-20 -6.8796269598E-20  4.5030714900E-19
                       5.5864193597E-19 -5.6584002796E-03 -2.0470831343E-19
                      -1.7304470052E-19  3.3673505626E-20  5.6584002796E-03
                       3.5126876094E-19 -5.4223715797E-19 -5.6584002796E-03
                      -1.3222256320E-19  5.6584002796E-03  4.8615618574E-19
                      -5.6584002796E-03  1.2053856185E-18 -8.2387473908E-19
                       5.6584002796E-03 -7.2381173193E-19  1.1053226114E-18
                      -9.6373526443E-20 -6.8796269517E-20  4.5030714898E-19
-          fftalg         112
           istwfk        2    0    3    0    0    0    7    0
              ixc     -101130
           jdtset        1    2    3    4    5    6    7    8    9   10
                        11   12   13   14   15   16   17   18   19   20
              kpt      0.00000000E+00  0.00000000E+00  0.00000000E+00
                       2.50000000E-01  0.00000000E+00  0.00000000E+00
                       5.00000000E-01  0.00000000E+00  0.00000000E+00
                       2.50000000E-01  2.50000000E-01  0.00000000E+00
                       5.00000000E-01  2.50000000E-01  0.00000000E+00
                      -2.50000000E-01  2.50000000E-01  0.00000000E+00
                       5.00000000E-01  5.00000000E-01  0.00000000E+00
                      -2.50000000E-01  5.00000000E-01  2.50000000E-01
         kptrlatt        4    0    0      0    4    0      0    0    4
          kptrlen      6.33954133E+01
P           mkmem           2
            natom           9
            nband          42
           ndtset          20
            ngfft1         30      30      30
            ngfft2         32      32      32
            ngfft3         36      36      36
            ngfft4         40      40      40
            ngfft5         45      45      45
            ngfft6         45      45      45
            ngfft7         48      48      48
            ngfft8         48      48      48
            ngfft9         50      50      50
            ngfft10        54      54      54
            ngfft11        54      54      54
            ngfft12        60      60      60
            ngfft13        60      60      60
            ngfft14        60      60      60
            ngfft15        64      64      64
            ngfft16        64      64      64
            ngfft17        64      64      64
            ngfft18        72      72      72
            ngfft19        72      72      72
            ngfft20        72      72      72
          ngfftdg1         48      48      48
          ngfftdg2         54      54      54
          ngfftdg3         60      60      60
          ngfftdg4         60      60      60
          ngfftdg5         64      64      64
          ngfftdg6         72      72      72
          ngfftdg7         72      72      72
          ngfftdg8         80      80      80
          ngfftdg9         80      80      80
          ngfftdg10        90      90      90
          ngfftdg11        90      90      90
          ngfftdg12        90      90      90
          ngfftdg13        96      96      96
          ngfftdg14        96      96      96
          ngfftdg15        96      96      96
          ngfftdg16       100     100     100
          ngfftdg17       108     108     108
          ngfftdg18       108     108     108
          ngfftdg19       108     108     108
          ngfftdg20       120     120     120
             nkpt           8
            nstep        2500
             nsym          48
           ntypat           3
              occ      2.000000  2.000000  2.000000  2.000000  2.000000  2.000000
                       2.000000  2.000000  2.000000  2.000000  2.000000  2.000000
                       2.000000  2.000000  2.000000  2.000000  2.000000  2.000000
                       2.000000  2.000000  2.000000  2.000000  2.000000  2.000000
                       2.000000  2.000000  2.000000  2.000000  2.000000  2.000000
                       2.000000  2.000000  2.000000  2.000000  2.000000  2.000000
                       0.000000  0.000000  0.000000  0.000000  0.000000  0.000000
        pawecutdg1     1.00000000E+01 Hartree
        pawecutdg2     1.25000000E+01 Hartree
        pawecutdg3     1.50000000E+01 Hartree
        pawecutdg4     1.75000000E+01 Hartree
        pawecutdg5     2.00000000E+01 Hartree
        pawecutdg6     2.25000000E+01 Hartree
        pawecutdg7     2.50000000E+01 Hartree
        pawecutdg8     2.75000000E+01 Hartree
        pawecutdg9     3.00000000E+01 Hartree
        pawecutdg10    3.25000000E+01 Hartree
        pawecutdg11    3.50000000E+01 Hartree
        pawecutdg12    3.75000000E+01 Hartree
        pawecutdg13    4.00000000E+01 Hartree
        pawecutdg14    4.25000000E+01 Hartree
        pawecutdg15    4.50000000E+01 Hartree
        pawecutdg16    4.75000000E+01 Hartree
        pawecutdg17    5.00000000E+01 Hartree
        pawecutdg18    5.25000000E+01 Hartree
        pawecutdg19    5.50000000E+01 Hartree
        pawecutdg20    5.75000000E+01 Hartree
            prtwf           0
            rprim      0.0000000000E+00  5.0000000000E-01  5.0000000000E-01
                       5.0000000000E-01  0.0000000000E+00  5.0000000000E-01
                       5.0000000000E-01  5.0000000000E-01  0.0000000000E+00
          spgroup         225
           strten1     3.3491763423E-05  3.3491763423E-05  3.3491763423E-05
                       0.0000000000E+00  0.0000000000E+00  0.0000000000E+00
           strten2     1.6235175812E-04  1.6235175812E-04  1.6235175812E-04
                       0.0000000000E+00  0.0000000000E+00  0.0000000000E+00
           strten3     2.1988376872E-04  2.1988376872E-04  2.1988376872E-04
                       0.0000000000E+00  0.0000000000E+00  0.0000000000E+00
           strten4     2.4010543100E-04  2.4010543100E-04  2.4010543100E-04
                       0.0000000000E+00  0.0000000000E+00  0.0000000000E+00
           strten5     2.2666619926E-04  2.2666619926E-04  2.2666619926E-04
                       0.0000000000E+00  0.0000000000E+00  0.0000000000E+00
           strten6     1.7407232463E-04  1.7407232463E-04  1.7407232463E-04
                       0.0000000000E+00  0.0000000000E+00  0.0000000000E+00
           strten7     1.2326131902E-04  1.2326131902E-04  1.2326131902E-04
                       0.0000000000E+00  0.0000000000E+00  0.0000000000E+00
           strten8     8.1248650208E-05  8.1248650208E-05  8.1248650208E-05
                       0.0000000000E+00  0.0000000000E+00  0.0000000000E+00
           strten9     4.1861832651E-05  4.1861832651E-05  4.1861832651E-05
                       0.0000000000E+00  0.0000000000E+00  0.0000000000E+00
           strten10    1.1672487899E-05  1.1672487899E-05  1.1672487899E-05
                       0.0000000000E+00  0.0000000000E+00  0.0000000000E+00
           strten11   -6.3489519854E-06 -6.3489519854E-06 -6.3489519854E-06
                       0.0000000000E+00  0.0000000000E+00  0.0000000000E+00
           strten12   -1.7451086918E-05 -1.7451086918E-05 -1.7451086918E-05
                       0.0000000000E+00  0.0000000000E+00  0.0000000000E+00
           strten13   -2.4931386410E-05 -2.4931386410E-05 -2.4931386410E-05
                       0.0000000000E+00  0.0000000000E+00  0.0000000000E+00
           strten14   -2.8564555451E-05 -2.8564555451E-05 -2.8564555451E-05
                       0.0000000000E+00  0.0000000000E+00  0.0000000000E+00
           strten15   -2.8373870745E-05 -2.8373870745E-05 -2.8373870745E-05
                       0.0000000000E+00  0.0000000000E+00  0.0000000000E+00
           strten16   -2.6605833337E-05 -2.6605833337E-05 -2.6605833337E-05
                       0.0000000000E+00  0.0000000000E+00  0.0000000000E+00
           strten17   -2.5454537171E-05 -2.5454537171E-05 -2.5454537171E-05
                       0.0000000000E+00  0.0000000000E+00  0.0000000000E+00
           strten18   -2.5141921427E-05 -2.5141921427E-05 -2.5141921427E-05
                       0.0000000000E+00  0.0000000000E+00  0.0000000000E+00
           strten19   -2.4854917105E-05 -2.4854917105E-05 -2.4854917105E-05
                       0.0000000000E+00  0.0000000000E+00  0.0000000000E+00
           strten20   -2.4587672498E-05 -2.4587672498E-05 -2.4587672498E-05
                       0.0000000000E+00  0.0000000000E+00  0.0000000000E+00
           symrel      1  0  0   0  1  0   0  0  1      -1  0  0   0 -1  0   0  0 -1
                       0 -1  1   0 -1  0   1 -1  0       0  1 -1   0  1  0  -1  1  0
                      -1  0  0  -1  0  1  -1  1  0       1  0  0   1  0 -1   1 -1  0
                       0  1 -1   1  0 -1   0  0 -1       0 -1  1  -1  0  1   0  0  1
                      -1  0  0  -1  1  0  -1  0  1       1  0  0   1 -1  0   1  0 -1
                       0 -1  1   1 -1  0   0 -1  0       0  1 -1  -1  1  0   0  1  0
                       1  0  0   0  0  1   0  1  0      -1  0  0   0  0 -1   0 -1  0
                       0  1 -1   0  0 -1   1  0 -1       0 -1  1   0  0  1  -1  0  1
                      -1  0  1  -1  1  0  -1  0  0       1  0 -1   1 -1  0   1  0  0
                       0 -1  0   1 -1  0   0 -1  1       0  1  0  -1  1  0   0  1 -1
                       1  0 -1   0  0 -1   0  1 -1      -1  0  1   0  0  1   0 -1  1
                       0  1  0   0  0  1   1  0  0       0 -1  0   0  0 -1  -1  0  0
                       1  0 -1   0  1 -1   0  0 -1      -1  0  1   0 -1  1   0  0  1
                       0 -1  0   0 -1  1   1 -1  0       0  1  0   0  1 -1  -1  1  0
                      -1  0  1  -1  0  0  -1  1  0       1  0 -1   1  0  0   1 -1  0
                       0  1  0   1  0  0   0  0  1       0 -1  0  -1  0  0   0  0 -1
                       0  0 -1   0  1 -1   1  0 -1       0  0  1   0 -1  1  -1  0  1
                       1 -1  0   0 -1  1   0 -1  0      -1  1  0   0  1 -1   0  1  0
                       0  0  1   1  0  0   0  1  0       0  0 -1  -1  0  0   0 -1  0
                      -1  1  0  -1  0  0  -1  0  1       1 -1  0   1  0  0   1  0 -1
                       0  0  1   0  1  0   1  0  0       0  0 -1   0 -1  0  -1  0  0
                       1 -1  0   0 -1  0   0 -1  1      -1  1  0   0  1  0   0  1 -1
                       0  0 -1   1  0 -1   0  1 -1       0  0  1  -1  0  1   0 -1  1
                      -1  1  0  -1  0  1  -1  0  0       1 -1  0   1  0 -1   1  0  0
           toldfe      1.00000000E-06 Hartree
            typat      1  1  2  2  2  2  2  2  3
           useylm           1
              wtk        0.01563    0.12500    0.06250    0.09375    0.37500    0.18750
                         0.04688    0.09375
           xangst      2.9651999484E+00  2.9651999484E+00  2.9651999484E+00
                       8.8955998452E+00  8.8955998452E+00  8.8955998452E+00
                       5.9303998968E+00  9.0321769548E+00  5.9303998968E+00
                       5.9303998968E+00  5.9303998968E+00  2.8286228388E+00
                       5.9303998968E+00  5.9303998968E+00  9.0321769548E+00
                       5.9303998968E+00  2.8286228388E+00  5.9303998968E+00
                       9.0321769548E+00  5.9303998968E+00  5.9303998968E+00
                       2.8286228388E+00  5.9303998968E+00  5.9303998968E+00
                       0.0000000000E+00  0.0000000000E+00  0.0000000000E+00
            xcart      5.6034158317E+00  5.6034158317E+00  5.6034158317E+00
                       1.6810247495E+01  1.6810247495E+01  1.6810247495E+01
                       1.1206831663E+01  1.7068340828E+01  1.1206831663E+01
                       1.1206831663E+01  1.1206831663E+01  5.3453224985E+00
                       1.1206831663E+01  1.1206831663E+01  1.7068340828E+01
                       1.1206831663E+01  5.3453224985E+00  1.1206831663E+01
                       1.7068340828E+01  1.1206831663E+01  1.1206831663E+01
                       5.3453224985E+00  1.1206831663E+01  1.1206831663E+01
                       0.0000000000E+00  0.0000000000E+00  0.0000000000E+00
             xred      2.5000000000E-01  2.5000000000E-01  2.5000000000E-01
                       7.5000000000E-01  7.5000000000E-01  7.5000000000E-01
                       7.6151500000E-01  2.3848500000E-01  7.6151500000E-01
                       2.3848500000E-01  2.3848500000E-01  7.6151500000E-01
                       7.6151500000E-01  7.6151500000E-01  2.3848500000E-01
                       2.3848500000E-01  7.6151500000E-01  2.3848500000E-01
                       2.3848500000E-01  7.6151500000E-01  7.6151500000E-01
                       7.6151500000E-01  2.3848500000E-01  2.3848500000E-01
                       0.0000000000E+00  0.0000000000E+00  0.0000000000E+00
            znucl       55.00000   53.00000   72.00000

================================================================================


- Timing analysis has been suppressed with timopt=0



================================================================================

 Suggested references for the acknowledgment of ABINIT usage.

 The users of ABINIT have little formal obligations with respect to the ABINIT group
 (those specified in the GNU General Public License, http://www.gnu.org/copyleft/gpl.txt).
 However, it is common practice in the scientific literature,
 to acknowledge the efforts of people that have made the research possible.
 In this spirit, please find below suggested citations of work written by ABINIT developers,
 corresponding to implementations inside of ABINIT that you have used in the present run.
 Note also that it will be of great value to readers of publications presenting these results,
 to read papers enabling them to understand the theoretical formalism and details
 of the ABINIT implementation.
 For information on why they are suggested, see also https://docs.abinit.org/theory/acknowledgments.
-
- [1] Implementation of the Projector Augmented-Wave Method in the ABINIT code.
- M. Torrent, F. Jollet, F. Bottin, G. Zerah, and X. Gonze Comput. Mat. Science 42, 337, (2008).
- Comment: PAW calculations. Strong suggestion to cite this paper.
- DOI and bibtex: see https://docs.abinit.org/theory/bibliography/#torrent2008
-
- [2] Libxc: A library of exchange and correlation functionals for density functional theory.
- M.A.L. Marques, M.J.T. Oliveira, T. Burnus, Computer Physics Communications 183, 2227 (2012).
- Comment: to be cited when LibXC is used (negative value of ixc)
- Strong suggestion to cite this paper.
- DOI and bibtex: see https://docs.abinit.org/theory/bibliography/#marques2012
-
- [3] The Abinit project: Impact, environment and recent developments.
- Computer Phys. Comm. 248, 107042 (2020).
- X.Gonze, B. Amadon, G. Antonius, F.Arnardi, L.Baguet, J.-M.Beuken,
- J.Bieder, F.Bottin, J.Bouchet, E.Bousquet, N.Brouwer, F.Bruneval,
- G.Brunin, T.Cavignac, J.-B. Charraud, Wei Chen, M.Cote, S.Cottenier,
- J.Denier, G.Geneste, Ph.Ghosez, M.Giantomassi, Y.Gillet, O.Gingras,
- D.R.Hamann, G.Hautier, Xu He, N.Helbig, N.Holzwarth, Y.Jia, F.Jollet,
- W.Lafargue-Dit-Hauret, K.Lejaeghere, M.A.L.Marques, A.Martin, C.Martins,
- H.P.C. Miranda, F.Naccarato, K. Persson, G.Petretto, V.Planes, Y.Pouillon,
- S.Prokhorenko, F.Ricci, G.-M.Rignanese, A.H.Romero, M.M.Schmitt, M.Torrent,
- M.J.van Setten, B.Van Troeye, M.J.Verstraete, G.Zerah and J.W.Zwanzig
- Comment: the fifth generic paper describing the ABINIT project.
- Note that a version of this paper, that is not formatted for Computer Phys. Comm. 
- is available at https://www.abinit.org/sites/default/files/ABINIT20.pdf .
- The licence allows the authors to put it on the Web.
- DOI and bibtex: see https://docs.abinit.org/theory/bibliography/#gonze2020
-
- [4] ABINIT: Overview, and focus on selected capabilities
- J. Chem. Phys. 152, 124102 (2020).
- A. Romero, D.C. Allan, B. Amadon, G. Antonius, T. Applencourt, L.Baguet,
- J.Bieder, F.Bottin, J.Bouchet, E.Bousquet, F.Bruneval,
- G.Brunin, D.Caliste, M.Cote,
- J.Denier, C. Dreyer, Ph.Ghosez, M.Giantomassi, Y.Gillet, O.Gingras,
- D.R.Hamann, G.Hautier, F.Jollet, G. Jomard,
- A.Martin, 
- H.P.C. Miranda, F.Naccarato, G.Petretto, N.A. Pike, V.Planes,
- S.Prokhorenko, T. Rangel, F.Ricci, G.-M.Rignanese, M.Royo, M.Stengel, M.Torrent,
- M.J.van Setten, B.Van Troeye, M.J.Verstraete, J.Wiktor, J.W.Zwanziger, and X.Gonze.
- Comment: a global overview of ABINIT, with focus on selected capabilities .
- Note that a version of this paper, that is not formatted for J. Chem. Phys 
- is available at https://www.abinit.org/sites/default/files/ABINIT20_JPC.pdf .
- The licence allows the authors to put it on the Web.
- DOI and bibtex: see https://docs.abinit.org/theory/bibliography/#romero2020
-
- [5] Recent developments in the ABINIT software package.
- Computer Phys. Comm. 205, 106 (2016).
- X.Gonze, F.Jollet, F.Abreu Araujo, D.Adams, B.Amadon, T.Applencourt,
- C.Audouze, J.-M.Beuken, J.Bieder, A.Bokhanchuk, E.Bousquet, F.Bruneval
- D.Caliste, M.Cote, F.Dahm, F.Da Pieve, M.Delaveau, M.Di Gennaro,
- B.Dorado, C.Espejo, G.Geneste, L.Genovese, A.Gerossier, M.Giantomassi,
- Y.Gillet, D.R.Hamann, L.He, G.Jomard, J.Laflamme Janssen, S.Le Roux,
- A.Levitt, A.Lherbier, F.Liu, I.Lukacevic, A.Martin, C.Martins,
- M.J.T.Oliveira, S.Ponce, Y.Pouillon, T.Rangel, G.-M.Rignanese,
- A.H.Romero, B.Rousseau, O.Rubel, A.A.Shukri, M.Stankovski, M.Torrent,
- M.J.Van Setten, B.Van Troeye, M.J.Verstraete, D.Waroquier, J.Wiktor,
- B.Xu, A.Zhou, J.W.Zwanziger.
- Comment: the fourth generic paper describing the ABINIT project.
- Note that a version of this paper, that is not formatted for Computer Phys. Comm. 
- is available at https://www.abinit.org/sites/default/files/ABINIT16.pdf .
- The licence allows the authors to put it on the Web.
- DOI and bibtex: see https://docs.abinit.org/theory/bibliography/#gonze2016
-
- Proc.   0 individual time (sec): cpu=        853.9  wall=        853.9

================================================================================

 Calculation completed.
.Delivered   0 WARNINGs and   5 COMMENTs to log file.
+Overall time at end (sec) : cpu=       3415.5  wall=       3415.7
