
.Version 9.2.2 of ABINIT 
.(MPI version, prepared for a x86_64_linux_gnu9.3 computer) 

.Copyright (C) 1998-2020 ABINIT group . 
 ABINIT comes with ABSOLUTELY NO WARRANTY.
 It is free software, and you are welcome to redistribute it
 under certain conditions (GNU General Public License,
 see ~abinit/COPYING or http://www.gnu.org/copyleft/gpl.txt).

 ABINIT is a project of the Universite Catholique de Louvain,
 Corning Inc. and other collaborators, see ~abinit/doc/developers/contributors.txt .
 Please read https://docs.abinit.org/theory/acknowledgments for suggested
 acknowledgments of the ABINIT effort.
 For more information, see https://www.abinit.org .

.Starting date : Fri  9 Dec 2022.
- ( at 13h29 )
  
- The starting date is more than 2 years after the initial release
- of this version of ABINIT, namely Nov 2020.
- Note that the use beyond 3 years after the release will not be supported.
- Action: please, switch to a more recent version of ABINIT.

- input  file    -> Cs2TiI6.in
- output file    -> Cs2TiI6.out
- root for input  files -> Cs2TiI6i
- root for output files -> Cs2TiI6o

- inpspheads : Reading pseudopotential header in XML form from 
-   ../../../Psps_for_tests/ATOMICDATA/Cs.GGA_PBE-JTH.xml
- inpspheads : Reading pseudopotential header in XML form from 
-   ../../../Psps_for_tests/ATOMICDATA/Cl.GGA_PBE-JTH.xml
- inpspheads : Reading pseudopotential header in XML form from 
-   ../../../Psps_for_tests/ATOMICDATA/Zr.GGA_PBE-JTH.xml

 DATASET    1 : space group Fm -3 m (#225); Bravais cF (face-center cubic)
================================================================================
 Values of the parameters that define the memory need for DATASET  1.
     intxc =       0    ionmov =       2      iscf =      17    lmnmax =      18
     lnmax =       6     mgfft =      60  mpssoang =       3    mqgrid =    3816
     natom =       9  nloc_mem =       2    nspden =       1   nspinor =       1
    nsppol =       1      nsym =      48    n1xccc =       1    ntypat =       3
    occopt =       1   xclevel =       2
-    mband =          42        mffmem =           1         mkmem =           2
       mpw =        9588          nfft =      216000          nkpt =          10
Pmy_natom=         2
 PAW method is used; the additional fine FFT grid is defined by:
   mgfftf=        96    nfftf =    884736
================================================================================
P This job should need less than                     279.043 Mbytes of memory.
  Rough estimation (10% accuracy) of disk space for files :
_ WF disk file :     61.449 Mbytes ; DEN or POT disk file :      6.752 Mbytes.
================================================================================


 DATASET    2 : space group Fm -3 m (#225); Bravais cF (face-center cubic)
================================================================================
 Values of the parameters that define the memory need for DATASET  2.
     intxc =       0    ionmov =       2      iscf =      17    lmnmax =      18
     lnmax =       6     mgfft =      60  mpssoang =       3    mqgrid =    3777
     natom =       9  nloc_mem =       2    nspden =       1   nspinor =       1
    nsppol =       1      nsym =      48    n1xccc =       1    ntypat =       3
    occopt =       1   xclevel =       2
-    mband =          42        mffmem =           1         mkmem =           2
       mpw =        9315          nfft =      216000          nkpt =          10
Pmy_natom=         2
 PAW method is used; the additional fine FFT grid is defined by:
   mgfftf=        96    nfftf =    884736
================================================================================
P This job should need less than                     279.353 Mbytes of memory.
  Rough estimation (10% accuracy) of disk space for files :
_ WF disk file :     59.699 Mbytes ; DEN or POT disk file :      6.752 Mbytes.
================================================================================


 DATASET    3 : space group Fm -3 m (#225); Bravais cF (face-center cubic)
================================================================================
 Values of the parameters that define the memory need for DATASET  3.
     intxc =       0    ionmov =       2      iscf =      17    lmnmax =      18
     lnmax =       6     mgfft =      60  mpssoang =       3    mqgrid =    3739
     natom =       9  nloc_mem =       2    nspden =       1   nspinor =       1
    nsppol =       1      nsym =      48    n1xccc =       1    ntypat =       3
    occopt =       1   xclevel =       2
-    mband =          42        mffmem =           1         mkmem =           2
       mpw =        9020          nfft =      216000          nkpt =          10
Pmy_natom=         2
 PAW method is used; the additional fine FFT grid is defined by:
   mgfftf=        96    nfftf =    884736
================================================================================
P This job should need less than                     279.659 Mbytes of memory.
  Rough estimation (10% accuracy) of disk space for files :
_ WF disk file :     57.808 Mbytes ; DEN or POT disk file :      6.752 Mbytes.
================================================================================


 DATASET    4 : space group Fm -3 m (#225); Bravais cF (face-center cubic)
================================================================================
 Values of the parameters that define the memory need for DATASET  4.
     intxc =       0    ionmov =       2      iscf =      17    lmnmax =      18
     lnmax =       6     mgfft =      60  mpssoang =       3    mqgrid =    3700
     natom =       9  nloc_mem =       2    nspden =       1   nspinor =       1
    nsppol =       1      nsym =      48    n1xccc =       1    ntypat =       3
    occopt =       1   xclevel =       2
-    mband =          42        mffmem =           1         mkmem =           2
       mpw =        8733          nfft =      216000          nkpt =          10
Pmy_natom=         2
 PAW method is used; the additional fine FFT grid is defined by:
   mgfftf=        96    nfftf =    884736
================================================================================
P This job should need less than                     280.009 Mbytes of memory.
  Rough estimation (10% accuracy) of disk space for files :
_ WF disk file :     55.969 Mbytes ; DEN or POT disk file :      6.752 Mbytes.
================================================================================


 DATASET    5 : space group Fm -3 m (#225); Bravais cF (face-center cubic)
================================================================================
 Values of the parameters that define the memory need for DATASET  5.
     intxc =       0    ionmov =       2      iscf =      17    lmnmax =      18
     lnmax =       6     mgfft =      60  mpssoang =       3    mqgrid =    3662
     natom =       9  nloc_mem =       2    nspden =       1   nspinor =       1
    nsppol =       1      nsym =      48    n1xccc =       1    ntypat =       3
    occopt =       1   xclevel =       2
-    mband =          42        mffmem =           1         mkmem =           2
       mpw =        8459          nfft =      216000          nkpt =          10
Pmy_natom=         2
 PAW method is used; the additional fine FFT grid is defined by:
   mgfftf=        90    nfftf =    729000
================================================================================
P This job should need less than                     239.568 Mbytes of memory.
  Rough estimation (10% accuracy) of disk space for files :
_ WF disk file :     54.213 Mbytes ; DEN or POT disk file :      5.564 Mbytes.
================================================================================


 DATASET    6 : space group Fm -3 m (#225); Bravais cF (face-center cubic)
================================================================================
 Values of the parameters that define the memory need for DATASET  6.
     intxc =       0    ionmov =       2      iscf =      17    lmnmax =      18
     lnmax =       6     mgfft =      60  mpssoang =       3    mqgrid =    3623
     natom =       9  nloc_mem =       2    nspden =       1   nspinor =       1
    nsppol =       1      nsym =      48    n1xccc =       1    ntypat =       3
    occopt =       1   xclevel =       2
-    mband =          42        mffmem =           1         mkmem =           2
       mpw =        8200          nfft =      216000          nkpt =          10
Pmy_natom=         2
 PAW method is used; the additional fine FFT grid is defined by:
   mgfftf=        90    nfftf =    729000
================================================================================
P This job should need less than                     239.878 Mbytes of memory.
  Rough estimation (10% accuracy) of disk space for files :
_ WF disk file :     52.553 Mbytes ; DEN or POT disk file :      5.564 Mbytes.
================================================================================


 DATASET    7 : space group Fm -3 m (#225); Bravais cF (face-center cubic)
================================================================================
 Values of the parameters that define the memory need for DATASET  7.
     intxc =       0    ionmov =       2      iscf =      17    lmnmax =      18
     lnmax =       6     mgfft =      60  mpssoang =       3    mqgrid =    3585
     natom =       9  nloc_mem =       2    nspden =       1   nspinor =       1
    nsppol =       1      nsym =      48    n1xccc =       1    ntypat =       3
    occopt =       1   xclevel =       2
-    mband =          42        mffmem =           1         mkmem =           2
       mpw =        7944          nfft =      216000          nkpt =          10
Pmy_natom=         2
 PAW method is used; the additional fine FFT grid is defined by:
   mgfftf=        90    nfftf =    729000
================================================================================
P This job should need less than                     240.222 Mbytes of memory.
  Rough estimation (10% accuracy) of disk space for files :
_ WF disk file :     50.913 Mbytes ; DEN or POT disk file :      5.564 Mbytes.
================================================================================


 DATASET    8 : space group Fm -3 m (#225); Bravais cF (face-center cubic)
================================================================================
 Values of the parameters that define the memory need for DATASET  8.
     intxc =       0    ionmov =       2      iscf =      17    lmnmax =      18
     lnmax =       6     mgfft =      60  mpssoang =       3    mqgrid =    3546
     natom =       9  nloc_mem =       2    nspden =       1   nspinor =       1
    nsppol =       1      nsym =      48    n1xccc =       1    ntypat =       3
    occopt =       1   xclevel =       2
-    mband =          42        mffmem =           1         mkmem =           2
       mpw =        7683          nfft =      216000          nkpt =          10
Pmy_natom=         2
 PAW method is used; the additional fine FFT grid is defined by:
   mgfftf=        90    nfftf =    729000
================================================================================
P This job should need less than                     240.591 Mbytes of memory.
  Rough estimation (10% accuracy) of disk space for files :
_ WF disk file :     49.240 Mbytes ; DEN or POT disk file :      5.564 Mbytes.
================================================================================


 DATASET    9 : space group Fm -3 m (#225); Bravais cF (face-center cubic)
================================================================================
 Values of the parameters that define the memory need for DATASET  9.
     intxc =       0    ionmov =       2      iscf =      17    lmnmax =      18
     lnmax =       6     mgfft =      60  mpssoang =       3    mqgrid =    3508
     natom =       9  nloc_mem =       2    nspden =       1   nspinor =       1
    nsppol =       1      nsym =      48    n1xccc =       1    ntypat =       3
    occopt =       1   xclevel =       2
-    mband =          42        mffmem =           1         mkmem =           2
       mpw =        7465          nfft =      216000          nkpt =          10
Pmy_natom=         2
 PAW method is used; the additional fine FFT grid is defined by:
   mgfftf=        90    nfftf =    729000
================================================================================
P This job should need less than                     241.055 Mbytes of memory.
  Rough estimation (10% accuracy) of disk space for files :
_ WF disk file :     47.843 Mbytes ; DEN or POT disk file :      5.564 Mbytes.
================================================================================


 DATASET   10 : space group Fm -3 m (#225); Bravais cF (face-center cubic)
================================================================================
 Values of the parameters that define the memory need for DATASET 10.
     intxc =       0    ionmov =       2      iscf =      17    lmnmax =      18
     lnmax =       6     mgfft =      54  mpssoang =       3    mqgrid =    3469
     natom =       9  nloc_mem =       2    nspden =       1   nspinor =       1
    nsppol =       1      nsym =      48    n1xccc =       1    ntypat =       3
    occopt =       1   xclevel =       2
-    mband =          42        mffmem =           1         mkmem =           2
       mpw =        7213          nfft =      157464          nkpt =          10
Pmy_natom=         2
 PAW method is used; the additional fine FFT grid is defined by:
   mgfftf=        90    nfftf =    729000
================================================================================
P This job should need less than                     232.792 Mbytes of memory.
  Rough estimation (10% accuracy) of disk space for files :
_ WF disk file :     46.228 Mbytes ; DEN or POT disk file :      5.564 Mbytes.
================================================================================

--------------------------------------------------------------------------------
------------- Echo of variables that govern the present computation ------------
--------------------------------------------------------------------------------
-
- outvars: echo of selected default values                                      
-   iomode0 =  0 , fftalg0 =112 , wfoptalg0 = 10
-
- outvars: echo of global parameters not present in the input file              
-  max_nthreads =    0
-
 -outvars: echo values of preprocessed input variables --------
            acell1     1.4272286659E+01  1.4272286659E+01  1.4272286659E+01 Bohr
            acell2     1.4128122148E+01  1.4128122148E+01  1.4128122148E+01 Bohr
            acell3     1.3983957636E+01  1.3983957636E+01  1.3983957636E+01 Bohr
            acell4     1.3839793124E+01  1.3839793124E+01  1.3839793124E+01 Bohr
            acell5     1.3695628612E+01  1.3695628612E+01  1.3695628612E+01 Bohr
            acell6     1.3551464101E+01  1.3551464101E+01  1.3551464101E+01 Bohr
            acell7     1.3407299589E+01  1.3407299589E+01  1.3407299589E+01 Bohr
            acell8     1.3263135077E+01  1.3263135077E+01  1.3263135077E+01 Bohr
            acell9     1.3118970566E+01  1.3118970566E+01  1.3118970566E+01 Bohr
            acell10    1.2974806054E+01  1.2974806054E+01  1.2974806054E+01 Bohr
              amu      1.32905430E+02  3.54527000E+01  9.12240000E+01
           diemac      1.20000000E+01
          dilatmx      1.15000000E+00
             ecut      1.60000000E+01 Hartree
           ecutsm      5.00000000E-01 Hartree
-          fftalg         112
          getxred1          0
          getxred2         -1
          getxred3         -1
          getxred4         -1
          getxred5         -1
          getxred6         -1
          getxred7         -1
          getxred8         -1
          getxred9         -1
          getxred10        -1
           ionmov           2
              ixc     -101130
           jdtset        1    2    3    4    5    6    7    8    9   10
              kpt     -1.25000000E-01 -2.50000000E-01  0.00000000E+00
                      -1.25000000E-01  5.00000000E-01  0.00000000E+00
                      -2.50000000E-01 -3.75000000E-01  0.00000000E+00
                      -1.25000000E-01 -3.75000000E-01  1.25000000E-01
                      -1.25000000E-01  2.50000000E-01  0.00000000E+00
                      -2.50000000E-01  3.75000000E-01  0.00000000E+00
                      -3.75000000E-01  5.00000000E-01  0.00000000E+00
                      -2.50000000E-01  5.00000000E-01  1.25000000E-01
                      -1.25000000E-01  0.00000000E+00  0.00000000E+00
                      -3.75000000E-01  0.00000000E+00  0.00000000E+00
         kptrlatt        4   -4    4     -4    4    4     -4   -4    4
          kptrlen1     8.07362454E+01
          kptrlen2     7.99207278E+01
          kptrlen3     7.91052102E+01
          kptrlen4     7.82896925E+01
          kptrlen5     7.74741749E+01
          kptrlen6     7.66586573E+01
          kptrlen7     7.58431397E+01
          kptrlen8     7.50276220E+01
          kptrlen9     7.42121044E+01
          kptrlen10    7.33965868E+01
P           mkmem           2
            natom           9
            nband          42
           ndtset          10
            ngfft1         60      60      60
            ngfft2         60      60      60
            ngfft3         60      60      60
            ngfft4         60      60      60
            ngfft5         60      60      60
            ngfft6         60      60      60
            ngfft7         60      60      60
            ngfft8         60      60      60
            ngfft9         60      60      60
            ngfft10        54      54      54
          ngfftdg1         96      96      96
          ngfftdg2         96      96      96
          ngfftdg3         96      96      96
          ngfftdg4         96      96      96
          ngfftdg5         90      90      90
          ngfftdg6         90      90      90
          ngfftdg7         90      90      90
          ngfftdg8         90      90      90
          ngfftdg9         90      90      90
          ngfftdg10        90      90      90
             nkpt          10
            nstep        2500
             nsym          48
            ntime        1000
           ntypat           3
              occ      2.000000  2.000000  2.000000  2.000000  2.000000  2.000000
                       2.000000  2.000000  2.000000  2.000000  2.000000  2.000000
                       2.000000  2.000000  2.000000  2.000000  2.000000  2.000000
                       2.000000  2.000000  2.000000  2.000000  2.000000  2.000000
                       2.000000  2.000000  2.000000  2.000000  2.000000  2.000000
                       2.000000  2.000000  2.000000  2.000000  2.000000  2.000000
                       0.000000  0.000000  0.000000  0.000000  0.000000  0.000000
          optcell           3
        optforces           1
        pawecutdg      4.00000000E+01 Hartree
            prtwf           0
            rprim      0.0000000000E+00  7.0710678119E-01  7.0710678119E-01
                       7.0710678119E-01  0.0000000000E+00  7.0710678119E-01
                       7.0710678119E-01  7.0710678119E-01  0.0000000000E+00
           shiftk      5.00000000E-01  5.00000000E-01  5.00000000E-01
          spgroup         225
           symrel      1  0  0   0  1  0   0  0  1      -1  0  0   0 -1  0   0  0 -1
                       0 -1  1   0 -1  0   1 -1  0       0  1 -1   0  1  0  -1  1  0
                      -1  0  0  -1  0  1  -1  1  0       1  0  0   1  0 -1   1 -1  0
                       0  1 -1   1  0 -1   0  0 -1       0 -1  1  -1  0  1   0  0  1
                      -1  0  0  -1  1  0  -1  0  1       1  0  0   1 -1  0   1  0 -1
                       0 -1  1   1 -1  0   0 -1  0       0  1 -1  -1  1  0   0  1  0
                       1  0  0   0  0  1   0  1  0      -1  0  0   0  0 -1   0 -1  0
                       0  1 -1   0  0 -1   1  0 -1       0 -1  1   0  0  1  -1  0  1
                      -1  0  1  -1  1  0  -1  0  0       1  0 -1   1 -1  0   1  0  0
                       0 -1  0   1 -1  0   0 -1  1       0  1  0  -1  1  0   0  1 -1
                       1  0 -1   0  0 -1   0  1 -1      -1  0  1   0  0  1   0 -1  1
                       0  1  0   0  0  1   1  0  0       0 -1  0   0  0 -1  -1  0  0
                       1  0 -1   0  1 -1   0  0 -1      -1  0  1   0 -1  1   0  0  1
                       0 -1  0   0 -1  1   1 -1  0       0  1  0   0  1 -1  -1  1  0
                      -1  0  1  -1  0  0  -1  1  0       1  0 -1   1  0  0   1 -1  0
                       0  1  0   1  0  0   0  0  1       0 -1  0  -1  0  0   0  0 -1
                       0  0 -1   0  1 -1   1  0 -1       0  0  1   0 -1  1  -1  0  1
                       1 -1  0   0 -1  1   0 -1  0      -1  1  0   0  1 -1   0  1  0
                       0  0  1   1  0  0   0  1  0       0  0 -1  -1  0  0   0 -1  0
                      -1  1  0  -1  0  0  -1  0  1       1 -1  0   1  0  0   1  0 -1
                       0  0  1   0  1  0   1  0  0       0  0 -1   0 -1  0  -1  0  0
                       1 -1  0   0 -1  0   0 -1  1      -1  1  0   0  1  0   0  1 -1
                       0  0 -1   1  0 -1   0  1 -1       0  0  1  -1  0  1   0 -1  1
                      -1  1  0  -1  0  1  -1  0  0       1 -1  0   1  0 -1   1  0  0
           toldff      1.00000000E-08
           tolmxf      1.00000000E-05
            typat      1  1  2  2  2  2  2  2  3
           useylm           1
              wtk        0.09375    0.09375    0.09375    0.18750    0.09375    0.09375
                         0.09375    0.18750    0.03125    0.03125
           xangst1     2.6702363121E+00  2.6702363121E+00  2.6702363121E+00
                       8.0107089363E+00  8.0107089363E+00  8.0107089363E+00
                       5.3404726242E+00  5.3404726242E+00  2.4616068866E+00
                       5.3404726242E+00  5.3404726242E+00  8.2193383618E+00
                       8.2193383618E+00  5.3404726242E+00  5.3404726242E+00
                       5.3404726242E+00  8.2193383618E+00  5.3404726242E+00
                       5.3404726242E+00  2.4616068866E+00  5.3404726242E+00
                       2.4616068866E+00  5.3404726242E+00  5.3404726242E+00
                      -1.0322880052E-18  2.8606238464E-18  3.0876688787E-18
           xangst2     2.6432642281E+00  2.6432642281E+00  2.6432642281E+00
                       7.9297926844E+00  7.9297926844E+00  7.9297926844E+00
                       5.2865284563E+00  5.2865284563E+00  2.4367421706E+00
                       5.2865284563E+00  5.2865284563E+00  8.1363147420E+00
                       8.1363147420E+00  5.2865284563E+00  5.2865284563E+00
                       5.2865284563E+00  8.1363147420E+00  5.2865284563E+00
                       5.2865284563E+00  2.4367421706E+00  5.2865284563E+00
                       2.4367421706E+00  5.2865284563E+00  5.2865284563E+00
                      -1.0218608536E-18  2.8317286561E-18  3.0564803042E-18
           xangst3     2.6162921442E+00  2.6162921442E+00  2.6162921442E+00
                       7.8488764325E+00  7.8488764325E+00  7.8488764325E+00
                       5.2325842883E+00  5.2325842883E+00  2.4118774545E+00
                       5.2325842883E+00  5.2325842883E+00  8.0532911221E+00
                       8.0532911221E+00  5.2325842883E+00  5.2325842883E+00
                       5.2325842883E+00  8.0532911221E+00  5.2325842883E+00
                       5.2325842883E+00  2.4118774545E+00  5.2325842883E+00
                       2.4118774545E+00  5.2325842883E+00  5.2325842883E+00
                      -1.0114337021E-18  2.8028334657E-18  3.0252917296E-18
           xangst4     2.5893200602E+00  2.5893200602E+00  2.5893200602E+00
                       7.7679601806E+00  7.7679601806E+00  7.7679601806E+00
                       5.1786401204E+00  5.1786401204E+00  2.3870127385E+00
                       5.1786401204E+00  5.1786401204E+00  7.9702675023E+00
                       7.9702675023E+00  5.1786401204E+00  5.1786401204E+00
                       5.1786401204E+00  7.9702675023E+00  5.1786401204E+00
                       5.1786401204E+00  2.3870127385E+00  5.1786401204E+00
                       2.3870127385E+00  5.1786401204E+00  5.1786401204E+00
                      -1.0010065505E-18  2.7739382753E-18  2.9941031551E-18
           xangst5     2.5623479762E+00  2.5623479762E+00  2.5623479762E+00
                       7.6870439287E+00  7.6870439287E+00  7.6870439287E+00
                       5.1246959525E+00  5.1246959525E+00  2.3621480225E+00
                       5.1246959525E+00  5.1246959525E+00  7.8872438825E+00
                       7.8872438825E+00  5.1246959525E+00  5.1246959525E+00
                       5.1246959525E+00  7.8872438825E+00  5.1246959525E+00
                       5.1246959525E+00  2.3621480225E+00  5.1246959525E+00
                       2.3621480225E+00  5.1246959525E+00  5.1246959525E+00
                      -9.9057939894E-19  2.7450430850E-18  2.9629145806E-18
           xangst6     2.5353758923E+00  2.5353758923E+00  2.5353758923E+00
                       7.6061276769E+00  7.6061276769E+00  7.6061276769E+00
                       5.0707517846E+00  5.0707517846E+00  2.3372833065E+00
                       5.0707517846E+00  5.0707517846E+00  7.8042202627E+00
                       7.8042202627E+00  5.0707517846E+00  5.0707517846E+00
                       5.0707517846E+00  7.8042202627E+00  5.0707517846E+00
                       5.0707517846E+00  2.3372833065E+00  5.0707517846E+00
                       2.3372833065E+00  5.0707517846E+00  5.0707517846E+00
                      -9.8015224738E-19  2.7161478946E-18  2.9317260060E-18
           xangst7     2.5084038083E+00  2.5084038083E+00  2.5084038083E+00
                       7.5252114250E+00  7.5252114250E+00  7.5252114250E+00
                       5.0168076167E+00  5.0168076167E+00  2.3124185904E+00
                       5.0168076167E+00  5.0168076167E+00  7.7211966429E+00
                       7.7211966429E+00  5.0168076167E+00  5.0168076167E+00
                       5.0168076167E+00  7.7211966429E+00  5.0168076167E+00
                       5.0168076167E+00  2.3124185904E+00  5.0168076167E+00
                       2.3124185904E+00  5.0168076167E+00  5.0168076167E+00
                      -9.6972509581E-19  2.6872527042E-18  2.9005374315E-18
           xangst8     2.4814317244E+00  2.4814317244E+00  2.4814317244E+00
                       7.4442951731E+00  7.4442951731E+00  7.4442951731E+00
                       4.9628634487E+00  4.9628634487E+00  2.2875538744E+00
                       4.9628634487E+00  4.9628634487E+00  7.6381730231E+00
                       7.6381730231E+00  4.9628634487E+00  4.9628634487E+00
                       4.9628634487E+00  7.6381730231E+00  4.9628634487E+00
                       4.9628634487E+00  2.2875538744E+00  4.9628634487E+00
                       2.2875538744E+00  4.9628634487E+00  4.9628634487E+00
                      -9.5929794424E-19  2.6583575139E-18  2.8693488570E-18
           xangst9     2.4544596404E+00  2.4544596404E+00  2.4544596404E+00
                       7.3633789212E+00  7.3633789212E+00  7.3633789212E+00
                       4.9089192808E+00  4.9089192808E+00  2.2626891584E+00
                       4.9089192808E+00  4.9089192808E+00  7.5551494032E+00
                       7.5551494032E+00  4.9089192808E+00  4.9089192808E+00
                       4.9089192808E+00  7.5551494032E+00  4.9089192808E+00
                       4.9089192808E+00  2.2626891584E+00  4.9089192808E+00
                       2.2626891584E+00  4.9089192808E+00  4.9089192808E+00
                      -9.4887079267E-19  2.6294623235E-18  2.8381602824E-18
           xangst10    2.4274875564E+00  2.4274875564E+00  2.4274875564E+00
                       7.2824626693E+00  7.2824626693E+00  7.2824626693E+00
                       4.8549751129E+00  4.8549751129E+00  2.2378244423E+00
                       4.8549751129E+00  4.8549751129E+00  7.4721257834E+00
                       7.4721257834E+00  4.8549751129E+00  4.8549751129E+00
                       4.8549751129E+00  7.4721257834E+00  4.8549751129E+00
                       4.8549751129E+00  2.2378244423E+00  4.8549751129E+00
                       2.2378244423E+00  4.8549751129E+00  4.8549751129E+00
                      -9.3844364110E-19  2.6005671331E-18  2.8069717079E-18
            xcart1     5.0460153399E+00  5.0460153399E+00  5.0460153399E+00
                       1.5138046020E+01  1.5138046020E+01  1.5138046020E+01
                       1.0092030680E+01  1.0092030680E+01  4.6517628625E+00
                       1.0092030680E+01  1.0092030680E+01  1.5532298497E+01
                       1.5532298497E+01  1.0092030680E+01  1.0092030680E+01
                       1.0092030680E+01  1.5532298497E+01  1.0092030680E+01
                       1.0092030680E+01  4.6517628625E+00  1.0092030680E+01
                       4.6517628625E+00  1.0092030680E+01  1.0092030680E+01
                      -1.9507416201E-18  5.4057956389E-18  5.8348485698E-18
            xcart2     4.9950454880E+00  4.9950454880E+00  4.9950454880E+00
                       1.4985136464E+01  1.4985136464E+01  1.4985136464E+01
                       9.9900909760E+00  9.9900909760E+00  4.6047753588E+00
                       9.9900909760E+00  9.9900909760E+00  1.5375406593E+01
                       1.5375406593E+01  9.9900909760E+00  9.9900909760E+00
                       9.9900909760E+00  1.5375406593E+01  9.9900909760E+00
                       9.9900909760E+00  4.6047753588E+00  9.9900909760E+00
                       4.6047753588E+00  9.9900909760E+00  9.9900909760E+00
                      -1.9310371593E-18  5.3511916426E-18  5.7759107054E-18
            xcart3     4.9440756361E+00  4.9440756361E+00  4.9440756361E+00
                       1.4832226908E+01  1.4832226908E+01  1.4832226908E+01
                       9.8881512722E+00  9.8881512722E+00  4.5577878551E+00
                       9.8881512722E+00  9.8881512722E+00  1.5218514689E+01
                       1.5218514689E+01  9.8881512722E+00  9.8881512722E+00
                       9.8881512722E+00  1.5218514689E+01  9.8881512722E+00
                       9.8881512722E+00  4.5577878551E+00  9.8881512722E+00
                       4.5577878551E+00  9.8881512722E+00  9.8881512722E+00
                      -1.9113326985E-18  5.2965876462E-18  5.7169728411E-18
            xcart4     4.8931057842E+00  4.8931057842E+00  4.8931057842E+00
                       1.4679317353E+01  1.4679317353E+01  1.4679317353E+01
                       9.7862115684E+00  9.7862115684E+00  4.5108003515E+00
                       9.7862115684E+00  9.7862115684E+00  1.5061622785E+01
                       1.5061622785E+01  9.7862115684E+00  9.7862115684E+00
                       9.7862115684E+00  1.5061622785E+01  9.7862115684E+00
                       9.7862115684E+00  4.5108003515E+00  9.7862115684E+00
                       4.5108003515E+00  9.7862115684E+00  9.7862115684E+00
                      -1.8916282377E-18  5.2419836499E-18  5.6580349767E-18
            xcart5     4.8421359323E+00  4.8421359323E+00  4.8421359323E+00
                       1.4526407797E+01  1.4526407797E+01  1.4526407797E+01
                       9.6842718645E+00  9.6842718645E+00  4.4638128478E+00
                       9.6842718645E+00  9.6842718645E+00  1.4904730881E+01
                       1.4904730881E+01  9.6842718645E+00  9.6842718645E+00
                       9.6842718645E+00  1.4904730881E+01  9.6842718645E+00
                       9.6842718645E+00  4.4638128478E+00  9.6842718645E+00
                       4.4638128478E+00  9.6842718645E+00  9.6842718645E+00
                      -1.8719237769E-18  5.1873796535E-18  5.5990971124E-18
            xcart6     4.7911660803E+00  4.7911660803E+00  4.7911660803E+00
                       1.4373498241E+01  1.4373498241E+01  1.4373498241E+01
                       9.5823321607E+00  9.5823321607E+00  4.4168253442E+00
                       9.5823321607E+00  9.5823321607E+00  1.4747838977E+01
                       1.4747838977E+01  9.5823321607E+00  9.5823321607E+00
                       9.5823321607E+00  1.4747838977E+01  9.5823321607E+00
                       9.5823321607E+00  4.4168253442E+00  9.5823321607E+00
                       4.4168253442E+00  9.5823321607E+00  9.5823321607E+00
                      -1.8522193161E-18  5.1327756572E-18  5.5401592481E-18
            xcart7     4.7401962284E+00  4.7401962284E+00  4.7401962284E+00
                       1.4220588685E+01  1.4220588685E+01  1.4220588685E+01
                       9.4803924568E+00  9.4803924568E+00  4.3698378405E+00
                       9.4803924568E+00  9.4803924568E+00  1.4590947073E+01
                       1.4590947073E+01  9.4803924568E+00  9.4803924568E+00
                       9.4803924568E+00  1.4590947073E+01  9.4803924568E+00
                       9.4803924568E+00  4.3698378405E+00  9.4803924568E+00
                       4.3698378405E+00  9.4803924568E+00  9.4803924568E+00
                      -1.8325148553E-18  5.0781716608E-18  5.4812213837E-18
            xcart8     4.6892263765E+00  4.6892263765E+00  4.6892263765E+00
                       1.4067679130E+01  1.4067679130E+01  1.4067679130E+01
                       9.3784527530E+00  9.3784527530E+00  4.3228503368E+00
                       9.3784527530E+00  9.3784527530E+00  1.4434055169E+01
                       1.4434055169E+01  9.3784527530E+00  9.3784527530E+00
                       9.3784527530E+00  1.4434055169E+01  9.3784527530E+00
                       9.3784527530E+00  4.3228503368E+00  9.3784527530E+00
                       4.3228503368E+00  9.3784527530E+00  9.3784527530E+00
                      -1.8128103945E-18  5.0235676645E-18  5.4222835194E-18
            xcart9     4.6382565246E+00  4.6382565246E+00  4.6382565246E+00
                       1.3914769574E+01  1.3914769574E+01  1.3914769574E+01
                       9.2765130492E+00  9.2765130492E+00  4.2758628332E+00
                       9.2765130492E+00  9.2765130492E+00  1.4277163265E+01
                       1.4277163265E+01  9.2765130492E+00  9.2765130492E+00
                       9.2765130492E+00  1.4277163265E+01  9.2765130492E+00
                       9.2765130492E+00  4.2758628332E+00  9.2765130492E+00
                       4.2758628332E+00  9.2765130492E+00  9.2765130492E+00
                      -1.7931059336E-18  4.9689636681E-18  5.3633456550E-18
            xcart10    4.5872866727E+00  4.5872866727E+00  4.5872866727E+00
                       1.3761860018E+01  1.3761860018E+01  1.3761860018E+01
                       9.1745733453E+00  9.1745733453E+00  4.2288753295E+00
                       9.1745733453E+00  9.1745733453E+00  1.4120271361E+01
                       1.4120271361E+01  9.1745733453E+00  9.1745733453E+00
                       9.1745733453E+00  1.4120271361E+01  9.1745733453E+00
                       9.1745733453E+00  4.2288753295E+00  9.1745733453E+00
                       4.2288753295E+00  9.1745733453E+00  9.1745733453E+00
                      -1.7734014728E-18  4.9143596718E-18  5.3044077907E-18
             xred      2.5000000000E-01  2.5000000000E-01  2.5000000000E-01
                       7.5000000000E-01  7.5000000000E-01  7.5000000000E-01
                       2.3046713838E-01  2.3046713838E-01  7.6953286162E-01
                       7.6953286162E-01  7.6953286162E-01  2.3046713838E-01
                       2.3046713838E-01  7.6953286162E-01  7.6953286162E-01
                       7.6953286162E-01  2.3046713838E-01  7.6953286162E-01
                       2.3046713838E-01  7.6953286162E-01  2.3046713838E-01
                       7.6953286162E-01  2.3046713838E-01  2.3046713838E-01
                       6.5355458417E-19 -7.5390609560E-20 -1.1790464310E-19
            znucl       55.00000   17.00000   40.00000

================================================================================

 chkinp: Checking input parameters for consistency, jdtset=   1.

 chkinp: Checking input parameters for consistency, jdtset=   2.

 chkinp: Checking input parameters for consistency, jdtset=   3.

 chkinp: Checking input parameters for consistency, jdtset=   4.

 chkinp: Checking input parameters for consistency, jdtset=   5.

 chkinp: Checking input parameters for consistency, jdtset=   6.

 chkinp: Checking input parameters for consistency, jdtset=   7.

 chkinp: Checking input parameters for consistency, jdtset=   8.

 chkinp: Checking input parameters for consistency, jdtset=   9.

 chkinp: Checking input parameters for consistency, jdtset=  10.

================================================================================
== DATASET  1 ==================================================================
-   mpi_nproc: 6, omp_nthreads: -1 (-1 if OMP is not activated)


--- !DatasetInfo
iteration_state: {dtset: 1, }
dimensions: {natom: 9, nkpt: 10, mband: 42, nsppol: 1, nspinor: 1, nspden: 1, mpw: 9588, }
cutoff_energies: {ecut:  16.0, pawecutdg:  40.0, }
electrons: {nelect:   7.20000000E+01, charge:   0.00000000E+00, occopt:   1.00000000E+00, tsmear:   1.00000000E-02, }
meta: {optdriver: 0, ionmov: 2, optcell: 3, iscf: 17, paral_kgb: 0, }
...

 Real(R)+Recip(G) space primitive vectors, cartesian coordinates (Bohr,Bohr^-1):
 R(1)=  0.0000000 10.0920307 10.0920307  G(1)= -0.0495440  0.0495440  0.0495440
 R(2)= 10.0920307  0.0000000 10.0920307  G(2)=  0.0495440 -0.0495440  0.0495440
 R(3)= 10.0920307 10.0920307  0.0000000  G(3)=  0.0495440  0.0495440 -0.0495440
 Unit cell volume ucvol=  2.0557281E+03 bohr^3
 Angles (23,13,12)=  6.00000000E+01  6.00000000E+01  6.00000000E+01 degrees

 Coarse grid specifications (used for wave-functions):

 getcut: wavevector=  0.0000  0.0000  0.0000  ngfft=  60  60  60
         ecut(hartree)=     21.160   => boxcut(ratio)=   2.03018

 Fine grid specifications (used for densities):

 getcut: wavevector=  0.0000  0.0000  0.0000  ngfft=  96  96  96
         ecut(hartree)=     52.900   => boxcut(ratio)=   2.05440

--- Pseudopotential description ------------------------------------------------
- pspini: atom type   1  psp file is ../../../Psps_for_tests/ATOMICDATA/Cs.GGA_PBE-JTH.xml
- pspatm: opening atomic psp file    ../../../Psps_for_tests/ATOMICDATA/Cs.GGA_PBE-JTH.xml
- pspatm : Reading pseudopotential header in XML form from ../../../Psps_for_tests/ATOMICDATA/Cs.GGA_PBE-JTH.xml
 Pseudopotential format is: paw10
 basis_size (lnmax)=  6 (lmn_size= 18), orbitals=   0   0   1   1   2   2
 Spheres core radius: rc_sph= 2.20660278
 1 radial meshes are used:
  - mesh 1: r(i)=AA*[exp(BB*(i-1))-1], size=1500 , AA= 0.15922E-03 BB= 0.87573E-02
 Shapefunction is SIN type: shapef(r)=[sin(pi*r/rshp)/(pi*r/rshp)]**2
 Radius for shape functions =  2.00394208
 mmax= 1500
 Radial grid used for partial waves is grid 1
 Radial grid used for projectors is grid 1
 Radial grid used for (t)core density is grid 1
 Radial grid used for Vloc is grid 1
 Radial grid used for pseudo valence density is grid 1
 Mesh size for Vloc has been set to 1341 to avoid numerical noise.
 Compensation charge density is not taken into account in XC energy/potential
 pspatm: atomic psp has been read  and splines computed

- pspini: atom type   2  psp file is ../../../Psps_for_tests/ATOMICDATA/Cl.GGA_PBE-JTH.xml
- pspatm: opening atomic psp file    ../../../Psps_for_tests/ATOMICDATA/Cl.GGA_PBE-JTH.xml
- pspatm : Reading pseudopotential header in XML form from ../../../Psps_for_tests/ATOMICDATA/Cl.GGA_PBE-JTH.xml
 Pseudopotential format is: paw10
 basis_size (lnmax)=  4 (lmn_size=  8), orbitals=   0   0   1   1
 Spheres core radius: rc_sph= 1.80315674
 1 radial meshes are used:
  - mesh 1: r(i)=AA*[exp(BB*(i-1))-1], size=1400 , AA= 0.50355E-03 BB= 0.85603E-02
 Shapefunction is SIN type: shapef(r)=[sin(pi*r/rshp)/(pi*r/rshp)]**2
 Radius for shape functions =  1.61320365
 mmax= 1400
 Radial grid used for partial waves is grid 1
 Radial grid used for projectors is grid 1
 Radial grid used for (t)core density is grid 1
 Radial grid used for Vloc is grid 1
 Radial grid used for pseudo valence density is grid 1
 Mesh size for Vloc has been set to 1238 to avoid numerical noise.
 Compensation charge density is not taken into account in XC energy/potential
 pspatm: atomic psp has been read  and splines computed

- pspini: atom type   3  psp file is ../../../Psps_for_tests/ATOMICDATA/Zr.GGA_PBE-JTH.xml
- pspatm: opening atomic psp file    ../../../Psps_for_tests/ATOMICDATA/Zr.GGA_PBE-JTH.xml
- pspatm : Reading pseudopotential header in XML form from ../../../Psps_for_tests/ATOMICDATA/Zr.GGA_PBE-JTH.xml
 Pseudopotential format is: paw10
 basis_size (lnmax)=  6 (lmn_size= 18), orbitals=   0   0   1   1   2   2
 Spheres core radius: rc_sph= 2.21000000
 1 radial meshes are used:
  - mesh 1: r(i)=AA*[exp(BB*(i-1))-1], size= 941 , AA= 0.35256E-03 BB= 0.14102E-01
 Shapefunction is BESSEL type: shapef(r,l)=aa(1,l)*jl(q(1,l)*r)+aa(2,l)*jl(q(2,l)*r)
 Radius for shape functions =  2.21000000
 mmax=  941
 Radial grid used for partial waves is grid 1
 Radial grid used for projectors is grid 1
 Radial grid used for (t)core density is grid 1
 Radial grid used for Vloc is grid 1
 Radial grid used for pseudo valence density is grid 1
 Mesh size for Vloc has been set to  777 to avoid numerical noise.
 Compensation charge density is not taken into account in XC energy/potential
 pspatm: atomic psp has been read  and splines computed

   1.02542921E+04                                ecore*ucvol(ha*bohr**3)
--------------------------------------------------------------------------------

_setup2: Arith. and geom. avg. npw (full set) are    9558.844    9558.839

================================================================================

=== [ionmov= 2] Broyden-Fletcher-Goldfard-Shanno method (forces)            
================================================================================

--- Iteration: (   1/1000) Internal Cycle: (1/1)
--------------------------------------------------------------------------------

---SELF-CONSISTENT-FIELD CONVERGENCE--------------------------------------------

--- !BeginCycle
iteration_state: {dtset: 1, itime: 1, icycle: 1, }
solver: {iscf: 17, nstep: 2500, nline: 4, wfoptalg: 10, }
tolerances: {toldff: 1.00E-08, }
...

     iter   Etot(hartree)      deltaE(h)  residm     nres2    diffor    maxfor
 ETOT  1  -179.71127537891    -1.797E+02 2.008E-01 3.332E+01 8.389E-02 8.389E-02
 ETOT  2  -179.82677339025    -1.155E-01 1.554E-02 7.201E+00 1.498E-01 6.593E-02
 ETOT  3  -179.82449623622     2.277E-03 3.119E-03 1.604E+00 5.843E-02 7.498E-03
 ETOT  4  -179.82515497442    -6.587E-04 2.315E-03 6.208E-02 2.880E-03 1.038E-02
 ETOT  5  -179.82505941503     9.556E-05 8.417E-04 9.919E-03 1.360E-02 3.219E-03
 ETOT  6  -179.82510283006    -4.342E-05 1.396E-03 5.522E-04 1.829E-03 5.048E-03
 ETOT  7  -179.82510574328    -2.913E-06 2.298E-04 1.504E-04 5.075E-04 5.555E-03
 ETOT  8  -179.82510667516    -9.319E-07 2.353E-04 1.132E-05 2.790E-04 5.835E-03
 ETOT  9  -179.82510669896    -2.380E-08 7.105E-05 7.902E-07 7.503E-05 5.760E-03
 ETOT 10  -179.82510670349    -4.535E-09 1.415E-04 9.588E-08 1.078E-05 5.770E-03
 ETOT 11  -179.82510670387    -3.726E-10 6.537E-05 1.889E-08 9.668E-07 5.771E-03
 ETOT 12  -179.82510670391    -4.275E-11 1.261E-04 5.002E-09 4.302E-06 5.767E-03
 ETOT 13  -179.82510670388     2.697E-11 5.747E-05 1.072E-09 1.586E-07 5.767E-03
 ETOT 14  -179.82510670386     1.850E-11 1.032E-04 1.830E-10 9.842E-07 5.766E-03
 ETOT 15  -179.82510670385     1.151E-11 4.601E-05 1.424E-11 3.070E-07 5.766E-03
 ETOT 16  -179.82510670387    -1.674E-11 8.108E-05 1.210E-12 1.132E-07 5.765E-03
 ETOT 17  -179.82510670387    -5.684E-14 3.410E-05 8.378E-14 1.137E-08 5.765E-03
 ETOT 18  -179.82510670385     1.646E-11 6.200E-05 7.608E-15 3.907E-09 5.765E-03
 ETOT 19  -179.82510670386    -5.770E-12 2.404E-05 9.794E-16 2.013E-09 5.765E-03

 At SCF step   19, forces are converged : 
  for the second time, max diff in force=  2.013E-09 < toldff=  1.000E-08

 Cartesian components of stress tensor (hartree/bohr^3)
  sigma(1 1)= -3.30121311E-05  sigma(3 2)=  0.00000000E+00
  sigma(2 2)= -3.30121311E-05  sigma(3 1)=  0.00000000E+00
  sigma(3 3)= -3.30121311E-05  sigma(2 1)=  0.00000000E+00


--- !ResultsGS
iteration_state: {dtset: 1, itime: 1, icycle: 1, }
comment   : Summary of ground state results
lattice_vectors:
- [  0.0000000,  10.0920307,  10.0920307, ]
- [ 10.0920307,   0.0000000,  10.0920307, ]
- [ 10.0920307,  10.0920307,   0.0000000, ]
lattice_lengths: [  14.27229,   14.27229,   14.27229, ]
lattice_angles: [ 60.000,  60.000,  60.000, ] # degrees, (23, 13, 12)
lattice_volume:   2.0557281E+03
convergence: {deltae: -5.770E-12, res2:  9.794E-16, residm:  2.404E-05, diffor:  2.013E-09, }
etotal    :  -1.79825107E+02
entropy   :   0.00000000E+00
fermie    :  -1.11958703E-02
cartesian_stress_tensor: # hartree/bohr^3
- [ -3.30121311E-05,   0.00000000E+00,   0.00000000E+00, ]
- [  0.00000000E+00,  -3.30121311E-05,   0.00000000E+00, ]
- [  0.00000000E+00,   0.00000000E+00,  -3.30121311E-05, ]
pressure_GPa:   9.7125E-01
xred      :
- [  2.5000E-01,   2.5000E-01,   2.5000E-01, Cs]
- [  7.5000E-01,   7.5000E-01,   7.5000E-01, Cs]
- [  2.3047E-01,   2.3047E-01,   7.6953E-01, Cl]
- [  7.6953E-01,   7.6953E-01,   2.3047E-01, Cl]
- [  2.3047E-01,   7.6953E-01,   7.6953E-01, Cl]
- [  7.6953E-01,   2.3047E-01,   7.6953E-01, Cl]
- [  2.3047E-01,   7.6953E-01,   2.3047E-01, Cl]
- [  7.6953E-01,   2.3047E-01,   2.3047E-01, Cl]
- [  6.5355E-19,  -7.5391E-20,  -1.1790E-19, Zr]
cartesian_forces: # hartree/bohr
- [  9.63735264E-20,   1.56471542E-19,  -1.24582509E-19, ]
- [  9.63735264E-20,   1.56471542E-19,  -1.24582509E-19, ]
- [ -3.44868529E-20,   2.87331921E-19,   5.76538038E-03, ]
- [  2.27233906E-19,   2.56111628E-20,  -5.76538038E-03, ]
- [ -5.76538038E-03,  -4.23888899E-19,   4.55777932E-19, ]
- [  3.95939666E-20,  -5.76538038E-03,  -6.78029493E-20, ]
- [  1.53153086E-19,   5.76538038E-03,  -1.81362069E-19, ]
- [  5.76538038E-03,  -3.84410599E-19,   4.16299632E-19, ]
- [  9.63735264E-20,   1.56471542E-19,  -1.24582509E-19, ]
force_length_stats: {min:   2.22018021E-19, max:   5.76538038E-03, mean:   3.84358692E-03, }
...

 Integrated electronic density in atomic spheres:
 ------------------------------------------------
 Atom  Sphere_radius  Integrated_density
    1        2.20660          5.36722605
    2        2.20660          5.36722605
    3        1.80316          4.37060309
    4        1.80316          4.37060309
    5        1.80316          4.37060309
    6        1.80316          4.37060309
    7        1.80316          4.37060309
    8        1.80316          4.37060309
    9        2.21000          8.83109796

 PAW TEST:
 ==== Compensation charge inside spheres ============
 The following values must be close to each other ...
 Compensation charge over spherical meshes =     -6.084640706453144
 Compensation charge over fine fft grid    =     -6.084624854135686

 ==== Results concerning PAW augmentation regions ====

 Total pseudopotential strength Dij (hartree):
 Atom #  1
   0.40719  -0.13503   0.00000   0.00000   0.00000   0.00000   0.00000   0.00000   0.00000   0.00000   0.00000   0.00000 ...
  -0.13503   0.04045   0.00000   0.00000   0.00000   0.00000   0.00000   0.00000   0.00000   0.00000   0.00000   0.00000 ...
   0.00000   0.00000  -0.08955   0.00000   0.00000  -0.16895   0.00000   0.00000   0.00000   0.00000   0.00000  -0.00000 ...
   0.00000   0.00000   0.00000  -0.08955   0.00000   0.00000  -0.16895   0.00000  -0.00000   0.00000   0.00000   0.00000 ...
   0.00000   0.00000   0.00000   0.00000  -0.08955   0.00000   0.00000  -0.16895   0.00000  -0.00000   0.00000   0.00000 ...
   0.00000   0.00000  -0.16895   0.00000   0.00000   0.39395   0.00000   0.00000   0.00000   0.00000   0.00000   0.00000 ...
   0.00000   0.00000   0.00000  -0.16895   0.00000   0.00000   0.39395   0.00000   0.00000   0.00000   0.00000   0.00000 ...
   0.00000   0.00000   0.00000   0.00000  -0.16895   0.00000   0.00000   0.39395   0.00000   0.00000   0.00000   0.00000 ...
   0.00000   0.00000   0.00000  -0.00000   0.00000   0.00000   0.00000   0.00000   0.00579   0.00000   0.00000   0.00000 ...
   0.00000   0.00000   0.00000   0.00000  -0.00000   0.00000   0.00000   0.00000   0.00000   0.00579   0.00000   0.00000 ...
   0.00000   0.00000   0.00000   0.00000   0.00000   0.00000   0.00000   0.00000   0.00000   0.00000   0.00579   0.00000 ...
   0.00000   0.00000  -0.00000   0.00000   0.00000   0.00000   0.00000   0.00000   0.00000   0.00000   0.00000   0.00579 ...
   ...  only 12  components have been written...
 Atom #  9
   3.03649  -0.88355   0.00000   0.00000   0.00000   0.00000   0.00000   0.00000   0.00000   0.00000   0.00000   0.00000 ...
  -0.88355   0.26381   0.00000   0.00000   0.00000   0.00000   0.00000   0.00000   0.00000   0.00000   0.00000   0.00000 ...
   0.00000   0.00000   0.28374   0.00000   0.00000  -0.05819   0.00000   0.00000   0.00000   0.00000   0.00000   0.00000 ...
   0.00000   0.00000   0.00000   0.28374   0.00000   0.00000  -0.05819   0.00000   0.00000   0.00000   0.00000   0.00000 ...
   0.00000   0.00000   0.00000   0.00000   0.28374   0.00000   0.00000  -0.05819   0.00000   0.00000   0.00000   0.00000 ...
   0.00000   0.00000  -0.05819   0.00000   0.00000   0.01577   0.00000   0.00000   0.00000   0.00000   0.00000   0.00000 ...
   0.00000   0.00000   0.00000  -0.05819   0.00000   0.00000   0.01577   0.00000   0.00000   0.00000   0.00000   0.00000 ...
   0.00000   0.00000   0.00000   0.00000  -0.05819   0.00000   0.00000   0.01577   0.00000   0.00000   0.00000   0.00000 ...
   0.00000   0.00000   0.00000   0.00000   0.00000   0.00000   0.00000   0.00000   0.00181   0.00000   0.00000   0.00000 ...
   0.00000   0.00000   0.00000   0.00000   0.00000   0.00000   0.00000   0.00000   0.00000   0.00181   0.00000   0.00000 ...
   0.00000   0.00000   0.00000   0.00000   0.00000   0.00000   0.00000   0.00000   0.00000   0.00000   0.00190   0.00000 ...
   0.00000   0.00000   0.00000   0.00000   0.00000   0.00000   0.00000   0.00000   0.00000   0.00000   0.00000   0.00181 ...
   ...  only 12  components have been written...


 Augmentation waves occupancies Rhoij:
 Atom #  1
   1.99777  -0.01490   0.00000   0.00000   0.00000   0.00000   0.00000   0.00000   0.00000   0.00000   0.00000   0.00000 ...
  -0.01490   0.10844   0.00000   0.00000   0.00000   0.00000   0.00000   0.00000   0.00000   0.00000   0.00000   0.00000 ...
   0.00000   0.00000   2.01107   0.00000   0.00000  -0.00502   0.00000   0.00000   0.00000   0.00000   0.00000   0.00189 ...
   0.00000   0.00000   0.00000   2.01107   0.00000   0.00000  -0.00502   0.00000   0.00189   0.00000   0.00000   0.00000 ...
   0.00000   0.00000   0.00000   0.00000   2.01107   0.00000   0.00000  -0.00502   0.00000   0.00189   0.00000   0.00000 ...
   0.00000   0.00000  -0.00502   0.00000   0.00000   0.00009   0.00000   0.00000   0.00000   0.00000   0.00000  -0.00018 ...
   0.00000   0.00000   0.00000  -0.00502   0.00000   0.00000   0.00009   0.00000  -0.00018   0.00000   0.00000   0.00000 ...
   0.00000   0.00000   0.00000   0.00000  -0.00502   0.00000   0.00000   0.00009   0.00000  -0.00018   0.00000   0.00000 ...
   0.00000   0.00000   0.00000   0.00189   0.00000   0.00000  -0.00018   0.00000   0.03562   0.00000   0.00000   0.00000 ...
   0.00000   0.00000   0.00000   0.00000   0.00189   0.00000   0.00000  -0.00018   0.00000   0.03562   0.00000   0.00000 ...
   0.00000   0.00000   0.00000   0.00000   0.00000   0.00000   0.00000   0.00000   0.00000   0.00000   0.02186   0.00000 ...
   0.00000   0.00000   0.00189   0.00000   0.00000  -0.00018   0.00000   0.00000   0.00000   0.00000   0.00000   0.03562 ...
   ...  only 12  components have been written...
 Atom #  9
   1.99311  -0.07185   0.00000   0.00000   0.00000   0.00000   0.00000   0.00000   0.00000   0.00000   0.00000   0.00000 ...
  -0.07185   1.08938   0.00000   0.00000   0.00000   0.00000   0.00000   0.00000   0.00000   0.00000   0.00000   0.00000 ...
   0.00000   0.00000   1.96481   0.00000   0.00000  -0.21493   0.00000   0.00000   0.00000   0.00000   0.00000   0.00000 ...
   0.00000   0.00000   0.00000   1.96481   0.00000   0.00000  -0.21493   0.00000   0.00000   0.00000   0.00000   0.00000 ...
   0.00000   0.00000   0.00000   0.00000   1.96481   0.00000   0.00000  -0.21493   0.00000   0.00000   0.00000   0.00000 ...
   0.00000   0.00000  -0.21493   0.00000   0.00000   1.88993   0.00000   0.00000   0.00000   0.00000   0.00000   0.00000 ...
   0.00000   0.00000   0.00000  -0.21493   0.00000   0.00000   1.88993   0.00000   0.00000   0.00000   0.00000   0.00000 ...
   0.00000   0.00000   0.00000   0.00000  -0.21493   0.00000   0.00000   1.88993   0.00000   0.00000   0.00000   0.00000 ...
   0.00000   0.00000   0.00000   0.00000   0.00000   0.00000   0.00000   0.00000   0.54153   0.00000   0.00000   0.00000 ...
   0.00000   0.00000   0.00000   0.00000   0.00000   0.00000   0.00000   0.00000   0.00000   0.54153   0.00000   0.00000 ...
   0.00000   0.00000   0.00000   0.00000   0.00000   0.00000   0.00000   0.00000   0.00000   0.00000   1.64919   0.00000 ...
   0.00000   0.00000   0.00000   0.00000   0.00000   0.00000   0.00000   0.00000   0.00000   0.00000   0.00000   0.54153 ...
   ...  only 12  components have been written...



---OUTPUT-----------------------------------------------------------------------

 Cartesian coordinates (xcart) [bohr]
  5.04601533993577E+00  5.04601533993577E+00  5.04601533993577E+00
  1.51380460198073E+01  1.51380460198073E+01  1.51380460198073E+01
  1.00920306798715E+01  1.00920306798715E+01  4.65176286246631E+00
  1.00920306798715E+01  1.00920306798715E+01  1.55322984972767E+01
  1.55322984972767E+01  1.00920306798715E+01  1.00920306798715E+01
  1.00920306798715E+01  1.55322984972767E+01  1.00920306798715E+01
  1.00920306798715E+01  4.65176286246632E+00  1.00920306798715E+01
  4.65176286246631E+00  1.00920306798715E+01  1.00920306798715E+01
 -1.95074162011824E-18  5.40579563894982E-18  5.83484856976059E-18
 Reduced coordinates (xred)
  2.50000000000000E-01  2.50000000000000E-01  2.50000000000000E-01
  7.50000000000000E-01  7.50000000000000E-01  7.50000000000000E-01
  2.30467138380000E-01  2.30467138380000E-01  7.69532861620000E-01
  7.69532861620000E-01  7.69532861620000E-01  2.30467138380000E-01
  2.30467138380000E-01  7.69532861620000E-01  7.69532861620000E-01
  7.69532861620000E-01  2.30467138380000E-01  7.69532861620000E-01
  2.30467138380000E-01  7.69532861620000E-01  2.30467138380000E-01
  7.69532861620000E-01  2.30467138380000E-01  2.30467138380000E-01
  6.53554584170000E-19 -7.53906095600000E-20 -1.17904643100000E-19
 Cartesian forces (fcart) [Ha/bohr]; max,rms= 5.76538E-03 2.71783E-03 (free atoms)
  9.63735264431559E-20  1.56471542101343E-19 -1.24582509132555E-19
  9.63735264431559E-20  1.56471542101343E-19 -1.24582509132555E-19
 -3.44868528521211E-20  2.87331921396620E-19  5.76538037690907E-03
  2.27233905738433E-19  2.56111628060660E-20 -5.76538037690907E-03
 -5.76538037690907E-03 -4.23888899167965E-19  4.55777932136754E-19
  3.95939665628555E-20 -5.76538037690907E-03 -6.78029492522543E-20
  1.53153086323456E-19  5.76538037690907E-03 -1.81362069012855E-19
  5.76538037690906E-03 -3.84410598822341E-19  4.16299631791130E-19
  9.63735264431559E-20  1.56471542101343E-19 -1.24582509132555E-19
 Reduced forces (fred)
 -3.21825099072447E-19  2.84685918749378E-19 -2.55172018900530E-18
 -3.21825099072447E-19  2.84685918749378E-19 -2.55172018900530E-18
 -5.81843956448956E-02 -5.81843956448956E-02 -2.55172018900530E-18
  5.81843956448956E-02  5.81843956448956E-02 -2.55172018900530E-18
 -3.21825099072447E-19  5.81843956448956E-02  5.81843956448956E-02
  5.81843956448956E-02  2.84685918749378E-19  5.81843956448956E-02
 -5.81843956448956E-02  2.84685918749378E-19 -5.81843956448956E-02
 -3.21825099072446E-19 -5.81843956448956E-02 -5.81843956448956E-02
 -3.21825099072447E-19  2.84685918749378E-19 -2.55172018900530E-18
 Scale of Primitive Cell (acell) [bohr]
  1.42722866592900E+01  1.42722866592900E+01  1.42722866592900E+01
 Real space primitive translations (rprimd) [bohr]
  0.00000000000000E+00  1.00920306798715E+01  1.00920306798715E+01
  1.00920306798715E+01  0.00000000000000E+00  1.00920306798715E+01
  1.00920306798715E+01  1.00920306798715E+01  0.00000000000000E+00
 Unitary Cell Volume (ucvol) [Bohr^3]=  2.05572814561974E+03
 Angles (23,13,12)= [degrees]
  6.00000000000000E+01  6.00000000000000E+01  6.00000000000000E+01
 Lengths [Bohr]
  1.42722866593597E+01  1.42722866593597E+01  1.42722866593597E+01
 Stress tensor in cartesian coordinates (strten) [Ha/bohr^3]
 -3.30121311041343E-05  0.00000000000000E+00  0.00000000000000E+00
  0.00000000000000E+00 -3.30121311041343E-05  0.00000000000000E+00
  0.00000000000000E+00  0.00000000000000E+00 -3.30121311041343E-05
 Total energy (etotal) [Ha]= -1.79825106703859E+02

--- Iteration: (   2/1000) Internal Cycle: (1/1)
--------------------------------------------------------------------------------

---SELF-CONSISTENT-FIELD CONVERGENCE--------------------------------------------

--- !BeginCycle
iteration_state: {dtset: 1, itime: 2, icycle: 1, }
solver: {iscf: 17, nstep: 2500, nline: 4, wfoptalg: 10, }
tolerances: {toldff: 1.00E-08, }
...

     iter   Etot(hartree)      deltaE(h)  residm     nres2    diffor    maxfor
 ETOT  1  -179.82593756085    -1.798E+02 2.014E-05 1.360E-01 3.665E-02 4.241E-02
 ETOT  2  -179.82534287426     5.947E-04 1.094E-05 1.943E-02 4.014E-02 2.268E-03
 ETOT  3  -179.82529689980     4.597E-05 6.826E-05 1.470E-03 5.199E-03 7.467E-03
 ETOT  4  -179.82529333608     3.564E-06 6.662E-06 2.570E-04 1.720E-03 5.747E-03
 ETOT  5  -179.82529264527     6.908E-07 2.318E-05 9.432E-05 2.739E-04 5.473E-03
 ETOT  6  -179.82529240768     2.376E-07 3.701E-06 1.101E-05 3.549E-04 5.118E-03
 ETOT  7  -179.82529241046    -2.782E-09 1.390E-05 1.397E-06 1.101E-04 5.008E-03
 ETOT  8  -179.82529241289    -2.429E-09 2.751E-06 1.972E-07 3.222E-05 4.975E-03
 ETOT  9  -179.82529241174     1.149E-09 8.706E-06 4.389E-08 3.904E-06 4.979E-03
 ETOT 10  -179.82529241092     8.231E-10 1.997E-06 3.219E-09 5.492E-06 4.974E-03
 ETOT 11  -179.82529241062     2.942E-10 5.491E-06 1.795E-10 1.150E-06 4.975E-03
 ETOT 12  -179.82529241064    -1.410E-11 1.438E-06 2.321E-11 1.393E-07 4.975E-03
 ETOT 13  -179.82529241073    -9.891E-11 3.471E-06 1.714E-12 5.820E-08 4.975E-03
 ETOT 14  -179.82529241077    -3.311E-11 1.033E-06 5.032E-13 2.986E-09 4.975E-03
 ETOT 15  -179.82529241080    -3.587E-11 2.195E-06 1.835E-13 2.291E-09 4.975E-03

 At SCF step   15, forces are converged : 
  for the second time, max diff in force=  2.291E-09 < toldff=  1.000E-08

 Cartesian components of stress tensor (hartree/bohr^3)
  sigma(1 1)= -2.97155063E-05  sigma(3 2)=  0.00000000E+00
  sigma(2 2)= -2.97155063E-05  sigma(3 1)=  0.00000000E+00
  sigma(3 3)= -2.97155063E-05  sigma(2 1)=  0.00000000E+00


--- !ResultsGS
iteration_state: {dtset: 1, itime: 2, icycle: 1, }
comment   : Summary of ground state results
lattice_vectors:
- [  0.0000000,  10.0920307,  10.0920307, ]
- [ 10.0920307,   0.0000000,  10.0920307, ]
- [ 10.0920307,  10.0920307,   0.0000000, ]
lattice_lengths: [  14.27229,   14.27229,   14.27229, ]
lattice_angles: [ 60.000,  60.000,  60.000, ] # degrees, (23, 13, 12)
lattice_volume:   2.0557281E+03
convergence: {deltae: -3.587E-11, res2:  1.835E-13, residm:  2.195E-06, diffor:  2.291E-09, }
etotal    :  -1.79825292E+02
entropy   :   0.00000000E+00
fermie    :  -1.12274559E-02
cartesian_stress_tensor: # hartree/bohr^3
- [ -2.97155063E-05,   0.00000000E+00,   0.00000000E+00, ]
- [  0.00000000E+00,  -2.97155063E-05,   0.00000000E+00, ]
- [  0.00000000E+00,   0.00000000E+00,  -2.97155063E-05, ]
pressure_GPa:   8.7426E-01
xred      :
- [  2.5000E-01,   2.5000E-01,   2.5000E-01, Cs]
- [  7.5000E-01,   7.5000E-01,   7.5000E-01, Cs]
- [  2.3075E-01,   2.3075E-01,   7.6925E-01, Cl]
- [  7.6925E-01,   7.6925E-01,   2.3075E-01, Cl]
- [  2.3075E-01,   7.6925E-01,   7.6925E-01, Cl]
- [  7.6925E-01,   2.3075E-01,   7.6925E-01, Cl]
- [  2.3075E-01,   7.6925E-01,   2.3075E-01, Cl]
- [  7.6925E-01,   2.3075E-01,   2.3075E-01, Cl]
- [  6.4477E-19,  -8.9113E-20,  -9.1733E-20, Zr]
cartesian_forces: # hartree/bohr
- [  1.92747927E-19,  -1.08580541E-19,   5.81756535E-20, ]
- [  1.92744867E-19,  -1.08580978E-19,   5.81769649E-20, ]
- [ -4.56520085E-19,   5.40686160E-19,   4.97480086E-03, ]
- [  4.08333322E-19,  -3.24167247E-19,  -4.97480086E-03, ]
- [ -4.97480086E-03,   6.48913697E-19,  -6.99319021E-19, ]
- [  1.02432255E-18,  -4.97480086E-03,  -7.73399840E-19, ]
- [ -9.82609298E-19,   4.97480086E-03,   1.23353200E-18, ]
- [  4.97480086E-03,   1.28608552E-21,  -5.16914100E-20, ]
- [  1.92747053E-19,  -1.08580978E-19,   5.81756535E-20, ]
force_length_stats: {min:   2.28746523E-19, max:   4.97480086E-03, mean:   3.31653391E-03, }
...

 Integrated electronic density in atomic spheres:
 ------------------------------------------------
 Atom  Sphere_radius  Integrated_density
    1        2.20660          5.36724240
    2        2.20660          5.36724240
    3        1.80316          4.36629944
    4        1.80316          4.36629944
    5        1.80316          4.36629944
    6        1.80316          4.36629944
    7        1.80316          4.36629944
    8        1.80316          4.36629944
    9        2.21000          8.82743374

 PAW TEST:
 ==== Compensation charge inside spheres ============
 The following values must be close to each other ...
 Compensation charge over spherical meshes =     -6.084752263182219
 Compensation charge over fine fft grid    =     -6.084741544508873

 ==== Results concerning PAW augmentation regions ====

 Total pseudopotential strength Dij (hartree):
 Atom #  1
   0.40717  -0.13502   0.00000   0.00000   0.00000   0.00000   0.00000   0.00000   0.00000   0.00000   0.00000   0.00000 ...
  -0.13502   0.04045   0.00000   0.00000   0.00000   0.00000   0.00000   0.00000   0.00000   0.00000   0.00000   0.00000 ...
   0.00000   0.00000  -0.08954   0.00000   0.00000  -0.16895   0.00000   0.00000   0.00000   0.00000   0.00000  -0.00000 ...
   0.00000   0.00000   0.00000  -0.08954   0.00000   0.00000  -0.16895   0.00000  -0.00000   0.00000   0.00000   0.00000 ...
   0.00000   0.00000   0.00000   0.00000  -0.08954   0.00000   0.00000  -0.16895   0.00000  -0.00000   0.00000   0.00000 ...
   0.00000   0.00000  -0.16895   0.00000   0.00000   0.39394   0.00000   0.00000   0.00000   0.00000   0.00000   0.00000 ...
   0.00000   0.00000   0.00000  -0.16895   0.00000   0.00000   0.39394   0.00000   0.00000   0.00000   0.00000   0.00000 ...
   0.00000   0.00000   0.00000   0.00000  -0.16895   0.00000   0.00000   0.39394   0.00000   0.00000   0.00000   0.00000 ...
   0.00000   0.00000   0.00000  -0.00000   0.00000   0.00000   0.00000   0.00000   0.00579   0.00000   0.00000   0.00000 ...
   0.00000   0.00000   0.00000   0.00000  -0.00000   0.00000   0.00000   0.00000   0.00000   0.00579   0.00000   0.00000 ...
   0.00000   0.00000   0.00000   0.00000   0.00000   0.00000   0.00000   0.00000   0.00000   0.00000   0.00579   0.00000 ...
   0.00000   0.00000  -0.00000   0.00000   0.00000   0.00000   0.00000   0.00000   0.00000   0.00000   0.00000   0.00579 ...
   ...  only 12  components have been written...
 Atom #  9
   3.03687  -0.88366   0.00000   0.00000   0.00000   0.00000   0.00000   0.00000   0.00000   0.00000   0.00000   0.00000 ...
  -0.88366   0.26384   0.00000   0.00000   0.00000   0.00000   0.00000   0.00000   0.00000   0.00000   0.00000   0.00000 ...
   0.00000   0.00000   0.28365   0.00000   0.00000  -0.05816   0.00000   0.00000   0.00000   0.00000   0.00000   0.00000 ...
   0.00000   0.00000   0.00000   0.28365   0.00000   0.00000  -0.05816   0.00000   0.00000   0.00000   0.00000   0.00000 ...
   0.00000   0.00000   0.00000   0.00000   0.28365   0.00000   0.00000  -0.05816   0.00000   0.00000   0.00000   0.00000 ...
   0.00000   0.00000  -0.05816   0.00000   0.00000   0.01576   0.00000   0.00000   0.00000   0.00000   0.00000   0.00000 ...
   0.00000   0.00000   0.00000  -0.05816   0.00000   0.00000   0.01576   0.00000   0.00000   0.00000   0.00000   0.00000 ...
   0.00000   0.00000   0.00000   0.00000  -0.05816   0.00000   0.00000   0.01576   0.00000   0.00000   0.00000   0.00000 ...
   0.00000   0.00000   0.00000   0.00000   0.00000   0.00000   0.00000   0.00000   0.00170   0.00000   0.00000   0.00000 ...
   0.00000   0.00000   0.00000   0.00000   0.00000   0.00000   0.00000   0.00000   0.00000   0.00170   0.00000   0.00000 ...
   0.00000   0.00000   0.00000   0.00000   0.00000   0.00000   0.00000   0.00000   0.00000   0.00000   0.00179   0.00000 ...
   0.00000   0.00000   0.00000   0.00000   0.00000   0.00000   0.00000   0.00000   0.00000   0.00000   0.00000   0.00170 ...
   ...  only 12  components have been written...


 Augmentation waves occupancies Rhoij:
 Atom #  1
   1.99778  -0.01490   0.00000   0.00000   0.00000   0.00000   0.00000   0.00000   0.00000   0.00000   0.00000   0.00000 ...
  -0.01490   0.10858   0.00000   0.00000   0.00000   0.00000   0.00000   0.00000   0.00000   0.00000   0.00000   0.00000 ...
   0.00000   0.00000   2.01108   0.00000   0.00000  -0.00502   0.00000   0.00000   0.00000   0.00000   0.00000   0.00183 ...
   0.00000   0.00000   0.00000   2.01108   0.00000   0.00000  -0.00502   0.00000   0.00183   0.00000   0.00000   0.00000 ...
   0.00000   0.00000   0.00000   0.00000   2.01108   0.00000   0.00000  -0.00502   0.00000   0.00183   0.00000   0.00000 ...
   0.00000   0.00000  -0.00502   0.00000   0.00000   0.00009   0.00000   0.00000   0.00000   0.00000   0.00000  -0.00017 ...
   0.00000   0.00000   0.00000  -0.00502   0.00000   0.00000   0.00009   0.00000  -0.00017   0.00000   0.00000   0.00000 ...
   0.00000   0.00000   0.00000   0.00000  -0.00502   0.00000   0.00000   0.00009   0.00000  -0.00017   0.00000   0.00000 ...
   0.00000   0.00000   0.00000   0.00183   0.00000   0.00000  -0.00017   0.00000   0.03565   0.00000   0.00000   0.00000 ...
   0.00000   0.00000   0.00000   0.00000   0.00183   0.00000   0.00000  -0.00017   0.00000   0.03565   0.00000   0.00000 ...
   0.00000   0.00000   0.00000   0.00000   0.00000   0.00000   0.00000   0.00000   0.00000   0.00000   0.02188   0.00000 ...
   0.00000   0.00000   0.00183   0.00000   0.00000  -0.00017   0.00000   0.00000   0.00000   0.00000   0.00000   0.03565 ...
   ...  only 12  components have been written...
 Atom #  9
   1.99301  -0.07217   0.00000   0.00000   0.00000   0.00000   0.00000   0.00000   0.00000   0.00000   0.00000   0.00000 ...
  -0.07217   1.08625   0.00000   0.00000   0.00000   0.00000   0.00000   0.00000   0.00000   0.00000   0.00000   0.00000 ...
   0.00000   0.00000   1.96458   0.00000   0.00000  -0.21620   0.00000   0.00000   0.00000   0.00000   0.00000   0.00000 ...
   0.00000   0.00000   0.00000   1.96458   0.00000   0.00000  -0.21620   0.00000   0.00000   0.00000   0.00000   0.00000 ...
   0.00000   0.00000   0.00000   0.00000   1.96458   0.00000   0.00000  -0.21620   0.00000   0.00000   0.00000   0.00000 ...
   0.00000   0.00000  -0.21620   0.00000   0.00000   1.87900   0.00000   0.00000   0.00000   0.00000   0.00000   0.00000 ...
   0.00000   0.00000   0.00000  -0.21620   0.00000   0.00000   1.87900   0.00000   0.00000   0.00000   0.00000   0.00000 ...
   0.00000   0.00000   0.00000   0.00000  -0.21620   0.00000   0.00000   1.87900   0.00000   0.00000   0.00000   0.00000 ...
   0.00000   0.00000   0.00000   0.00000   0.00000   0.00000   0.00000   0.00000   0.53770   0.00000   0.00000   0.00000 ...
   0.00000   0.00000   0.00000   0.00000   0.00000   0.00000   0.00000   0.00000   0.00000   0.53770   0.00000   0.00000 ...
   0.00000   0.00000   0.00000   0.00000   0.00000   0.00000   0.00000   0.00000   0.00000   0.00000   1.63762   0.00000 ...
   0.00000   0.00000   0.00000   0.00000   0.00000   0.00000   0.00000   0.00000   0.00000   0.00000   0.00000   0.53770 ...
   ...  only 12  components have been written...



---OUTPUT-----------------------------------------------------------------------

 Cartesian coordinates (xcart) [bohr]
  5.04601533993577E+00  5.04601533993577E+00  5.04601533993577E+00
  1.51380460198073E+01  1.51380460198073E+01  1.51380460198073E+01
  1.00920306798715E+01  1.00920306798715E+01  4.65752824284322E+00
  1.00920306798715E+01  1.00920306798715E+01  1.55265331168998E+01
  1.55265331168998E+01  1.00920306798715E+01  1.00920306798715E+01
  1.00920306798715E+01  1.55265331168998E+01  1.00920306798715E+01
  1.00920306798715E+01  4.65752824284322E+00  1.00920306798715E+01
  4.65752824284322E+00  1.00920306798715E+01  1.00920306798715E+01
 -1.82510677738168E-18  5.58130771416379E-18  5.60774332983358E-18
 Reduced coordinates (xred)
  2.50000000000000E-01  2.50000000000000E-01  2.50000000000000E-01
  7.50000000000000E-01  7.50000000000000E-01  7.50000000000000E-01
  2.30752778632185E-01  2.30752778632185E-01  7.69247221367815E-01
  7.69247221367815E-01  7.69247221367815E-01  2.30752778632185E-01
  2.30752778632185E-01  7.69247221367815E-01  7.69247221367815E-01
  7.69247221367815E-01  2.30752778632185E-01  7.69247221367815E-01
  2.30752778632185E-01  7.69247221367815E-01  2.30752778632185E-01
  7.69247221367815E-01  2.30752778632185E-01  2.30752778632185E-01
  6.44773992182549E-19 -8.91134410292331E-20 -9.17328955779118E-20
 Cartesian forces (fcart) [Ha/bohr]; max,rms= 4.97480E-03 2.34514E-03 (free atoms)
  1.92747927166241E-19 -1.08580540798648E-19  5.81756534876676E-20
  1.92744867186489E-19 -1.08580977938613E-19  5.81769649075612E-20
 -4.56520084941635E-19  5.40686159889334E-19  4.97480086167146E-03
  4.08333321720057E-19 -3.24167246772358E-19 -4.97480086167146E-03
 -4.97480086167147E-03  6.48913696590682E-19 -6.99319021041627E-19
  1.02432254683058E-18 -4.97480086167147E-03 -7.73399840456603E-19
 -9.82609297657355E-19  4.97480086167147E-03  1.23353200403133E-18
  4.97480086167147E-03  1.28608552049667E-21 -5.16914099714416E-20
  1.92747052886312E-19 -1.08580977938613E-19  5.81756534876676E-20
 Reduced forces (fred)
  5.08687669157882E-19 -2.53232847426246E-18 -8.49419845466350E-19
  5.08678845898014E-19 -2.53231082774273E-18 -8.49384552426881E-19
 -5.02058429222398E-02 -5.02058429222397E-02 -8.49406610576549E-19
  5.02058429222398E-02  5.02058429222397E-02 -8.49406610576549E-19
  5.08692080787815E-19  5.02058429222398E-02  5.02058429222398E-02
  5.02058429222398E-02 -2.53231965100260E-18  5.02058429222398E-02
 -5.02058429222398E-02 -2.53231965100259E-18 -5.02058429222398E-02
  5.08692080787815E-19 -5.02058429222398E-02 -5.02058429222398E-02
  5.08692080787815E-19 -2.53231965100260E-18 -8.49406610576549E-19
 Scale of Primitive Cell (acell) [bohr]
  1.42722866592900E+01  1.42722866592900E+01  1.42722866592900E+01
 Real space primitive translations (rprimd) [bohr]
  0.00000000000000E+00  1.00920306798715E+01  1.00920306798715E+01
  1.00920306798715E+01  0.00000000000000E+00  1.00920306798715E+01
  1.00920306798715E+01  1.00920306798715E+01  0.00000000000000E+00
 Unitary Cell Volume (ucvol) [Bohr^3]=  2.05572814561974E+03
 Angles (23,13,12)= [degrees]
  6.00000000000000E+01  6.00000000000000E+01  6.00000000000000E+01
 Lengths [Bohr]
  1.42722866593597E+01  1.42722866593597E+01  1.42722866593597E+01
 Stress tensor in cartesian coordinates (strten) [Ha/bohr^3]
 -2.97155062529818E-05  0.00000000000000E+00  0.00000000000000E+00
  0.00000000000000E+00 -2.97155062529818E-05  0.00000000000000E+00
  0.00000000000000E+00  0.00000000000000E+00 -2.97155062529810E-05
 Total energy (etotal) [Ha]= -1.79825292410804E+02

 Difference of energy with previous step (new-old):
           Absolute (Ha)=-1.85707E-04
           Relative     =-1.03271E-06

--- Iteration: (   3/1000) Internal Cycle: (1/1)
--------------------------------------------------------------------------------

---SELF-CONSISTENT-FIELD CONVERGENCE--------------------------------------------

--- !BeginCycle
iteration_state: {dtset: 1, itime: 3, icycle: 1, }
solver: {iscf: 17, nstep: 2500, nline: 4, wfoptalg: 10, }
tolerances: {toldff: 1.00E-08, }
...

     iter   Etot(hartree)      deltaE(h)  residm     nres2    diffor    maxfor
 ETOT  1  -179.85105874282    -1.799E+02 1.077E-04 5.215E+00 2.272E-01 2.321E-01
 ETOT  2  -179.82751669827     2.354E-02 5.910E-05 6.540E-01 2.442E-01 1.207E-02
 ETOT  3  -179.82606773367     1.449E-03 3.682E-05 5.510E-02 2.904E-02 1.697E-02
 ETOT  4  -179.82590446297     1.633E-04 7.442E-06 1.051E-02 1.257E-02 4.397E-03
 ETOT  5  -179.82586856747     3.590E-05 9.474E-07 3.591E-03 1.125E-03 3.272E-03
 ETOT  6  -179.82585060410     1.796E-05 4.980E-06 3.266E-04 2.213E-03 1.059E-03
 ETOT  7  -179.82584954055     1.064E-06 6.109E-07 5.218E-05 6.756E-04 3.833E-04
 ETOT  8  -179.82584937179     1.688E-07 6.401E-06 7.701E-06 2.020E-04 1.813E-04
 ETOT  9  -179.82584934887     2.292E-08 8.004E-07 1.472E-06 2.602E-05 2.073E-04
 ETOT 10  -179.82584934075     8.120E-09 9.946E-06 1.870E-07 2.953E-05 1.778E-04
 ETOT 11  -179.82584933856     2.185E-09 1.239E-06 7.524E-09 5.440E-06 1.832E-04
 ETOT 12  -179.82584933900    -4.404E-10 1.540E-05 5.782E-10 7.881E-07 1.825E-04
 ETOT 13  -179.82584933939    -3.891E-10 1.920E-06 6.613E-11 5.881E-08 1.824E-04
 ETOT 14  -179.82584933961    -2.171E-10 2.341E-05 1.262E-11 7.947E-08 1.823E-04
 ETOT 15  -179.82584933980    -1.881E-10 2.968E-06 4.458E-12 4.240E-08 1.824E-04
 ETOT 16  -179.82584933990    -9.720E-11 3.481E-05 2.075E-12 3.482E-08 1.823E-04
 ETOT 17  -179.82584933998    -8.049E-11 4.544E-06 8.435E-13 8.254E-09 1.823E-04
 ETOT 18  -179.82584934008    -1.006E-10 4.983E-05 5.697E-14 1.169E-09 1.823E-04

 At SCF step   18, forces are converged : 
  for the second time, max diff in force=  1.169E-09 < toldff=  1.000E-08

 Cartesian components of stress tensor (hartree/bohr^3)
  sigma(1 1)= -9.67229951E-06  sigma(3 2)=  0.00000000E+00
  sigma(2 2)= -9.67229951E-06  sigma(3 1)=  0.00000000E+00
  sigma(3 3)= -9.67229951E-06  sigma(2 1)=  0.00000000E+00


--- !ResultsGS
iteration_state: {dtset: 1, itime: 3, icycle: 1, }
comment   : Summary of ground state results
lattice_vectors:
- [  0.0000000,  10.0920307,  10.0920307, ]
- [ 10.0920307,   0.0000000,  10.0920307, ]
- [ 10.0920307,  10.0920307,   0.0000000, ]
lattice_lengths: [  14.27229,   14.27229,   14.27229, ]
lattice_angles: [ 60.000,  60.000,  60.000, ] # degrees, (23, 13, 12)
lattice_volume:   2.0557281E+03
convergence: {deltae: -1.006E-10, res2:  5.697E-14, residm:  4.983E-05, diffor:  1.169E-09, }
etotal    :  -1.79825849E+02
entropy   :   0.00000000E+00
fermie    :  -1.13873685E-02
cartesian_stress_tensor: # hartree/bohr^3
- [ -9.67229951E-06,   0.00000000E+00,   0.00000000E+00, ]
- [  0.00000000E+00,  -9.67229951E-06,   0.00000000E+00, ]
- [  0.00000000E+00,   0.00000000E+00,  -9.67229951E-06, ]
pressure_GPa:   2.8457E-01
xred      :
- [  2.5000E-01,   2.5000E-01,   2.5000E-01, Cs]
- [  7.5000E-01,   7.5000E-01,   7.5000E-01, Cs]
- [  2.3255E-01,   2.3255E-01,   7.6745E-01, Cl]
- [  7.6745E-01,   7.6745E-01,   2.3255E-01, Cl]
- [  2.3255E-01,   7.6745E-01,   7.6745E-01, Cl]
- [  7.6745E-01,   2.3255E-01,   7.6745E-01, Cl]
- [  2.3255E-01,   7.6745E-01,   2.3255E-01, Cl]
- [  7.6745E-01,   2.3255E-01,   2.3255E-01, Cl]
- [  4.8691E-19,   1.0814E-19,  -5.6795E-20, Zr]
cartesian_forces: # hartree/bohr
- [ -3.01167270E-21,   5.97002363E-21,  -5.39925833E-21, ]
- [ -3.01123556E-21,   5.97046077E-21,  -5.40013261E-21, ]
- [ -6.80226153E-22,   3.63879565E-21,   1.82332401E-04, ]
- [  8.20940791E-21,  -5.25083841E-21,  -1.82332401E-04, ]
- [ -1.82332401E-04,   8.30168875E-21,  -7.73048631E-21, ]
- [  1.00629256E-20,  -1.82332401E-04,  -1.84736381E-20, ]
- [ -1.32768956E-20,   1.82332401E-04,   4.86618317E-21, ]
- [  1.82332401E-04,  -2.06568833E-20,   2.12280857E-20, ]
- [ -3.01167270E-21,   5.97024220E-21,  -5.39903976E-21, ]
force_length_stats: {min:   8.59437869E-21, max:   1.82332401E-04, mean:   1.21554934E-04, }
...

 Integrated electronic density in atomic spheres:
 ------------------------------------------------
 Atom  Sphere_radius  Integrated_density
    1        2.20660          5.36734234
    2        2.20660          5.36734234
    3        1.80316          4.36408743
    4        1.80316          4.36408743
    5        1.80316          4.36408743
    6        1.80316          4.36408743
    7        1.80316          4.36408743
    8        1.80316          4.36408743
    9        2.21000          8.80529427

 PAW TEST:
 ==== Compensation charge inside spheres ============
 The following values must be close to each other ...
 Compensation charge over spherical meshes =     -6.085465690014037
 Compensation charge over fine fft grid    =     -6.085461791514757

 ==== Results concerning PAW augmentation regions ====

 Total pseudopotential strength Dij (hartree):
 Atom #  1
   0.40703  -0.13498   0.00000   0.00000   0.00000   0.00000   0.00000   0.00000   0.00000   0.00000   0.00000   0.00000 ...
  -0.13498   0.04043   0.00000   0.00000   0.00000   0.00000   0.00000   0.00000   0.00000   0.00000   0.00000   0.00000 ...
   0.00000   0.00000  -0.08953   0.00000   0.00000  -0.16896   0.00000   0.00000   0.00000   0.00000   0.00000  -0.00000 ...
   0.00000   0.00000   0.00000  -0.08953   0.00000   0.00000  -0.16896   0.00000  -0.00000   0.00000   0.00000   0.00000 ...
   0.00000   0.00000   0.00000   0.00000  -0.08953   0.00000   0.00000  -0.16896   0.00000  -0.00000   0.00000   0.00000 ...
   0.00000   0.00000  -0.16896   0.00000   0.00000   0.39390   0.00000   0.00000   0.00000   0.00000   0.00000   0.00000 ...
   0.00000   0.00000   0.00000  -0.16896   0.00000   0.00000   0.39390   0.00000   0.00000   0.00000   0.00000   0.00000 ...
   0.00000   0.00000   0.00000   0.00000  -0.16896   0.00000   0.00000   0.39390   0.00000   0.00000   0.00000   0.00000 ...
   0.00000   0.00000   0.00000  -0.00000   0.00000   0.00000   0.00000   0.00000   0.00580   0.00000   0.00000   0.00000 ...
   0.00000   0.00000   0.00000   0.00000  -0.00000   0.00000   0.00000   0.00000   0.00000   0.00580   0.00000   0.00000 ...
   0.00000   0.00000   0.00000   0.00000   0.00000   0.00000   0.00000   0.00000   0.00000   0.00000   0.00580   0.00000 ...
   0.00000   0.00000  -0.00000   0.00000   0.00000   0.00000   0.00000   0.00000   0.00000   0.00000   0.00000   0.00580 ...
   ...  only 12  components have been written...
 Atom #  9
   3.03922  -0.88439   0.00000   0.00000   0.00000   0.00000   0.00000   0.00000   0.00000   0.00000   0.00000   0.00000 ...
  -0.88439   0.26407   0.00000   0.00000   0.00000   0.00000   0.00000   0.00000   0.00000   0.00000   0.00000   0.00000 ...
   0.00000   0.00000   0.28306   0.00000   0.00000  -0.05802   0.00000   0.00000   0.00000   0.00000   0.00000   0.00000 ...
   0.00000   0.00000   0.00000   0.28306   0.00000   0.00000  -0.05802   0.00000   0.00000   0.00000   0.00000   0.00000 ...
   0.00000   0.00000   0.00000   0.00000   0.28306   0.00000   0.00000  -0.05802   0.00000   0.00000   0.00000   0.00000 ...
   0.00000   0.00000  -0.05802   0.00000   0.00000   0.01573   0.00000   0.00000   0.00000   0.00000   0.00000   0.00000 ...
   0.00000   0.00000   0.00000  -0.05802   0.00000   0.00000   0.01573   0.00000   0.00000   0.00000   0.00000   0.00000 ...
   0.00000   0.00000   0.00000   0.00000  -0.05802   0.00000   0.00000   0.01573   0.00000   0.00000   0.00000   0.00000 ...
[...]
                       4.9089192808E+00  2.4532661910E+00  4.9089192808E+00
                       2.4532661910E+00  4.9089192808E+00  4.9089192808E+00
                      -8.9276913431E-19  2.0624149350E-18  2.9449875691E-18
           xangst10    2.4274875564E+00  2.4274875564E+00  2.4274875564E+00
                       7.2824626693E+00  7.2824626693E+00  7.2824626693E+00
                       4.8549751129E+00  4.8549751129E+00  2.4461623098E+00
                       4.8549751129E+00  4.8549751129E+00  7.2637879160E+00
                       7.2637879160E+00  4.8549751129E+00  4.8549751129E+00
                       4.8549751129E+00  7.2637879160E+00  4.8549751129E+00
                       4.8549751129E+00  2.4461623098E+00  4.8549751129E+00
                       2.4461623098E+00  4.8549751129E+00  4.8549751129E+00
                      -9.4003756541E-19  2.6224836625E-18  2.7990751180E-18
            xcart1     5.0460153399E+00  5.0460153399E+00  5.0460153399E+00
                       1.5138046020E+01  1.5138046020E+01  1.5138046020E+01
                       1.0092030680E+01  1.0092030680E+01  4.6951877426E+00
                       1.0092030680E+01  1.0092030680E+01  1.5488873617E+01
                       1.5488873617E+01  1.0092030680E+01  1.0092030680E+01
                       1.0092030680E+01  1.5488873617E+01  1.0092030680E+01
                       1.0092030680E+01  4.6951877426E+00  1.0092030680E+01
                       4.6951877426E+00  1.0092030680E+01  1.0092030680E+01
                       5.9234585292E-19  4.3129344681E-18  6.0083568885E-18
            xcart2     4.9950454880E+00  4.9950454880E+00  4.9950454880E+00
                       1.4985136464E+01  1.4985136464E+01  1.4985136464E+01
                       9.9900909760E+00  9.9900909760E+00  4.6910450370E+00
                       9.9900909760E+00  9.9900909760E+00  1.5289136915E+01
                       1.5289136915E+01  9.9900909760E+00  9.9900909760E+00
                       9.9900909760E+00  1.5289136915E+01  9.9900909760E+00
                       9.9900909760E+00  4.6910450370E+00  9.9900909760E+00
                       4.6910450370E+00  9.9900909760E+00  9.9900909760E+00
                      -2.0413204177E-18  5.3973454005E-18  5.7768389809E-18
            xcart3     4.9440756361E+00  4.9440756361E+00  4.9440756361E+00
                       1.4832226908E+01  1.4832226908E+01  1.4832226908E+01
                       9.8881512722E+00  9.8881512722E+00  4.6864050433E+00
                       9.8881512722E+00  9.8881512722E+00  1.5089897501E+01
                       1.5089897501E+01  9.8881512722E+00  9.8881512722E+00
                       9.8881512722E+00  1.5089897501E+01  9.8881512722E+00
                       9.8881512722E+00  4.6864050433E+00  9.8881512722E+00
                       4.6864050433E+00  9.8881512722E+00  9.8881512722E+00
                      -1.9113326985E-18  5.2965876462E-18  5.7169728411E-18
            xcart4     4.8931057842E+00  4.8931057842E+00  4.8931057842E+00
                       1.4679317353E+01  1.4679317353E+01  1.4679317353E+01
                       9.7862115684E+00  9.7862115684E+00  4.6805885247E+00
                       9.7862115684E+00  9.7862115684E+00  1.4891834612E+01
                       1.4891834612E+01  9.7862115684E+00  9.7862115684E+00
                       9.7862115684E+00  1.4891834612E+01  9.7862115684E+00
                       9.7862115684E+00  4.6805885247E+00  9.7862115684E+00
                       4.6805885247E+00  9.7862115684E+00  9.7862115684E+00
                      -3.4066700171E-18  6.4486126805E-18  4.7924092766E-18
            xcart5     4.8421359323E+00  4.8421359323E+00  4.8421359323E+00
                       1.4526407797E+01  1.4526407797E+01  1.4526407797E+01
                       9.6842718645E+00  9.6842718645E+00  4.6738000096E+00
                       9.6842718645E+00  9.6842718645E+00  1.4694743719E+01
                       1.4694743719E+01  9.6842718645E+00  9.6842718645E+00
                       9.6842718645E+00  1.4694743719E+01  9.6842718645E+00
                       9.6842718645E+00  4.6738000096E+00  9.6842718645E+00
                       4.6738000096E+00  9.6842718645E+00  9.6842718645E+00
                      -1.5510919129E-18  6.5554930880E-18  2.6530655821E-18
            xcart6     4.7911660803E+00  4.7911660803E+00  4.7911660803E+00
                       1.4373498241E+01  1.4373498241E+01  1.4373498241E+01
                       9.5823321607E+00  9.5823321607E+00  4.6662904887E+00
                       9.5823321607E+00  9.5823321607E+00  1.4498373833E+01
                       1.4498373833E+01  9.5823321607E+00  9.5823321607E+00
                       9.5823321607E+00  1.4498373833E+01  9.5823321607E+00
                       9.5823321607E+00  4.6662904887E+00  9.5823321607E+00
                       4.6662904887E+00  9.5823321607E+00  9.5823321607E+00
                      -2.1021226921E-18  8.1099376392E-18  1.3733359532E-18
            xcart7     4.7401962284E+00  4.7401962284E+00  4.7401962284E+00
                       1.4220588685E+01  1.4220588685E+01  1.4220588685E+01
                       9.4803924568E+00  9.4803924568E+00  4.6576635108E+00
                       9.4803924568E+00  9.4803924568E+00  1.4303121403E+01
                       1.4303121403E+01  9.4803924568E+00  9.4803924568E+00
                       9.4803924568E+00  1.4303121403E+01  9.4803924568E+00
                       9.4803924568E+00  4.6576635108E+00  9.4803924568E+00
                       4.6576635108E+00  9.4803924568E+00  9.4803924568E+00
                      -2.3777016954E-18  8.2355522080E-18  1.4046232457E-18
            xcart8     4.6892263765E+00  4.6892263765E+00  4.6892263765E+00
                       1.4067679130E+01  1.4067679130E+01  1.4067679130E+01
                       9.3784527530E+00  9.3784527530E+00  4.6476043947E+00
                       9.3784527530E+00  9.3784527530E+00  1.4109301111E+01
                       1.4109301111E+01  9.3784527530E+00  9.3784527530E+00
                       9.3784527530E+00  1.4109301111E+01  9.3784527530E+00
                       9.3784527530E+00  4.6476043947E+00  9.3784527530E+00
                       4.6476043947E+00  9.3784527530E+00  9.3784527530E+00
                      -1.7959360724E-18  5.0129837323E-18  5.4227734284E-18
            xcart9     4.6382565246E+00  4.6382565246E+00  4.6382565246E+00
                       1.3914769574E+01  1.3914769574E+01  1.3914769574E+01
                       9.2765130492E+00  9.2765130492E+00  4.6360012320E+00
                       9.2765130492E+00  9.2765130492E+00  1.3917024866E+01
                       1.3917024866E+01  9.2765130492E+00  9.2765130492E+00
                       9.2765130492E+00  1.3917024866E+01  9.2765130492E+00
                       9.2765130492E+00  4.6360012320E+00  9.2765130492E+00
                       4.6360012320E+00  9.2765130492E+00  9.2765130492E+00
                      -1.6870891637E-18  3.8973993994E-18  5.5652199703E-18
            xcart10    4.5872866727E+00  4.5872866727E+00  4.5872866727E+00
                       1.3761860018E+01  1.3761860018E+01  1.3761860018E+01
                       9.1745733453E+00  9.1745733453E+00  4.6225768422E+00
                       9.1745733453E+00  9.1745733453E+00  1.3726569849E+01
                       1.3726569849E+01  9.1745733453E+00  9.1745733453E+00
                       9.1745733453E+00  1.3726569849E+01  9.1745733453E+00
                       9.1745733453E+00  4.6225768422E+00  9.1745733453E+00
                       4.6225768422E+00  9.1745733453E+00  9.1745733453E+00
                      -1.7764135532E-18  4.9557759100E-18  5.2894853983E-18
             xred1     2.5000000000E-01  2.5000000000E-01  2.5000000000E-01
                       7.5000000000E-01  7.5000000000E-01  7.5000000000E-01
                       2.3261858250E-01  2.3261858250E-01  7.6738141750E-01
                       7.6738141750E-01  7.6738141750E-01  2.3261858250E-01
                       2.3261858250E-01  7.6738141750E-01  7.6738141750E-01
                       7.6738141750E-01  2.3261858250E-01  7.6738141750E-01
                       2.3261858250E-01  7.6738141750E-01  2.3261858250E-01
                       7.6738141750E-01  2.3261858250E-01  2.3261858250E-01
                       4.8201129249E-19  1.1334528926E-19 -5.4650872679E-20
             xred2     2.5000000000E-01  2.5000000000E-01  2.5000000000E-01
                       7.5000000000E-01  7.5000000000E-01  7.5000000000E-01
                       2.3478490077E-01  2.3478490077E-01  7.6521509923E-01
                       7.6521509923E-01  7.6521509923E-01  2.3478490077E-01
                       2.3478490077E-01  7.6521509923E-01  7.6521509923E-01
                       7.6521509923E-01  2.3478490077E-01  7.6521509923E-01
                       2.3478490077E-01  7.6521509923E-01  2.3478490077E-01
                       7.6521509923E-01  2.3478490077E-01  2.3478490077E-01
                       6.6143065318E-19 -8.3173758942E-20 -1.2116075839E-19
             xred3     2.5000000000E-01  2.5000000000E-01  2.5000000000E-01
                       7.5000000000E-01  7.5000000000E-01  7.5000000000E-01
                       2.3697073974E-01  2.3697073974E-01  7.6302926026E-01
                       7.6302926026E-01  7.6302926026E-01  2.3697073974E-01
                       2.3697073974E-01  7.6302926026E-01  7.6302926026E-01
                       7.6302926026E-01  2.3697073974E-01  7.6302926026E-01
                       2.3697073974E-01  7.6302926026E-01  2.3697073974E-01
                       7.6302926026E-01  2.3697073974E-01  2.3697073974E-01
                       6.5355458417E-19 -7.5390609560E-20 -1.1790464310E-19
             xred4     2.5000000000E-01  2.5000000000E-01  2.5000000000E-01
                       7.5000000000E-01  7.5000000000E-01  7.5000000000E-01
                       2.3914200567E-01  2.3914200567E-01  7.6085799433E-01
                       7.6085799433E-01  7.6085799433E-01  2.3914200567E-01
                       2.3914200567E-01  7.6085799433E-01  7.6085799433E-01
                       7.6085799433E-01  2.3914200567E-01  7.6085799433E-01
                       2.3914200567E-01  7.6085799433E-01  2.3914200567E-01
                       7.6085799433E-01  2.3914200567E-01  2.3914200567E-01
                       7.4838418687E-19 -2.5867381804E-19 -8.9435355088E-20
             xred5     2.5000000000E-01  2.5000000000E-01  2.5000000000E-01
                       7.5000000000E-01  7.5000000000E-01  7.5000000000E-01
                       2.4130879817E-01  2.4130879817E-01  7.5869120183E-01
                       7.5869120183E-01  7.5869120183E-01  2.4130879817E-01
                       2.4130879817E-01  7.5869120183E-01  7.5869120183E-01
                       7.5869120183E-01  2.4130879817E-01  7.5869120183E-01
                       2.4130879817E-01  7.5869120183E-01  2.4130879817E-01
                       7.5869120183E-01  2.4130879817E-01  2.4130879817E-01
                       5.5552191912E-19 -2.8156579530E-19  1.2139971006E-19
             xred6     2.5000000000E-01  2.5000000000E-01  2.5000000000E-01
                       7.5000000000E-01  7.5000000000E-01  7.5000000000E-01
                       2.4348407102E-01  2.4348407102E-01  7.5651592898E-01
                       7.5651592898E-01  7.5651592898E-01  2.4348407102E-01
                       2.4348407102E-01  7.5651592898E-01  7.5651592898E-01
                       7.5651592898E-01  2.4348407102E-01  7.5651592898E-01
                       2.4348407102E-01  7.5651592898E-01  2.4348407102E-01
                       7.5651592898E-01  2.4348407102E-01  2.4348407102E-01
                       6.0451861249E-19 -4.6119901866E-19  2.4182416744E-19
             xred7     2.5000000000E-01  2.5000000000E-01  2.5000000000E-01
                       7.5000000000E-01  7.5000000000E-01  7.5000000000E-01
                       2.4564718876E-01  2.4564718876E-01  7.5435281124E-01
                       7.5435281124E-01  7.5435281124E-01  2.4564718876E-01
                       2.4564718876E-01  7.5435281124E-01  7.5435281124E-01
                       7.5435281124E-01  2.4564718876E-01  7.5435281124E-01
                       2.4564718876E-01  7.5435281124E-01  2.4564718876E-01
                       7.5435281124E-01  2.4564718876E-01  2.4564718876E-01
                       6.3382804055E-19 -4.8566716513E-19  2.3486513281E-19
             xred8     2.5000000000E-01  2.5000000000E-01  2.5000000000E-01
                       7.5000000000E-01  7.5000000000E-01  7.5000000000E-01
                       2.4778097822E-01  2.4778097822E-01  7.5221902178E-01
                       7.5221902178E-01  7.5221902178E-01  2.4778097822E-01
                       2.4778097822E-01  7.5221902178E-01  7.5221902178E-01
                       7.5221902178E-01  2.4778097822E-01  7.5221902178E-01
                       2.4778097822E-01  7.5221902178E-01  2.4778097822E-01
                       7.5221902178E-01  2.4778097822E-01  2.4778097822E-01
                       6.5211680195E-19 -7.3900589615E-20 -1.1759539802E-19
             xred9     2.5000000000E-01  2.5000000000E-01  2.5000000000E-01
                       7.5000000000E-01  7.5000000000E-01  7.5000000000E-01
                       2.4987844072E-01  2.4987844072E-01  7.5012155928E-01
                       7.5012155928E-01  7.5012155928E-01  2.4987844072E-01
                       2.4987844072E-01  7.5012155928E-01  7.5012155928E-01
                       7.5012155928E-01  2.4987844072E-01  7.5012155928E-01
                       2.4987844072E-01  7.5012155928E-01  2.4987844072E-01
                       7.5012155928E-01  2.4987844072E-01  2.4987844072E-01
                       6.0096441812E-19 -1.0385687366E-21 -1.8082816878E-19
             xred10    2.5000000000E-01  2.5000000000E-01  2.5000000000E-01
                       7.5000000000E-01  7.5000000000E-01  7.5000000000E-01
                       2.5192325943E-01  2.5192325943E-01  7.4807674057E-01
                       7.4807674057E-01  7.4807674057E-01  2.5192325943E-01
                       2.5192325943E-01  7.4807674057E-01  7.4807674057E-01
                       7.4807674057E-01  2.5192325943E-01  7.4807674057E-01
                       2.5192325943E-01  7.4807674057E-01  2.5192325943E-01
                       7.4807674057E-01  2.5192325943E-01  2.5192325943E-01
                       6.5516261133E-19 -7.8625131144E-20 -1.1499842892E-19
            znucl       55.00000   17.00000   40.00000

================================================================================


- Timing analysis has been suppressed with timopt=0



================================================================================

 Suggested references for the acknowledgment of ABINIT usage.

 The users of ABINIT have little formal obligations with respect to the ABINIT group
 (those specified in the GNU General Public License, http://www.gnu.org/copyleft/gpl.txt).
 However, it is common practice in the scientific literature,
 to acknowledge the efforts of people that have made the research possible.
 In this spirit, please find below suggested citations of work written by ABINIT developers,
 corresponding to implementations inside of ABINIT that you have used in the present run.
 Note also that it will be of great value to readers of publications presenting these results,
 to read papers enabling them to understand the theoretical formalism and details
 of the ABINIT implementation.
 For information on why they are suggested, see also https://docs.abinit.org/theory/acknowledgments.
-
- [1] Implementation of the Projector Augmented-Wave Method in the ABINIT code.
- M. Torrent, F. Jollet, F. Bottin, G. Zerah, and X. Gonze Comput. Mat. Science 42, 337, (2008).
- Comment: PAW calculations. Strong suggestion to cite this paper.
- DOI and bibtex: see https://docs.abinit.org/theory/bibliography/#torrent2008
-
- [2] Libxc: A library of exchange and correlation functionals for density functional theory.
- M.A.L. Marques, M.J.T. Oliveira, T. Burnus, Computer Physics Communications 183, 2227 (2012).
- Comment: to be cited when LibXC is used (negative value of ixc)
- Strong suggestion to cite this paper.
- DOI and bibtex: see https://docs.abinit.org/theory/bibliography/#marques2012
-
- [3] The Abinit project: Impact, environment and recent developments.
- Computer Phys. Comm. 248, 107042 (2020).
- X.Gonze, B. Amadon, G. Antonius, F.Arnardi, L.Baguet, J.-M.Beuken,
- J.Bieder, F.Bottin, J.Bouchet, E.Bousquet, N.Brouwer, F.Bruneval,
- G.Brunin, T.Cavignac, J.-B. Charraud, Wei Chen, M.Cote, S.Cottenier,
- J.Denier, G.Geneste, Ph.Ghosez, M.Giantomassi, Y.Gillet, O.Gingras,
- D.R.Hamann, G.Hautier, Xu He, N.Helbig, N.Holzwarth, Y.Jia, F.Jollet,
- W.Lafargue-Dit-Hauret, K.Lejaeghere, M.A.L.Marques, A.Martin, C.Martins,
- H.P.C. Miranda, F.Naccarato, K. Persson, G.Petretto, V.Planes, Y.Pouillon,
- S.Prokhorenko, F.Ricci, G.-M.Rignanese, A.H.Romero, M.M.Schmitt, M.Torrent,
- M.J.van Setten, B.Van Troeye, M.J.Verstraete, G.Zerah and J.W.Zwanzig
- Comment: the fifth generic paper describing the ABINIT project.
- Note that a version of this paper, that is not formatted for Computer Phys. Comm. 
- is available at https://www.abinit.org/sites/default/files/ABINIT20.pdf .
- The licence allows the authors to put it on the Web.
- DOI and bibtex: see https://docs.abinit.org/theory/bibliography/#gonze2020
-
- [4] ABINIT: Overview, and focus on selected capabilities
- J. Chem. Phys. 152, 124102 (2020).
- A. Romero, D.C. Allan, B. Amadon, G. Antonius, T. Applencourt, L.Baguet,
- J.Bieder, F.Bottin, J.Bouchet, E.Bousquet, F.Bruneval,
- G.Brunin, D.Caliste, M.Cote,
- J.Denier, C. Dreyer, Ph.Ghosez, M.Giantomassi, Y.Gillet, O.Gingras,
- D.R.Hamann, G.Hautier, F.Jollet, G. Jomard,
- A.Martin, 
- H.P.C. Miranda, F.Naccarato, G.Petretto, N.A. Pike, V.Planes,
- S.Prokhorenko, T. Rangel, F.Ricci, G.-M.Rignanese, M.Royo, M.Stengel, M.Torrent,
- M.J.van Setten, B.Van Troeye, M.J.Verstraete, J.Wiktor, J.W.Zwanziger, and X.Gonze.
- Comment: a global overview of ABINIT, with focus on selected capabilities .
- Note that a version of this paper, that is not formatted for J. Chem. Phys 
- is available at https://www.abinit.org/sites/default/files/ABINIT20_JPC.pdf .
- The licence allows the authors to put it on the Web.
- DOI and bibtex: see https://docs.abinit.org/theory/bibliography/#romero2020
-
- [5] Recent developments in the ABINIT software package.
- Computer Phys. Comm. 205, 106 (2016).
- X.Gonze, F.Jollet, F.Abreu Araujo, D.Adams, B.Amadon, T.Applencourt,
- C.Audouze, J.-M.Beuken, J.Bieder, A.Bokhanchuk, E.Bousquet, F.Bruneval
- D.Caliste, M.Cote, F.Dahm, F.Da Pieve, M.Delaveau, M.Di Gennaro,
- B.Dorado, C.Espejo, G.Geneste, L.Genovese, A.Gerossier, M.Giantomassi,
- Y.Gillet, D.R.Hamann, L.He, G.Jomard, J.Laflamme Janssen, S.Le Roux,
- A.Levitt, A.Lherbier, F.Liu, I.Lukacevic, A.Martin, C.Martins,
- M.J.T.Oliveira, S.Ponce, Y.Pouillon, T.Rangel, G.-M.Rignanese,
- A.H.Romero, B.Rousseau, O.Rubel, A.A.Shukri, M.Stankovski, M.Torrent,
- M.J.Van Setten, B.Van Troeye, M.J.Verstraete, D.Waroquier, J.Wiktor,
- B.Xu, A.Zhou, J.W.Zwanziger.
- Comment: the fourth generic paper describing the ABINIT project.
- Note that a version of this paper, that is not formatted for Computer Phys. Comm. 
- is available at https://www.abinit.org/sites/default/files/ABINIT16.pdf .
- The licence allows the authors to put it on the Web.
- DOI and bibtex: see https://docs.abinit.org/theory/bibliography/#gonze2016
-
- Proc.   0 individual time (sec): cpu=       7519.4  wall=       7530.8

================================================================================

 Calculation completed.
.Delivered   0 WARNINGs and  41 COMMENTs to log file.
+Overall time at end (sec) : cpu=      45064.9  wall=      45184.8
