
.Version 9.2.2 of ABINIT 
.(MPI version, prepared for a x86_64_linux_gnu9.3 computer) 

.Copyright (C) 1998-2020 ABINIT group . 
 ABINIT comes with ABSOLUTELY NO WARRANTY.
 It is free software, and you are welcome to redistribute it
 under certain conditions (GNU General Public License,
 see ~abinit/COPYING or http://www.gnu.org/copyleft/gpl.txt).

 ABINIT is a project of the Universite Catholique de Louvain,
 Corning Inc. and other collaborators, see ~abinit/doc/developers/contributors.txt .
 Please read https://docs.abinit.org/theory/acknowledgments for suggested
 acknowledgments of the ABINIT effort.
 For more information, see https://www.abinit.org .

.Starting date : Thu 27 Oct 2022.
- ( at 06h36 )
  
- input  file    -> Cs2TiI6.in
- output file    -> Cs2TiI6.out
- root for input  files -> Cs2TiI6i
- root for output files -> Cs2TiI6o

- inpspheads : Reading pseudopotential header in XML form from 
-   ../../../Psps_for_tests/ATOMICDATA/Cs.GGA_PBE-JTH.xml
- inpspheads : Reading pseudopotential header in XML form from 
-   ../../../Psps_for_tests/ATOMICDATA/Br.GGA_PBE-JTH.xml
- inpspheads : Reading pseudopotential header in XML form from 
-   ../../../Psps_for_tests/ATOMICDATA/Hf.GGA_PBE-JTH.xml

 DATASET    1 : space group Fm -3 m (#225); Bravais cF (face-center cubic)
================================================================================
 Values of the parameters that define the memory need for DATASET  1.
     intxc =       0    ionmov =       0      iscf =      17    lmnmax =      18
     lnmax =       6     mgfft =      64  mpssoang =       3    mqgrid =    3969
     natom =       9  nloc_mem =       2    nspden =       1   nspinor =       1
    nsppol =       1      nsym =      48    n1xccc =       1    ntypat =       3
    occopt =       1   xclevel =       2
-    mband =          42        mffmem =           1         mkmem =          12
       mpw =       10850          nfft =      262144          nkpt =          72
Pmy_natom=         2
 PAW method is used; the additional fine FFT grid is defined by:
   mgfftf=       100    nfftf =   1000000
================================================================================
P This job should need less than                     375.525 Mbytes of memory.
  Rough estimation (10% accuracy) of disk space for files :
_ WF disk file :    500.649 Mbytes ; DEN or POT disk file :      7.631 Mbytes.
================================================================================


 DATASET    2 : space group Fm -3 m (#225); Bravais cF (face-center cubic)
================================================================================
 Values of the parameters that define the memory need for DATASET  2.
     intxc =       0    ionmov =       0      iscf =      17    lmnmax =      18
     lnmax =       6     mgfft =      64  mpssoang =       3    mqgrid =    3929
     natom =       9  nloc_mem =       2    nspden =       1   nspinor =       1
    nsppol =       1      nsym =      48    n1xccc =       1    ntypat =       3
    occopt =       1   xclevel =       2
-    mband =          42        mffmem =           1         mkmem =          12
       mpw =       10465          nfft =      262144          nkpt =          72
Pmy_natom=         2
 PAW method is used; the additional fine FFT grid is defined by:
   mgfftf=       100    nfftf =   1000000
================================================================================
P This job should need less than                     372.364 Mbytes of memory.
  Rough estimation (10% accuracy) of disk space for files :
_ WF disk file :    482.884 Mbytes ; DEN or POT disk file :      7.631 Mbytes.
================================================================================


 DATASET    3 : space group Fm -3 m (#225); Bravais cF (face-center cubic)
================================================================================
 Values of the parameters that define the memory need for DATASET  3.
     intxc =       0    ionmov =       0      iscf =      17    lmnmax =      18
     lnmax =       6     mgfft =      64  mpssoang =       3    mqgrid =    3889
     natom =       9  nloc_mem =       2    nspden =       1   nspinor =       1
    nsppol =       1      nsym =      48    n1xccc =       1    ntypat =       3
    occopt =       1   xclevel =       2
-    mband =          42        mffmem =           1         mkmem =          12
       mpw =       10152          nfft =      262144          nkpt =          72
Pmy_natom=         2
 PAW method is used; the additional fine FFT grid is defined by:
   mgfftf=        96    nfftf =    884736
================================================================================
P This job should need less than                     342.289 Mbytes of memory.
  Rough estimation (10% accuracy) of disk space for files :
_ WF disk file :    468.441 Mbytes ; DEN or POT disk file :      6.752 Mbytes.
================================================================================


 DATASET    4 : space group Fm -3 m (#225); Bravais cF (face-center cubic)
================================================================================
 Values of the parameters that define the memory need for DATASET  4.
     intxc =       0    ionmov =       0      iscf =      17    lmnmax =      18
     lnmax =       6     mgfft =      60  mpssoang =       3    mqgrid =    3849
     natom =       9  nloc_mem =       2    nspden =       1   nspinor =       1
    nsppol =       1      nsym =      48    n1xccc =       1    ntypat =       3
    occopt =       1   xclevel =       2
-    mband =          42        mffmem =           1         mkmem =          12
       mpw =        9833          nfft =      216000          nkpt =          72
Pmy_natom=         2
 PAW method is used; the additional fine FFT grid is defined by:
   mgfftf=        96    nfftf =    884736
================================================================================
P This job should need less than                     332.824 Mbytes of memory.
  Rough estimation (10% accuracy) of disk space for files :
_ WF disk file :    453.722 Mbytes ; DEN or POT disk file :      6.752 Mbytes.
================================================================================


 DATASET    5 : space group Fm -3 m (#225); Bravais cF (face-center cubic)
================================================================================
 Values of the parameters that define the memory need for DATASET  5.
     intxc =       0    ionmov =       0      iscf =      17    lmnmax =      18
     lnmax =       6     mgfft =      60  mpssoang =       3    mqgrid =    3809
     natom =       9  nloc_mem =       2    nspden =       1   nspinor =       1
    nsppol =       1      nsym =      48    n1xccc =       1    ntypat =       3
    occopt =       1   xclevel =       2
-    mband =          42        mffmem =           1         mkmem =          12
       mpw =        9531          nfft =      216000          nkpt =          72
Pmy_natom=         2
 PAW method is used; the additional fine FFT grid is defined by:
   mgfftf=        96    nfftf =    884736
================================================================================
P This job should need less than                     330.381 Mbytes of memory.
  Rough estimation (10% accuracy) of disk space for files :
_ WF disk file :    439.787 Mbytes ; DEN or POT disk file :      6.752 Mbytes.
================================================================================


 DATASET    6 : space group Fm -3 m (#225); Bravais cF (face-center cubic)
================================================================================
 Values of the parameters that define the memory need for DATASET  6.
     intxc =       0    ionmov =       0      iscf =      17    lmnmax =      18
     lnmax =       6     mgfft =      60  mpssoang =       3    mqgrid =    3769
     natom =       9  nloc_mem =       2    nspden =       1   nspinor =       1
    nsppol =       1      nsym =      48    n1xccc =       1    ntypat =       3
    occopt =       1   xclevel =       2
-    mband =          42        mffmem =           1         mkmem =          12
       mpw =        9269          nfft =      216000          nkpt =          72
Pmy_natom=         2
 PAW method is used; the additional fine FFT grid is defined by:
   mgfftf=        96    nfftf =    884736
================================================================================
P This job should need less than                     328.291 Mbytes of memory.
  Rough estimation (10% accuracy) of disk space for files :
_ WF disk file :    427.698 Mbytes ; DEN or POT disk file :      6.752 Mbytes.
================================================================================


 DATASET    7 : space group Fm -3 m (#225); Bravais cF (face-center cubic)
================================================================================
 Values of the parameters that define the memory need for DATASET  7.
     intxc =       0    ionmov =       0      iscf =      17    lmnmax =      18
     lnmax =       6     mgfft =      60  mpssoang =       3    mqgrid =    3728
     natom =       9  nloc_mem =       2    nspden =       1   nspinor =       1
    nsppol =       1      nsym =      48    n1xccc =       1    ntypat =       3
    occopt =       1   xclevel =       2
-    mband =          42        mffmem =           1         mkmem =          12
       mpw =        8972          nfft =      216000          nkpt =          72
Pmy_natom=         2
 PAW method is used; the additional fine FFT grid is defined by:
   mgfftf=        96    nfftf =    884736
================================================================================
P This job should need less than                     325.907 Mbytes of memory.
  Rough estimation (10% accuracy) of disk space for files :
_ WF disk file :    413.993 Mbytes ; DEN or POT disk file :      6.752 Mbytes.
================================================================================


 DATASET    8 : space group Fm -3 m (#225); Bravais cF (face-center cubic)
================================================================================
 Values of the parameters that define the memory need for DATASET  8.
     intxc =       0    ionmov =       0      iscf =      17    lmnmax =      18
     lnmax =       6     mgfft =      60  mpssoang =       3    mqgrid =    3688
     natom =       9  nloc_mem =       2    nspden =       1   nspinor =       1
    nsppol =       1      nsym =      48    n1xccc =       1    ntypat =       3
    occopt =       1   xclevel =       2
-    mband =          42        mffmem =           1         mkmem =          12
       mpw =        8653          nfft =      216000          nkpt =          72
Pmy_natom=         2
 PAW method is used; the additional fine FFT grid is defined by:
   mgfftf=        96    nfftf =    884736
================================================================================
P This job should need less than                     323.341 Mbytes of memory.
  Rough estimation (10% accuracy) of disk space for files :
_ WF disk file :    399.274 Mbytes ; DEN or POT disk file :      6.752 Mbytes.
================================================================================


 DATASET    9 : space group Fm -3 m (#225); Bravais cF (face-center cubic)
================================================================================
 Values of the parameters that define the memory need for DATASET  9.
     intxc =       0    ionmov =       0      iscf =      17    lmnmax =      18
     lnmax =       6     mgfft =      60  mpssoang =       3    mqgrid =    3648
     natom =       9  nloc_mem =       2    nspden =       1   nspinor =       1
    nsppol =       1      nsym =      48    n1xccc =       1    ntypat =       3
    occopt =       1   xclevel =       2
-    mband =          42        mffmem =           1         mkmem =          12
       mpw =        8374          nfft =      216000          nkpt =          72
Pmy_natom=         2
 PAW method is used; the additional fine FFT grid is defined by:
   mgfftf=        90    nfftf =    729000
================================================================================
P This job should need less than                     283.714 Mbytes of memory.
  Rough estimation (10% accuracy) of disk space for files :
_ WF disk file :    386.400 Mbytes ; DEN or POT disk file :      5.564 Mbytes.
================================================================================


 DATASET   10 : space group Fm -3 m (#225); Bravais cF (face-center cubic)
================================================================================
 Values of the parameters that define the memory need for DATASET 10.
     intxc =       0    ionmov =       0      iscf =      17    lmnmax =      18
     lnmax =       6     mgfft =      60  mpssoang =       3    mqgrid =    3608
     natom =       9  nloc_mem =       2    nspden =       1   nspinor =       1
    nsppol =       1      nsym =      48    n1xccc =       1    ntypat =       3
    occopt =       1   xclevel =       2
-    mband =          42        mffmem =           1         mkmem =          12
       mpw =        8108          nfft =      216000          nkpt =          72
Pmy_natom=         2
 PAW method is used; the additional fine FFT grid is defined by:
   mgfftf=        90    nfftf =    729000
================================================================================
P This job should need less than                     281.586 Mbytes of memory.
  Rough estimation (10% accuracy) of disk space for files :
_ WF disk file :    374.126 Mbytes ; DEN or POT disk file :      5.564 Mbytes.
================================================================================

--------------------------------------------------------------------------------
------------- Echo of variables that govern the present computation ------------
--------------------------------------------------------------------------------
-
- outvars: echo of selected default values                                      
-   iomode0 =  0 , fftalg0 =112 , wfoptalg0 = 10
-
- outvars: echo of global parameters not present in the input file              
-  max_nthreads =    0
-
 -outvars: echo values of preprocessed input variables --------
            acell1     1.4844908963E+01  1.4844908963E+01  1.4844908963E+01 Bohr
            acell2     1.4694960387E+01  1.4694960387E+01  1.4694960387E+01 Bohr
            acell3     1.4545011812E+01  1.4545011812E+01  1.4545011812E+01 Bohr
            acell4     1.4395063236E+01  1.4395063236E+01  1.4395063236E+01 Bohr
            acell5     1.4245114661E+01  1.4245114661E+01  1.4245114661E+01 Bohr
            acell6     1.4095166086E+01  1.4095166086E+01  1.4095166086E+01 Bohr
            acell7     1.3945217510E+01  1.3945217510E+01  1.3945217510E+01 Bohr
            acell8     1.3795268935E+01  1.3795268935E+01  1.3795268935E+01 Bohr
            acell9     1.3645320360E+01  1.3645320360E+01  1.3645320360E+01 Bohr
            acell10    1.3495371784E+01  1.3495371784E+01  1.3495371784E+01 Bohr
              amu      1.32905430E+02  7.99040000E+01  1.78490000E+02
           diemac      1.20000000E+01
          dilatmx      1.15000000E+00
             ecut      1.60000000E+01 Hartree
           ecutsm      5.00000000E-01 Hartree
-          fftalg         112
           istwfk        2    0    0    0    0    0    3    0    0    0
                         0    0    0    0    0    0    0    0    0    0
                         0    0    0    0    0    0    0    0    0    0
                         0    0    0    0    0    0    0    0    0    0
                         0    0    7    0    0    0    0    0    0    0
                       outvar_i_n : Printing only first  50 k-points.
              ixc     -101130
           jdtset        1    2    3    4    5    6    7    8    9   10
              kpt      0.00000000E+00  0.00000000E+00  0.00000000E+00
                       8.33333333E-02  0.00000000E+00  0.00000000E+00
                       1.66666667E-01  0.00000000E+00  0.00000000E+00
                       2.50000000E-01  0.00000000E+00  0.00000000E+00
                       3.33333333E-01  0.00000000E+00  0.00000000E+00
                       4.16666667E-01  0.00000000E+00  0.00000000E+00
                       5.00000000E-01  0.00000000E+00  0.00000000E+00
                       8.33333333E-02  8.33333333E-02  0.00000000E+00
                       1.66666667E-01  8.33333333E-02  0.00000000E+00
                       2.50000000E-01  8.33333333E-02  0.00000000E+00
                       3.33333333E-01  8.33333333E-02  0.00000000E+00
                       4.16666667E-01  8.33333333E-02  0.00000000E+00
                       5.00000000E-01  8.33333333E-02  0.00000000E+00
                      -4.16666667E-01  8.33333333E-02  0.00000000E+00
                      -3.33333333E-01  8.33333333E-02  0.00000000E+00
                      -2.50000000E-01  8.33333333E-02  0.00000000E+00
                      -1.66666667E-01  8.33333333E-02  0.00000000E+00
                      -8.33333333E-02  8.33333333E-02  0.00000000E+00
                       1.66666667E-01  1.66666667E-01  0.00000000E+00
                       2.50000000E-01  1.66666667E-01  0.00000000E+00
                       3.33333333E-01  1.66666667E-01  0.00000000E+00
                       4.16666667E-01  1.66666667E-01  0.00000000E+00
                       5.00000000E-01  1.66666667E-01  0.00000000E+00
                      -4.16666667E-01  1.66666667E-01  0.00000000E+00
                      -3.33333333E-01  1.66666667E-01  0.00000000E+00
                      -2.50000000E-01  1.66666667E-01  0.00000000E+00
                      -1.66666667E-01  1.66666667E-01  0.00000000E+00
                       2.50000000E-01  2.50000000E-01  0.00000000E+00
                       3.33333333E-01  2.50000000E-01  0.00000000E+00
                       4.16666667E-01  2.50000000E-01  0.00000000E+00
                       5.00000000E-01  2.50000000E-01  0.00000000E+00
                      -4.16666667E-01  2.50000000E-01  0.00000000E+00
                      -3.33333333E-01  2.50000000E-01  0.00000000E+00
                      -2.50000000E-01  2.50000000E-01  0.00000000E+00
                       3.33333333E-01  3.33333333E-01  0.00000000E+00
                       4.16666667E-01  3.33333333E-01  0.00000000E+00
                       5.00000000E-01  3.33333333E-01  0.00000000E+00
                      -4.16666667E-01  3.33333333E-01  0.00000000E+00
                      -3.33333333E-01  3.33333333E-01  0.00000000E+00
                       4.16666667E-01  4.16666667E-01  0.00000000E+00
                       5.00000000E-01  4.16666667E-01  0.00000000E+00
                      -4.16666667E-01  4.16666667E-01  0.00000000E+00
                       5.00000000E-01  5.00000000E-01  0.00000000E+00
                       2.50000000E-01  1.66666667E-01  8.33333333E-02
                       3.33333333E-01  1.66666667E-01  8.33333333E-02
                       4.16666667E-01  1.66666667E-01  8.33333333E-02
                       5.00000000E-01  1.66666667E-01  8.33333333E-02
                      -4.16666667E-01  1.66666667E-01  8.33333333E-02
                       3.33333333E-01  2.50000000E-01  8.33333333E-02
                       4.16666667E-01  2.50000000E-01  8.33333333E-02
                       outvar_i_n : Printing only first  50 k-points.
         kptrlatt       12    0    0      0   12    0      0    0   12
          kptrlen1     1.78138908E+02
          kptrlen2     1.76339525E+02
          kptrlen3     1.74540142E+02
          kptrlen4     1.72740759E+02
          kptrlen5     1.70941376E+02
          kptrlen6     1.69141993E+02
          kptrlen7     1.67342610E+02
          kptrlen8     1.65543227E+02
          kptrlen9     1.63743844E+02
          kptrlen10    1.61944461E+02
P           mkmem          12
            natom           9
            nband          42
           ndtset          10
            ngfft1         64      64      64
            ngfft2         64      64      64
            ngfft3         64      64      64
            ngfft4         60      60      60
            ngfft5         60      60      60
            ngfft6         60      60      60
            ngfft7         60      60      60
            ngfft8         60      60      60
            ngfft9         60      60      60
            ngfft10        60      60      60
          ngfftdg1        100     100     100
          ngfftdg2        100     100     100
          ngfftdg3         96      96      96
          ngfftdg4         96      96      96
          ngfftdg5         96      96      96
          ngfftdg6         96      96      96
          ngfftdg7         96      96      96
          ngfftdg8         96      96      96
          ngfftdg9         90      90      90
          ngfftdg10        90      90      90
             nkpt          72
            nstep        2500
             nsym          48
           ntypat           3
              occ      2.000000  2.000000  2.000000  2.000000  2.000000  2.000000
                       2.000000  2.000000  2.000000  2.000000  2.000000  2.000000
                       2.000000  2.000000  2.000000  2.000000  2.000000  2.000000
                       2.000000  2.000000  2.000000  2.000000  2.000000  2.000000
                       2.000000  2.000000  2.000000  2.000000  2.000000  2.000000
                       2.000000  2.000000  2.000000  2.000000  2.000000  2.000000
                       0.000000  0.000000  0.000000  0.000000  0.000000  0.000000
        pawecutdg      4.00000000E+01 Hartree
            prtwf           0
            rprim      0.0000000000E+00  7.0710678119E-01  7.0710678119E-01
                       7.0710678119E-01  0.0000000000E+00  7.0710678119E-01
                       7.0710678119E-01  7.0710678119E-01  0.0000000000E+00
          spgroup         225
           symrel      1  0  0   0  1  0   0  0  1      -1  0  0   0 -1  0   0  0 -1
                       0 -1  1   0 -1  0   1 -1  0       0  1 -1   0  1  0  -1  1  0
                      -1  0  0  -1  0  1  -1  1  0       1  0  0   1  0 -1   1 -1  0
                       0  1 -1   1  0 -1   0  0 -1       0 -1  1  -1  0  1   0  0  1
                      -1  0  0  -1  1  0  -1  0  1       1  0  0   1 -1  0   1  0 -1
                       0 -1  1   1 -1  0   0 -1  0       0  1 -1  -1  1  0   0  1  0
                       1  0  0   0  0  1   0  1  0      -1  0  0   0  0 -1   0 -1  0
                       0  1 -1   0  0 -1   1  0 -1       0 -1  1   0  0  1  -1  0  1
                      -1  0  1  -1  1  0  -1  0  0       1  0 -1   1 -1  0   1  0  0
                       0 -1  0   1 -1  0   0 -1  1       0  1  0  -1  1  0   0  1 -1
                       1  0 -1   0  0 -1   0  1 -1      -1  0  1   0  0  1   0 -1  1
                       0  1  0   0  0  1   1  0  0       0 -1  0   0  0 -1  -1  0  0
                       1  0 -1   0  1 -1   0  0 -1      -1  0  1   0 -1  1   0  0  1
                       0 -1  0   0 -1  1   1 -1  0       0  1  0   0  1 -1  -1  1  0
                      -1  0  1  -1  0  0  -1  1  0       1  0 -1   1  0  0   1 -1  0
                       0  1  0   1  0  0   0  0  1       0 -1  0  -1  0  0   0  0 -1
                       0  0 -1   0  1 -1   1  0 -1       0  0  1   0 -1  1  -1  0  1
                       1 -1  0   0 -1  1   0 -1  0      -1  1  0   0  1 -1   0  1  0
                       0  0  1   1  0  0   0  1  0       0  0 -1  -1  0  0   0 -1  0
                      -1  1  0  -1  0  0  -1  0  1       1 -1  0   1  0  0   1  0 -1
                       0  0  1   0  1  0   1  0  0       0  0 -1   0 -1  0  -1  0  0
                       1 -1  0   0 -1  0   0 -1  1      -1  1  0   0  1  0   0  1 -1
                       0  0 -1   1  0 -1   0  1 -1       0  0  1  -1  0  1   0 -1  1
                      -1  1  0  -1  0  1  -1  0  0       1 -1  0   1  0 -1   1  0  0
           toldfe      1.00000000E-08 Hartree
            typat      1  1  2  2  2  2  2  2  3
           useylm           1
              wtk        0.00058    0.00463    0.00463    0.00463    0.00463    0.00463
                         0.00231    0.00347    0.01389    0.01389    0.01389    0.01389
                         0.01389    0.01389    0.01389    0.01389    0.01389    0.00694
                         0.00347    0.01389    0.01389    0.01389    0.01389    0.01389
                         0.01389    0.01389    0.00694    0.00347    0.01389    0.01389
                         0.01389    0.01389    0.01389    0.00694    0.00347    0.01389
                         0.01389    0.01389    0.00694    0.00347    0.01389    0.00694
                         0.00174    0.01389    0.02778    0.02778    0.02778    0.01389
                         0.01389    0.02778
                       outvars : Printing only first  50 k-points.
           xangst1     2.7773695911E+00  2.7773695911E+00  2.7773695911E+00
                       8.3321087732E+00  8.3321087732E+00  8.3321087732E+00
                       5.5547391822E+00  8.4830762841E+00  5.5547391822E+00
                       5.5547391822E+00  5.5547391822E+00  2.6264020803E+00
                       5.5547391822E+00  5.5547391822E+00  8.4830762841E+00
                       5.5547391822E+00  2.6264020803E+00  5.5547391822E+00
                       8.4830762841E+00  5.5547391822E+00  5.5547391822E+00
                       2.6264020803E+00  5.5547391822E+00  5.5547391822E+00
                       1.3986116688E-18 -4.1243056604E-19  1.7612410284E-18
           xangst2     2.7493153527E+00  2.7493153527E+00  2.7493153527E+00
                       8.2479460580E+00  8.2479460580E+00  8.2479460580E+00
                       5.4986307053E+00  8.3737623258E+00  5.4986307053E+00
                       5.4986307053E+00  5.4986307053E+00  2.6234990849E+00
                       5.4986307053E+00  5.4986307053E+00  8.3737623258E+00
                       5.4986307053E+00  2.6234990849E+00  5.4986307053E+00
                       8.3737623258E+00  5.4986307053E+00  5.4986307053E+00
                       2.6234990849E+00  5.4986307053E+00  5.4986307053E+00
                       3.0057168102E-18 -1.7054605473E-18  1.6077814541E-18
           xangst3     2.7212611144E+00  2.7212611144E+00  2.7212611144E+00
                       8.1637833433E+00  8.1637833433E+00  8.1637833433E+00
                       5.4425222289E+00  8.2651315438E+00  5.4425222289E+00
                       5.4425222289E+00  5.4425222289E+00  2.6199129140E+00
                       5.4425222289E+00  5.4425222289E+00  8.2651315438E+00
                       5.4425222289E+00  2.6199129140E+00  5.4425222289E+00
                       8.2651315438E+00  5.4425222289E+00  5.4425222289E+00
                       2.6199129140E+00  5.4425222289E+00  5.4425222289E+00
                       3.4189002132E-18 -3.2156977245E-18  1.6427295296E-18
           xangst4     2.6932068760E+00  2.6932068760E+00  2.6932068760E+00
                       8.0796206281E+00  8.0796206281E+00  8.0796206281E+00
                       5.3864137521E+00  8.1568189269E+00  5.3864137521E+00
                       5.3864137521E+00  5.3864137521E+00  2.6160085773E+00
                       5.3864137521E+00  5.3864137521E+00  8.1568189269E+00
                       5.3864137521E+00  2.6160085773E+00  5.3864137521E+00
                       8.1568189269E+00  5.3864137521E+00  5.3864137521E+00
                       2.6160085773E+00  5.3864137521E+00  5.3864137521E+00
                       1.5296303013E-18 -5.7333347449E-19  1.7284007822E-18
           xangst5     2.6651526378E+00  2.6651526378E+00  2.6651526378E+00
                       7.9954579134E+00  7.9954579134E+00  7.9954579134E+00
                       5.3303052756E+00  8.0494370392E+00  5.3303052756E+00
                       5.3303052756E+00  5.3303052756E+00  2.6111735121E+00
                       5.3303052756E+00  5.3303052756E+00  8.0494370392E+00
                       5.3303052756E+00  2.6111735121E+00  5.3303052756E+00
                       8.0494370392E+00  5.3303052756E+00  5.3303052756E+00
                       2.6111735121E+00  5.3303052756E+00  5.3303052756E+00
                       1.3588556050E-18  1.2244310615E-18  1.7067804657E-18
           xangst6     2.6370983996E+00  2.6370983996E+00  2.6370983996E+00
                       7.9112951988E+00  7.9112951988E+00  7.9112951988E+00
                       5.2741967992E+00  7.9428687766E+00  5.2741967992E+00
                       5.2741967992E+00  5.2741967992E+00  2.6055248218E+00
                       5.2741967992E+00  5.2741967992E+00  7.9428687766E+00
                       5.2741967992E+00  2.6055248218E+00  5.2741967992E+00
                       7.9428687766E+00  5.2741967992E+00  5.2741967992E+00
                       2.6055248218E+00  5.2741967992E+00  5.2741967992E+00
                       1.5100895769E-18 -6.2592297391E-19  1.6913841417E-18
           xangst7     2.6090441612E+00  2.6090441612E+00  2.6090441612E+00
                       7.8271324836E+00  7.8271324836E+00  7.8271324836E+00
                       5.2180883224E+00  7.8372712452E+00  5.2180883224E+00
                       5.2180883224E+00  5.2180883224E+00  2.5989053995E+00
                       5.2180883224E+00  5.2180883224E+00  7.8372712452E+00
                       5.2180883224E+00  2.5989053995E+00  5.2180883224E+00
                       7.8372712452E+00  5.2180883224E+00  5.2180883224E+00
                       2.5989053995E+00  5.2180883224E+00  5.2180883224E+00
                       1.7097781008E-18 -8.5819549503E-19  2.0426420494E-18
           xangst8     2.5809899230E+00  2.5809899230E+00  2.5809899230E+00
                       7.7429697689E+00  7.7429697689E+00  7.7429697689E+00
                       5.1619798459E+00  7.7325735211E+00  5.1619798459E+00
                       5.1619798459E+00  5.1619798459E+00  2.5913861707E+00
                       5.1619798459E+00  5.1619798459E+00  7.7325735211E+00
                       5.1619798459E+00  2.5913861707E+00  5.1619798459E+00
                       7.7325735211E+00  5.1619798459E+00  5.1619798459E+00
                       2.5913861707E+00  5.1619798459E+00  5.1619798459E+00
                       8.5123013863E-19 -5.8375370609E-19  1.8833759170E-18
           xangst9     2.5529356847E+00  2.5529356847E+00  2.5529356847E+00
                       7.6588070542E+00  7.6588070542E+00  7.6588070542E+00
                       5.1058713695E+00  7.6290647870E+00  5.1058713695E+00
                       5.1058713695E+00  5.1058713695E+00  2.5826779520E+00
                       5.1058713695E+00  5.1058713695E+00  7.6290647870E+00
                       5.1058713695E+00  2.5826779520E+00  5.1058713695E+00
                       7.6290647870E+00  5.1058713695E+00  5.1058713695E+00
                       2.5826779520E+00  5.1058713695E+00  5.1058713695E+00
                       1.1254356507E-18 -1.8686276122E-19  1.3365929032E-18
           xangst10    2.5248814463E+00  2.5248814463E+00  2.5248814463E+00
                       7.5746443390E+00  7.5746443390E+00  7.5746443390E+00
                       5.0497628927E+00  7.5267601658E+00  5.0497628927E+00
                       5.0497628927E+00  5.0497628927E+00  2.5727656196E+00
                       5.0497628927E+00  5.0497628927E+00  7.5267601658E+00
                       5.0497628927E+00  2.5727656196E+00  5.0497628927E+00
                       7.5267601658E+00  5.0497628927E+00  5.0497628927E+00
                       2.5727656196E+00  5.0497628927E+00  5.0497628927E+00
                       1.4446621889E-18 -5.5190565707E-19  1.6268654891E-18
            xcart1     5.2484678969E+00  5.2484678969E+00  5.2484678969E+00
                       1.5745403691E+01  1.5745403691E+01  1.5745403691E+01
                       1.0496935794E+01  1.6030690941E+01  1.0496935794E+01
                       1.0496935794E+01  1.0496935794E+01  4.9631806465E+00
                       1.0496935794E+01  1.0496935794E+01  1.6030690941E+01
                       1.0496935794E+01  4.9631806465E+00  1.0496935794E+01
                       1.6030690941E+01  1.0496935794E+01  1.0496935794E+01
                       4.9631806465E+00  1.0496935794E+01  1.0496935794E+01
                       2.6429930202E-18 -7.7938081864E-19  3.3282631977E-18
            xcart2     5.1954530695E+00  5.1954530695E+00  5.1954530695E+00
                       1.5586359208E+01  1.5586359208E+01  1.5586359208E+01
                       1.0390906139E+01  1.5824117498E+01  1.0390906139E+01
                       1.0390906139E+01  1.0390906139E+01  4.9576947803E+00
                       1.0390906139E+01  1.0390906139E+01  1.5824117498E+01
                       1.0390906139E+01  4.9576947803E+00  1.0390906139E+01
                       1.5824117498E+01  1.0390906139E+01  1.0390906139E+01
                       4.9576947803E+00  1.0390906139E+01  1.0390906139E+01
                       5.6799816043E-18 -3.2228533649E-18  3.0382666297E-18
            xcart3     5.1424382424E+00  5.1424382424E+00  5.1424382424E+00
                       1.5427314727E+01  1.5427314727E+01  1.5427314727E+01
                       1.0284876485E+01  1.5618835070E+01  1.0284876485E+01
                       1.0284876485E+01  1.0284876485E+01  4.9509178994E+00
                       1.0284876485E+01  1.0284876485E+01  1.5618835070E+01
                       1.0284876485E+01  4.9509178994E+00  1.0284876485E+01
                       1.5618835070E+01  1.0284876485E+01  1.0284876485E+01
                       4.9509178994E+00  1.0284876485E+01  1.0284876485E+01
                       6.4607850786E-18 -6.0767880254E-18  3.1043089213E-18
            xcart4     5.0894234149E+00  5.0894234149E+00  5.0894234149E+00
                       1.5268270245E+01  1.5268270245E+01  1.5268270245E+01
                       1.0178846830E+01  1.5414153887E+01  1.0178846830E+01
                       1.0178846830E+01  1.0178846830E+01  4.9435397724E+00
                       1.0178846830E+01  1.0178846830E+01  1.5414153887E+01
                       1.0178846830E+01  4.9435397724E+00  1.0178846830E+01
                       1.5414153887E+01  1.0178846830E+01  1.0178846830E+01
                       4.9435397724E+00  1.0178846830E+01  1.0178846830E+01
                       2.8905823540E-18 -1.0834432496E-18  3.2662041262E-18
            xcart5     5.0364085878E+00  5.0364085878E+00  5.0364085878E+00
                       1.5109225763E+01  1.5109225763E+01  1.5109225763E+01
                       1.0072817176E+01  1.5211231528E+01  1.0072817176E+01
                       1.0072817176E+01  1.0072817176E+01  4.9344028232E+00
                       1.0072817176E+01  1.0072817176E+01  1.5211231528E+01
                       1.0072817176E+01  4.9344028232E+00  1.0072817176E+01
                       1.5211231528E+01  1.0072817176E+01  1.0072817176E+01
                       4.9344028232E+00  1.0072817176E+01  1.0072817176E+01
                       2.5678649477E-18  2.3138393748E-18  3.2253476491E-18
            xcart6     4.9833937607E+00  4.9833937607E+00  4.9833937607E+00
                       1.4950181282E+01  1.4950181282E+01  1.4950181282E+01
                       9.9667875214E+00  1.5009846697E+01  9.9667875214E+00
                       9.9667875214E+00  9.9667875214E+00  4.9237283457E+00
                       9.9667875214E+00  9.9667875214E+00  1.5009846697E+01
                       9.9667875214E+00  4.9237283457E+00  9.9667875214E+00
                       1.5009846697E+01  9.9667875214E+00  9.9667875214E+00
                       4.9237283457E+00  9.9667875214E+00  9.9667875214E+00
                       2.8536557364E-18 -1.1828230010E-18  3.1962528134E-18
            xcart7     4.9303789332E+00  4.9303789332E+00  4.9303789332E+00
                       1.4791136800E+01  1.4791136800E+01  1.4791136800E+01
                       9.8607578665E+00  1.4810296283E+01  9.8607578665E+00
                       9.8607578665E+00  9.8607578665E+00  4.9112194503E+00
                       9.8607578665E+00  9.8607578665E+00  1.4810296283E+01
                       9.8607578665E+00  4.9112194503E+00  9.8607578665E+00
                       1.4810296283E+01  9.8607578665E+00  9.8607578665E+00
                       4.9112194503E+00  9.8607578665E+00  9.8607578665E+00
                       3.2310123584E-18 -1.6217544541E-18  3.8600340609E-18
            xcart8     4.8773641061E+00  4.8773641061E+00  4.8773641061E+00
                       1.4632092318E+01  1.4632092318E+01  1.4632092318E+01
                       9.7547282123E+00  1.4612446257E+01  9.7547282123E+00
                       9.7547282123E+00  9.7547282123E+00  4.8970101672E+00
                       9.7547282123E+00  9.7547282123E+00  1.4612446257E+01
                       9.7547282123E+00  4.8970101672E+00  9.7547282123E+00
                       1.4612446257E+01  9.7547282123E+00  9.7547282123E+00
                       4.8970101672E+00  9.7547282123E+00  9.7547282123E+00
                       1.6085918381E-18 -1.1031346336E-18  3.5590646884E-18
            xcart9     4.8243492790E+00  4.8243492790E+00  4.8243492790E+00
                       1.4473047837E+01  1.4473047837E+01  1.4473047837E+01
                       9.6486985581E+00  1.4416843097E+01  9.6486985581E+00
                       9.6486985581E+00  9.6486985581E+00  4.8805540188E+00
                       9.6486985581E+00  9.6486985581E+00  1.4416843097E+01
                       9.6486985581E+00  4.8805540188E+00  9.6486985581E+00
                       1.4416843097E+01  9.6486985581E+00  9.6486985581E+00
                       4.8805540188E+00  9.6486985581E+00  9.6486985581E+00
                       2.1267651600E-18 -3.5311944314E-19  2.5257945382E-18
            xcart10    4.7713344516E+00  4.7713344516E+00  4.7713344516E+00
                       1.4314003355E+01  1.4314003355E+01  1.4314003355E+01
                       9.5426689031E+00  1.4223515381E+01  9.5426689031E+00
                       9.5426689031E+00  9.5426689031E+00  4.8618224251E+00
                       9.5426689031E+00  9.5426689031E+00  1.4223515381E+01
                       9.5426689031E+00  4.8618224251E+00  9.5426689031E+00
                       1.4223515381E+01  9.5426689031E+00  9.5426689031E+00
                       4.8618224251E+00  9.5426689031E+00  9.5426689031E+00
                       2.7300158916E-18 -1.0429505431E-18  3.0743302295E-18
             xred1     2.5000000000E-01  2.5000000000E-01  2.5000000000E-01
                       7.5000000000E-01  7.5000000000E-01  7.5000000000E-01
                       7.6358907285E-01  2.3641092715E-01  7.6358907285E-01
                       2.3641092715E-01  2.3641092715E-01  7.6358907285E-01
                       7.6358907285E-01  7.6358907285E-01  2.3641092715E-01
                       2.3641092715E-01  7.6358907285E-01  2.3641092715E-01
                       2.3641092715E-01  7.6358907285E-01  7.6358907285E-01
                       7.6358907285E-01  2.3641092715E-01  2.3641092715E-01
                      -4.4827673062E-21  3.2155274497E-19 -6.9765645178E-20
             xred2     2.5000000000E-01  2.5000000000E-01  2.5000000000E-01
                       7.5000000000E-01  7.5000000000E-01  7.5000000000E-01
                       7.6144069083E-01  2.3855930917E-01  7.6144069083E-01
                       2.3855930917E-01  2.3855930917E-01  7.6144069083E-01
                       7.6144069083E-01  7.6144069083E-01  2.3855930917E-01
                       2.3855930917E-01  7.6144069083E-01  2.3855930917E-01
                       2.3855930917E-01  7.6144069083E-01  7.6144069083E-01
                       7.6144069083E-01  2.3855930917E-01  2.3855930917E-01
                      -2.8219715687E-19  5.7459385347E-19 -2.7963797506E-20
             xred3     2.5000000000E-01  2.5000000000E-01  2.5000000000E-01
                       7.5000000000E-01  7.5000000000E-01  7.5000000000E-01
                       7.5931077506E-01  2.4068922494E-01  7.5931077506E-01
                       2.4068922494E-01  2.4068922494E-01  7.5931077506E-01
                       7.5931077506E-01  7.5931077506E-01  2.4068922494E-01
                       2.4068922494E-01  7.5931077506E-01  2.4068922494E-01
                       2.4068922494E-01  7.5931077506E-01  7.5931077506E-01
                       7.5931077506E-01  2.4068922494E-01  2.4068922494E-01
                      -4.5859880751E-19  7.6043120442E-19 -1.3224815447E-19
             xred4     2.5000000000E-01  2.5000000000E-01  2.5000000000E-01
                       7.5000000000E-01  7.5000000000E-01  7.5000000000E-01
                       7.5716602013E-01  2.4283397987E-01  7.5716602013E-01
                       2.4283397987E-01  2.4283397987E-01  7.5716602013E-01
                       7.5716602013E-01  7.5716602013E-01  2.4283397987E-01
                       2.4283397987E-01  7.5716602013E-01  2.4283397987E-01
                       2.4283397987E-01  7.5716602013E-01  7.5716602013E-01
                       7.5716602013E-01  2.4283397987E-01  2.4283397987E-01
                      -3.4769237090E-20  3.5565078495E-19 -7.1671430278E-20
             xred5     2.5000000000E-01  2.5000000000E-01  2.5000000000E-01
                       7.5000000000E-01  7.5000000000E-01  7.5000000000E-01
                       7.5506341785E-01  2.4493658215E-01  7.5506341785E-01
                       2.4493658215E-01  2.4493658215E-01  7.5506341785E-01
                       7.5506341785E-01  7.5506341785E-01  2.4493658215E-01
                       2.4493658215E-01  7.5506341785E-01  2.4493658215E-01
                       2.4493658215E-01  7.5506341785E-01  7.5506341785E-01
                       7.5506341785E-01  2.4493658215E-01  2.4493658215E-01
                       1.4749210794E-19  1.7271102817E-19  8.2219137136E-20
             xred6     2.5000000000E-01  2.5000000000E-01  2.5000000000E-01
                       7.5000000000E-01  7.5000000000E-01  7.5000000000E-01
                       7.5299321195E-01  2.4700678805E-01  7.5299321195E-01
                       2.4700678805E-01  2.4700678805E-01  7.5299321195E-01
                       7.5299321195E-01  7.5299321195E-01  2.4700678805E-01
                       2.4700678805E-01  7.5299321195E-01  2.4700678805E-01
                       2.4700678805E-01  7.5299321195E-01  7.5299321195E-01
                       7.5299321195E-01  2.4700678805E-01  2.4700678805E-01
                      -4.2151291083E-20  3.6284166464E-19 -7.6525162933E-20
             xred7     2.5000000000E-01  2.5000000000E-01  2.5000000000E-01
                       7.5000000000E-01  7.5000000000E-01  7.5000000000E-01
                       7.5097150154E-01  2.4902849846E-01  7.5097150154E-01
                       2.4902849846E-01  2.4902849846E-01  7.5097150154E-01
                       7.5097150154E-01  7.5097150154E-01  2.4902849846E-01
                       2.4902849846E-01  7.5097150154E-01  2.4902849846E-01
                       2.4902849846E-01  7.5097150154E-01  7.5097150154E-01
                       7.5097150154E-01  2.4902849846E-01  2.4902849846E-01
                      -5.0337548342E-20  4.4179164479E-19 -1.1412794975E-19
             xred8     2.5000000000E-01  2.5000000000E-01  2.5000000000E-01
                       7.5000000000E-01  7.5000000000E-01  7.5000000000E-01
                       7.4899299803E-01  2.5100700197E-01  7.4899299803E-01
                       2.5100700197E-01  2.5100700197E-01  7.4899299803E-01
                       7.4899299803E-01  7.4899299803E-01  2.5100700197E-01
                       2.5100700197E-01  7.4899299803E-01  2.5100700197E-01
                       2.5100700197E-01  7.4899299803E-01  7.4899299803E-01
                       7.4899299803E-01  2.5100700197E-01  2.5100700197E-01
                       4.3432179672E-20  3.2142316134E-19 -1.5651935233E-19
             xred9     2.5000000000E-01  2.5000000000E-01  2.5000000000E-01
                       7.5000000000E-01  7.5000000000E-01  7.5000000000E-01
                       7.4708744452E-01  2.5291255548E-01  7.4708744452E-01
                       2.5291255548E-01  2.5291255548E-01  7.4708744452E-01
                       7.4708744452E-01  7.4708744452E-01  2.5291255548E-01
                       2.5291255548E-01  7.4708744452E-01  2.5291255548E-01
                       2.5291255548E-01  7.4708744452E-01  7.4708744452E-01
                       7.4708744452E-01  2.5291255548E-01  2.5291255548E-01
                       2.3790739629E-21  2.5939659692E-19 -3.8976698090E-20
             xred10    2.5000000000E-01  2.5000000000E-01  2.5000000000E-01
                       7.5000000000E-01  7.5000000000E-01  7.5000000000E-01
                       7.4525877014E-01  2.5474122986E-01  7.4525877014E-01
                       2.5474122986E-01  2.5474122986E-01  7.4525877014E-01
                       7.4525877014E-01  7.4525877014E-01  2.5474122986E-01
                       2.5474122986E-01  7.4525877014E-01  2.5474122986E-01
                       2.5474122986E-01  7.4525877014E-01  7.4525877014E-01
                       7.4525877014E-01  2.5474122986E-01  2.5474122986E-01
                      -3.6605912468E-20  3.5877262083E-19 -7.2687467994E-20
            znucl       55.00000   35.00000   72.00000

================================================================================

 chkinp: Checking input parameters for consistency, jdtset=   1.

 chkinp: Checking input parameters for consistency, jdtset=   2.

 chkinp: Checking input parameters for consistency, jdtset=   3.

 chkinp: Checking input parameters for consistency, jdtset=   4.

 chkinp: Checking input parameters for consistency, jdtset=   5.

 chkinp: Checking input parameters for consistency, jdtset=   6.

 chkinp: Checking input parameters for consistency, jdtset=   7.

 chkinp: Checking input parameters for consistency, jdtset=   8.

 chkinp: Checking input parameters for consistency, jdtset=   9.

 chkinp: Checking input parameters for consistency, jdtset=  10.

================================================================================
== DATASET  1 ==================================================================
-   mpi_nproc: 6, omp_nthreads: -1 (-1 if OMP is not activated)


--- !DatasetInfo
iteration_state: {dtset: 1, }
dimensions: {natom: 9, nkpt: 72, mband: 42, nsppol: 1, nspinor: 1, nspden: 1, mpw: 10850, }
cutoff_energies: {ecut:  16.0, pawecutdg:  40.0, }
electrons: {nelect:   7.20000000E+01, charge:   0.00000000E+00, occopt:   1.00000000E+00, tsmear:   1.00000000E-02, }
meta: {optdriver: 0, ionmov: 0, optcell: 0, iscf: 17, paral_kgb: 0, }
...

 Real(R)+Recip(G) space primitive vectors, cartesian coordinates (Bohr,Bohr^-1):
 R(1)=  0.0000000 10.4969358 10.4969358  G(1)= -0.0476329  0.0476329  0.0476329
 R(2)= 10.4969358  0.0000000 10.4969358  G(2)=  0.0476329 -0.0476329  0.0476329
 R(3)= 10.4969358 10.4969358  0.0000000  G(3)=  0.0476329  0.0476329 -0.0476329
 Unit cell volume ucvol=  2.3132236E+03 bohr^3
 Angles (23,13,12)=  6.00000000E+01  6.00000000E+01  6.00000000E+01 degrees

 Coarse grid specifications (used for wave-functions):

 getcut: wavevector=  0.0000  0.0000  0.0000  ngfft=  64  64  64
         ecut(hartree)=     21.160   => boxcut(ratio)=   2.08199

 Fine grid specifications (used for densities):

 getcut: wavevector=  0.0000  0.0000  0.0000  ngfft= 100 100 100
         ecut(hartree)=     52.900   => boxcut(ratio)=   2.05745

--- Pseudopotential description ------------------------------------------------
- pspini: atom type   1  psp file is ../../../Psps_for_tests/ATOMICDATA/Cs.GGA_PBE-JTH.xml
- pspatm: opening atomic psp file    ../../../Psps_for_tests/ATOMICDATA/Cs.GGA_PBE-JTH.xml
- pspatm : Reading pseudopotential header in XML form from ../../../Psps_for_tests/ATOMICDATA/Cs.GGA_PBE-JTH.xml
 Pseudopotential format is: paw10
 basis_size (lnmax)=  6 (lmn_size= 18), orbitals=   0   0   1   1   2   2
 Spheres core radius: rc_sph= 2.20660278
 1 radial meshes are used:
  - mesh 1: r(i)=AA*[exp(BB*(i-1))-1], size=1500 , AA= 0.15922E-03 BB= 0.87573E-02
 Shapefunction is SIN type: shapef(r)=[sin(pi*r/rshp)/(pi*r/rshp)]**2
 Radius for shape functions =  2.00394208
 mmax= 1500
 Radial grid used for partial waves is grid 1
 Radial grid used for projectors is grid 1
 Radial grid used for (t)core density is grid 1
 Radial grid used for Vloc is grid 1
 Radial grid used for pseudo valence density is grid 1
 Mesh size for Vloc has been set to 1341 to avoid numerical noise.
 Compensation charge density is not taken into account in XC energy/potential
 pspatm: atomic psp has been read  and splines computed

- pspini: atom type   2  psp file is ../../../Psps_for_tests/ATOMICDATA/Br.GGA_PBE-JTH.xml
- pspatm: opening atomic psp file    ../../../Psps_for_tests/ATOMICDATA/Br.GGA_PBE-JTH.xml
- pspatm : Reading pseudopotential header in XML form from ../../../Psps_for_tests/ATOMICDATA/Br.GGA_PBE-JTH.xml
 Pseudopotential format is: paw10
 basis_size (lnmax)=  4 (lmn_size=  8), orbitals=   0   0   1   1
 Spheres core radius: rc_sph= 2.20000000
 1 radial meshes are used:
  - mesh 1: r(i)=AA*[exp(BB*(i-1))-1], size= 927 , AA= 0.40483E-03 BB= 0.14169E-01
 Shapefunction is BESSEL type: shapef(r,l)=aa(1,l)*jl(q(1,l)*r)+aa(2,l)*jl(q(2,l)*r)
 Radius for shape functions =  2.02066386
 mmax=  927
 Radial grid used for partial waves is grid 1
 Radial grid used for projectors is grid 1
 Radial grid used for (t)core density is grid 1
 Radial grid used for Vloc is grid 1
 Radial grid used for pseudo valence density is grid 1
 Mesh size for Vloc has been set to  763 to avoid numerical noise.
 Compensation charge density is not taken into account in XC energy/potential
 pspatm: atomic psp has been read  and splines computed

- pspini: atom type   3  psp file is ../../../Psps_for_tests/ATOMICDATA/Hf.GGA_PBE-JTH.xml
- pspatm: opening atomic psp file    ../../../Psps_for_tests/ATOMICDATA/Hf.GGA_PBE-JTH.xml
- pspatm : Reading pseudopotential header in XML form from ../../../Psps_for_tests/ATOMICDATA/Hf.GGA_PBE-JTH.xml
 Pseudopotential format is: paw10
 basis_size (lnmax)=  6 (lmn_size= 18), orbitals=   0   0   1   1   2   2
 Spheres core radius: rc_sph= 2.41000000
 1 radial meshes are used:
  - mesh 1: r(i)=AA*[exp(BB*(i-1))-1], size= 972 , AA= 0.19796E-03 BB= 0.14253E-01
 Shapefunction is SIN type: shapef(r)=[sin(pi*r/rshp)/(pi*r/rshp)]**2
 Radius for shape functions =  2.41000000
 mmax=  972
 Radial grid used for partial waves is grid 1
 Radial grid used for projectors is grid 1
 Radial grid used for (t)core density is grid 1
 Radial grid used for Vloc is grid 1
 Radial grid used for pseudo valence density is grid 1
 Mesh size for Vloc has been set to  809 to avoid numerical noise.
 Compensation charge density is not taken into account in XC energy/potential
 pspatm: atomic psp has been read  and splines computed

   2.70510764E+04                                ecore*ucvol(ha*bohr**3)
--------------------------------------------------------------------------------

_setup2: Arith. and geom. avg. npw (full set) are   10754.035   10754.026

================================================================================

--- !BeginCycle
iteration_state: {dtset: 1, }
solver: {iscf: 17, nstep: 2500, nline: 4, wfoptalg: 10, }
tolerances: {toldfe: 1.00E-08, }
...

     iter   Etot(hartree)      deltaE(h)  residm     nres2
 ETOT  1  -171.29857806637    -1.713E+02 8.344E+00 8.282E+00
 ETOT  2  -173.12153004693    -1.823E+00 2.638E-02 4.084E+00
 ETOT  3  -173.10781191408     1.372E-02 1.561E-02 6.811E-01
 ETOT  4  -173.10836106951    -5.492E-04 8.674E-03 1.426E-01
 ETOT  5  -173.10847400642    -1.129E-04 4.799E-03 1.329E-02
 ETOT  6  -173.10855401103    -8.000E-05 3.083E-03 1.459E-03
 ETOT  7  -173.10856642395    -1.241E-05 2.046E-03 3.183E-04
 ETOT  8  -173.10856870436    -2.280E-06 1.545E-03 6.274E-06
 ETOT  9  -173.10856879597    -9.161E-08 1.205E-03 1.226E-06
 ETOT 10  -173.10856880032    -4.348E-09 1.014E-03 1.590E-07
 ETOT 11  -173.10856880034    -2.473E-11 5.608E-04 1.819E-08

 At SCF step   11, etot is converged : 
  for the second time, diff in etot=  2.473E-11 < toldfe=  1.000E-08

 Cartesian components of stress tensor (hartree/bohr^3)
  sigma(1 1)= -8.79992553E-06  sigma(3 2)=  0.00000000E+00
  sigma(2 2)= -8.79992553E-06  sigma(3 1)=  0.00000000E+00
  sigma(3 3)= -8.79992553E-06  sigma(2 1)=  0.00000000E+00


--- !ResultsGS
iteration_state: {dtset: 1, }
comment   : Summary of ground state results
lattice_vectors:
- [  0.0000000,  10.4969358,  10.4969358, ]
- [ 10.4969358,   0.0000000,  10.4969358, ]
- [ 10.4969358,  10.4969358,   0.0000000, ]
lattice_lengths: [  14.84491,   14.84491,   14.84491, ]
lattice_angles: [ 60.000,  60.000,  60.000, ] # degrees, (23, 13, 12)
lattice_volume:   2.3132236E+03
convergence: {deltae: -2.473E-11, res2:  1.819E-08, residm:  5.608E-04, diffor: null, }
etotal    :  -1.73108569E+02
entropy   :   0.00000000E+00
fermie    :  -7.73777548E-02
cartesian_stress_tensor: # hartree/bohr^3
- [ -8.79992553E-06,   0.00000000E+00,   0.00000000E+00, ]
- [  0.00000000E+00,  -8.79992553E-06,   0.00000000E+00, ]
- [  0.00000000E+00,   0.00000000E+00,  -8.79992553E-06, ]
pressure_GPa:   2.5890E-01
xred      :
- [  2.5000E-01,   2.5000E-01,   2.5000E-01, Cs]
- [  7.5000E-01,   7.5000E-01,   7.5000E-01, Cs]
- [  7.6359E-01,   2.3641E-01,   7.6359E-01, Br]
- [  2.3641E-01,   2.3641E-01,   7.6359E-01, Br]
- [  7.6359E-01,   7.6359E-01,   2.3641E-01, Br]
- [  2.3641E-01,   7.6359E-01,   2.3641E-01, Br]
- [  2.3641E-01,   7.6359E-01,   7.6359E-01, Br]
- [  7.6359E-01,   2.3641E-01,   2.3641E-01, Br]
- [ -4.4828E-21,   3.2155E-19,  -6.9766E-20, Hf]
cartesian_forces: # hartree/bohr
- [ -4.70573988E-23,  -7.05860661E-23,   2.37886171E-23, ]
- [ -4.70573731E-23,  -7.05861174E-23,   2.37886171E-23, ]
- [ -1.50139879E-22,  -2.26589600E-06,   1.26871123E-22, ]
- [  2.63104479E-22,  -3.80747944E-22,   2.26589600E-06, ]
- [ -3.06847721E-22,   1.89204256E-22,  -2.26589600E-06, ]
- [  3.78798520E-22,   2.26589600E-06,  -4.02067276E-22, ]
- [ -2.26589600E-06,  -1.83940687E-22,   1.37143238E-22, ]
- [  2.26589600E-06,   2.54526766E-22,  -3.01324215E-22, ]
- [ -4.70573860E-23,  -7.05860789E-23,   2.37886299E-23, ]
force_length_stats: {min:   8.81061281E-23, max:   2.26589600E-06, mean:   1.51059733E-06, }
...

 Integrated electronic density in atomic spheres:
 ------------------------------------------------
 Atom  Sphere_radius  Integrated_density
    1        2.20660          5.35295894
    2        2.20660          5.35295894
    3        2.20000          4.93970185
    4        2.20000          4.93970185
    5        2.20000          4.93970185
    6        2.20000          4.93970185
    7        2.20000          4.93970185
    8        2.20000          4.93970185
    9        2.41000          9.27787645

 PAW TEST:
 ==== Compensation charge inside spheres ============
 The following values must be close to each other ...
 Compensation charge over spherical meshes =     -0.268544548379944
 Compensation charge over fine fft grid    =     -0.268530784807350

 ==== Results concerning PAW augmentation regions ====

 Total pseudopotential strength Dij (hartree):
 Atom #  1
   0.43017  -0.14250   0.00000   0.00000   0.00000   0.00000   0.00000   0.00000   0.00000   0.00000   0.00000   0.00000 ...
  -0.14250   0.04287   0.00000   0.00000   0.00000   0.00000   0.00000   0.00000   0.00000   0.00000   0.00000   0.00000 ...
   0.00000   0.00000  -0.09235   0.00000   0.00000  -0.16728   0.00000   0.00000   0.00000   0.00000   0.00000  -0.00000 ...
   0.00000   0.00000   0.00000  -0.09235   0.00000   0.00000  -0.16728   0.00000  -0.00000   0.00000   0.00000   0.00000 ...
   0.00000   0.00000   0.00000   0.00000  -0.09235   0.00000   0.00000  -0.16728   0.00000  -0.00000   0.00000   0.00000 ...
   0.00000   0.00000  -0.16728   0.00000   0.00000   0.40093   0.00000   0.00000   0.00000   0.00000   0.00000   0.00000 ...
   0.00000   0.00000   0.00000  -0.16728   0.00000   0.00000   0.40093   0.00000   0.00000   0.00000   0.00000   0.00000 ...
   0.00000   0.00000   0.00000   0.00000  -0.16728   0.00000   0.00000   0.40093   0.00000   0.00000   0.00000   0.00000 ...
   0.00000   0.00000   0.00000  -0.00000   0.00000   0.00000   0.00000   0.00000   0.00540   0.00000   0.00000   0.00000 ...
   0.00000   0.00000   0.00000   0.00000  -0.00000   0.00000   0.00000   0.00000   0.00000   0.00540   0.00000   0.00000 ...
   0.00000   0.00000   0.00000   0.00000   0.00000   0.00000   0.00000   0.00000   0.00000   0.00000   0.00540   0.00000 ...
   0.00000   0.00000  -0.00000   0.00000   0.00000   0.00000   0.00000   0.00000   0.00000   0.00000   0.00000   0.00540 ...
   ...  only 12  components have been written...
 Atom #  9
  -3.50427   0.42318   0.00000   0.00000   0.00000   0.00000   0.00000   0.00000   0.00000   0.00000   0.00000   0.00000 ...
   0.42318   0.00381   0.00000   0.00000   0.00000   0.00000   0.00000   0.00000   0.00000   0.00000   0.00000   0.00000 ...
   0.00000   0.00000  -1.43265   0.00000   0.00000   0.11870   0.00000   0.00000   0.00000   0.00000   0.00000   0.00000 ...
   0.00000   0.00000   0.00000  -1.43265   0.00000   0.00000   0.11870   0.00000   0.00000   0.00000   0.00000   0.00000 ...
   0.00000   0.00000   0.00000   0.00000  -1.43265   0.00000   0.00000   0.11870   0.00000   0.00000   0.00000   0.00000 ...
   0.00000   0.00000   0.11870   0.00000   0.00000   0.01415   0.00000   0.00000   0.00000   0.00000   0.00000   0.00000 ...
   0.00000   0.00000   0.00000   0.11870   0.00000   0.00000   0.01415   0.00000   0.00000   0.00000   0.00000   0.00000 ...
   0.00000   0.00000   0.00000   0.00000   0.11870   0.00000   0.00000   0.01415   0.00000   0.00000   0.00000   0.00000 ...
   0.00000   0.00000   0.00000   0.00000   0.00000   0.00000   0.00000   0.00000  -0.38955   0.00000   0.00000   0.00000 ...
   0.00000   0.00000   0.00000   0.00000   0.00000   0.00000   0.00000   0.00000   0.00000  -0.38955   0.00000   0.00000 ...
   0.00000   0.00000   0.00000   0.00000   0.00000   0.00000   0.00000   0.00000   0.00000   0.00000  -0.38889   0.00000 ...
   0.00000   0.00000   0.00000   0.00000   0.00000   0.00000   0.00000   0.00000   0.00000   0.00000   0.00000  -0.38955 ...
   ...  only 12  components have been written...


 Augmentation waves occupancies Rhoij:
 Atom #  1
   1.99733  -0.01582   0.00000   0.00000   0.00000   0.00000   0.00000   0.00000   0.00000   0.00000   0.00000   0.00000 ...
  -0.01582   0.12306   0.00000   0.00000   0.00000   0.00000   0.00000   0.00000   0.00000   0.00000   0.00000   0.00000 ...
   0.00000   0.00000   2.00945   0.00000   0.00000  -0.00505   0.00000   0.00000   0.00000   0.00000   0.00000   0.00138 ...
   0.00000   0.00000   0.00000   2.00945   0.00000   0.00000  -0.00505   0.00000   0.00138   0.00000   0.00000   0.00000 ...
   0.00000   0.00000   0.00000   0.00000   2.00945   0.00000   0.00000  -0.00505   0.00000   0.00138   0.00000   0.00000 ...
   0.00000   0.00000  -0.00505   0.00000   0.00000   0.00009   0.00000   0.00000   0.00000   0.00000   0.00000  -0.00010 ...
   0.00000   0.00000   0.00000  -0.00505   0.00000   0.00000   0.00009   0.00000  -0.00010   0.00000   0.00000   0.00000 ...
   0.00000   0.00000   0.00000   0.00000  -0.00505   0.00000   0.00000   0.00009   0.00000  -0.00010   0.00000   0.00000 ...
   0.00000   0.00000   0.00000   0.00138   0.00000   0.00000  -0.00010   0.00000   0.03909   0.00000   0.00000   0.00000 ...
   0.00000   0.00000   0.00000   0.00000   0.00138   0.00000   0.00000  -0.00010   0.00000   0.03909   0.00000   0.00000 ...
   0.00000   0.00000   0.00000   0.00000   0.00000   0.00000   0.00000   0.00000   0.00000   0.00000   0.02468   0.00000 ...
   0.00000   0.00000   0.00138   0.00000   0.00000  -0.00010   0.00000   0.00000   0.00000   0.00000   0.00000   0.03909 ...
   ...  only 12  components have been written...
 Atom #  9
   1.99778  -0.02286   0.00000   0.00000   0.00000   0.00000   0.00000   0.00000   0.00000   0.00000   0.00000   0.00000 ...
  -0.02286   0.99988   0.00000   0.00000   0.00000   0.00000   0.00000   0.00000   0.00000   0.00000   0.00000   0.00000 ...
   0.00000   0.00000   1.99175   0.00000   0.00000  -0.07136   0.00000   0.00000   0.00000   0.00000   0.00000   0.00000 ...
   0.00000   0.00000   0.00000   1.99175   0.00000   0.00000  -0.07136   0.00000   0.00000   0.00000   0.00000   0.00000 ...
   0.00000   0.00000   0.00000   0.00000   1.99175   0.00000   0.00000  -0.07136   0.00000   0.00000   0.00000   0.00000 ...
   0.00000   0.00000  -0.07136   0.00000   0.00000   1.30153   0.00000   0.00000   0.00000   0.00000   0.00000   0.00000 ...
   0.00000   0.00000   0.00000  -0.07136   0.00000   0.00000   1.30153   0.00000   0.00000   0.00000   0.00000   0.00000 ...
   0.00000   0.00000   0.00000   0.00000  -0.07136   0.00000   0.00000   1.30153   0.00000   0.00000   0.00000   0.00000 ...
   0.00000   0.00000   0.00000   0.00000   0.00000   0.00000   0.00000   0.00000   0.48173   0.00000   0.00000   0.00000 ...
   0.00000   0.00000   0.00000   0.00000   0.00000   0.00000   0.00000   0.00000   0.00000   0.48173   0.00000   0.00000 ...
   0.00000   0.00000   0.00000   0.00000   0.00000   0.00000   0.00000   0.00000   0.00000   0.00000   1.47859   0.00000 ...
   0.00000   0.00000   0.00000   0.00000   0.00000   0.00000   0.00000   0.00000   0.00000   0.00000   0.00000   0.48173 ...
   ...  only 12  components have been written...


================================================================================

 ----iterations are completed or convergence reached----

 Mean square residual over all n,k,spin=   30.430E-07; max=  56.080E-05
 reduced coordinates (array xred) for    9 atoms
       0.250000000000      0.250000000000      0.250000000000
       0.750000000000      0.750000000000      0.750000000000
       0.763589072850      0.236410927150      0.763589072850
       0.236410927150      0.236410927150      0.763589072850
       0.763589072850      0.763589072850      0.236410927150
       0.236410927150      0.763589072850      0.236410927150
       0.236410927150      0.763589072850      0.763589072850
       0.763589072850      0.236410927150      0.236410927150
      -0.000000000000      0.000000000000     -0.000000000000
 rms dE/dt=  1.5857E-05; max dE/dt=  2.3785E-05; dE/dt below (all hartree)
    1       0.000000000000      0.000000000000      0.000000000000
    2       0.000000000000      0.000000000000      0.000000000000
    3       0.000023784965      0.000000000000      0.000023784965
    4      -0.000023784965     -0.000023784965      0.000000000000
    5       0.000023784965      0.000023784965      0.000000000000
    6      -0.000023784965      0.000000000000     -0.000023784965
    7      -0.000000000000      0.000023784965      0.000023784965
    8       0.000000000000     -0.000023784965     -0.000023784965
    9       0.000000000000      0.000000000000      0.000000000000

 cartesian coordinates (angstrom) at end:
    1      2.77736959107839     2.77736959107839     2.77736959107839
    2      8.33210877323518     8.33210877323518     8.33210877323518
    3      5.55473918215679     8.48307628405334     5.55473918215679
    4      5.55473918215679     5.55473918215679     2.62640208026024
    5      5.55473918215679     5.55473918215679     8.48307628405334
    6      5.55473918215679     2.62640208026024     5.55473918215679
    7      8.48307628405334     5.55473918215679     5.55473918215679
    8      2.62640208026024     5.55473918215679     5.55473918215679
    9      0.00000000000000    -0.00000000000000     0.00000000000000

 cartesian forces (hartree/bohr) at end:
    1     -0.00000000000000    -0.00000000000000     0.00000000000000
    2     -0.00000000000000    -0.00000000000000     0.00000000000000
    3     -0.00000000000000    -0.00000226589600     0.00000000000000
    4      0.00000000000000    -0.00000000000000     0.00000226589600
    5     -0.00000000000000     0.00000000000000    -0.00000226589600
    6      0.00000000000000     0.00000226589600    -0.00000000000000
    7     -0.00000226589600    -0.00000000000000     0.00000000000000
    8      0.00000226589600     0.00000000000000    -0.00000000000000
    9     -0.00000000000000    -0.00000000000000     0.00000000000000
 frms,max,avg= 1.0681536E-06 2.2658960E-06   0.000E+00  0.000E+00  0.000E+00 h/b

 cartesian forces (eV/Angstrom) at end:
    1     -0.00000000000000    -0.00000000000000     0.00000000000000
    2     -0.00000000000000    -0.00000000000000     0.00000000000000
    3     -0.00000000000000    -0.00011651704716     0.00000000000000
    4      0.00000000000000    -0.00000000000000     0.00011651704716
    5     -0.00000000000000     0.00000000000000    -0.00011651704716
    6      0.00000000000000     0.00011651704716    -0.00000000000000
    7     -0.00011651704716    -0.00000000000000     0.00000000000000
    8      0.00011651704716     0.00000000000000    -0.00000000000000
    9     -0.00000000000000    -0.00000000000000     0.00000000000000
 frms,max,avg= 5.4926663E-05 1.1651705E-04   0.000E+00  0.000E+00  0.000E+00 e/A
 length scales= 14.844908963000 14.844908963000 14.844908963000 bohr
              =  7.855587486813  7.855587486813  7.855587486813 angstroms
 prteigrs : about to open file Cs2TiI6o_DS1_EIG
 Fermi (or HOMO) energy (hartree) =  -0.07738   Average Vxc (hartree)=  -0.29223
 Eigenvalues (hartree) for nkpt=  72  k points:
 kpt#   1, nband= 42, wtk=  0.00058, kpt=  0.0000  0.0000  0.0000 (reduced coord)
  -2.34982   -1.19402   -1.19402   -1.19402   -0.79907   -0.79880   -0.57092   -0.55287
  -0.55287   -0.55287   -0.55261   -0.55261   -0.31791   -0.31791   -0.31791   -0.31488
  -0.31488   -0.31488   -0.20726   -0.15048   -0.15048   -0.15048   -0.14903   -0.14903
  -0.14903   -0.14890   -0.14890   -0.10273   -0.10273   -0.10273   -0.08596   -0.08596
  -0.08596   -0.07738   -0.07738   -0.07738    0.04498    0.04498    0.04498    0.09847
   0.13110    0.13110
 prteigrs : prtvol=0 or 1, do not print more k-points.


--- !EnergyTerms
iteration_state     : {dtset: 1, }
comment             : Components of total free energy in Hartree
kinetic             :  4.44545515277401E+01
hartree             :  3.98584053180815E+01
xc                  : -6.94242827265432E+01
Ewald energy        : -1.20371332913287E+02
psp_core            :  1.16941034983612E+01
local_psp           : -9.10433024235990E+01
spherical_terms     :  1.17232536661823E+01
total_energy        : -1.73108604053064E+02
total_energy_eV     : -4.71052467435668E+03
...


--- !EnergyTermsDC
iteration_state     : {dtset: 1, }
comment             : '"Double-counting" decomposition of free energy'
band_energy         : -3.00473094711775E+01
Ewald energy        : -1.20371332913287E+02
psp_core            :  1.16941034983612E+01
xc_dc               : -6.86082528422439E+01
spherical_terms     :  3.42242229280073E+01
total_energy_dc     : -1.73108568800340E+02
total_energy_dc_eV  : -4.71052371508127E+03
...


 Cartesian components of stress tensor (hartree/bohr^3)
  sigma(1 1)= -8.79992553E-06  sigma(3 2)=  0.00000000E+00
  sigma(2 2)= -8.79992553E-06  sigma(3 1)=  0.00000000E+00
  sigma(3 3)= -8.79992553E-06  sigma(2 1)=  0.00000000E+00

-Cartesian components of stress tensor (GPa)         [Pressure=  2.5890E-01 GPa]
- sigma(1 1)= -2.58902704E-01  sigma(3 2)=  0.00000000E+00
- sigma(2 2)= -2.58902704E-01  sigma(3 1)=  0.00000000E+00
- sigma(3 3)= -2.58902704E-01  sigma(2 1)=  0.00000000E+00

================================================================================
== DATASET  2 ==================================================================
-   mpi_nproc: 6, omp_nthreads: -1 (-1 if OMP is not activated)


--- !DatasetInfo
iteration_state: {dtset: 2, }
dimensions: {natom: 9, nkpt: 72, mband: 42, nsppol: 1, nspinor: 1, nspden: 1, mpw: 10465, }
cutoff_energies: {ecut:  16.0, pawecutdg:  40.0, }
electrons: {nelect:   7.20000000E+01, charge:   0.00000000E+00, occopt:   1.00000000E+00, tsmear:   1.00000000E-02, }
meta: {optdriver: 0, ionmov: 0, optcell: 0, iscf: 17, paral_kgb: 0, }
...

 Real(R)+Recip(G) space primitive vectors, cartesian coordinates (Bohr,Bohr^-1):
 R(1)=  0.0000000 10.3909061 10.3909061  G(1)= -0.0481190  0.0481190  0.0481190
 R(2)= 10.3909061  0.0000000 10.3909061  G(2)=  0.0481190 -0.0481190  0.0481190
 R(3)= 10.3909061 10.3909061  0.0000000  G(3)=  0.0481190  0.0481190 -0.0481190
 Unit cell volume ucvol=  2.2438316E+03 bohr^3
 Angles (23,13,12)=  6.00000000E+01  6.00000000E+01  6.00000000E+01 degrees

 Coarse grid specifications (used for wave-functions):

 getcut: wavevector=  0.0000  0.0000  0.0000  ngfft=  64  64  64
         ecut(hartree)=     21.160   => boxcut(ratio)=   2.10324

 Fine grid specifications (used for densities):

 getcut: wavevector=  0.0000  0.0000  0.0000  ngfft= 100 100 100
         ecut(hartree)=     52.900   => boxcut(ratio)=   2.07845

--- Pseudopotential description ------------------------------------------------
- pspini: atom type   1  psp file is ../../../Psps_for_tests/ATOMICDATA/Cs.GGA_PBE-JTH.xml
- pspatm: opening atomic psp file    ../../../Psps_for_tests/ATOMICDATA/Cs.GGA_PBE-JTH.xml
- pspatm : Reading pseudopotential header in XML form from ../../../Psps_for_tests/ATOMICDATA/Cs.GGA_PBE-JTH.xml
 Pseudopotential format is: paw10
 basis_size (lnmax)=  6 (lmn_size= 18), orbitals=   0   0   1   1   2   2
 Spheres core radius: rc_sph= 2.20660278
 1 radial meshes are used:
  - mesh 1: r(i)=AA*[exp(BB*(i-1))-1], size=1500 , AA= 0.15922E-03 BB= 0.87573E-02
 Shapefunction is SIN type: shapef(r)=[sin(pi*r/rshp)/(pi*r/rshp)]**2
 Radius for shape functions =  2.00394208
 mmax= 1500
 Radial grid used for partial waves is grid 1
 Radial grid used for projectors is grid 1
 Radial grid used for (t)core density is grid 1
 Radial grid used for Vloc is grid 1
 Radial grid used for pseudo valence density is grid 1
 Mesh size for Vloc has been set to 1341 to avoid numerical noise.
 Compensation charge density is not taken into account in XC energy/potential
 pspatm: atomic psp has been read  and splines computed

- pspini: atom type   2  psp file is ../../../Psps_for_tests/ATOMICDATA/Br.GGA_PBE-JTH.xml
- pspatm: opening atomic psp file    ../../../Psps_for_tests/ATOMICDATA/Br.GGA_PBE-JTH.xml
- pspatm : Reading pseudopotential header in XML form from ../../../Psps_for_tests/ATOMICDATA/Br.GGA_PBE-JTH.xml
 Pseudopotential format is: paw10
 basis_size (lnmax)=  4 (lmn_size=  8), orbitals=   0   0   1   1
 Spheres core radius: rc_sph= 2.20000000
 1 radial meshes are used:
  - mesh 1: r(i)=AA*[exp(BB*(i-1))-1], size= 927 , AA= 0.40483E-03 BB= 0.14169E-01
 Shapefunction is BESSEL type: shapef(r,l)=aa(1,l)*jl(q(1,l)*r)+aa(2,l)*jl(q(2,l)*r)
 Radius for shape functions =  2.02066386
 mmax=  927
 Radial grid used for partial waves is grid 1
 Radial grid used for projectors is grid 1
 Radial grid used for (t)core density is grid 1
 Radial grid used for Vloc is grid 1
 Radial grid used for pseudo valence density is grid 1
 Mesh size for Vloc has been set to  763 to avoid numerical noise.
 Compensation charge density is not taken into account in XC energy/potential
 pspatm: atomic psp has been read  and splines computed

- pspini: atom type   3  psp file is ../../../Psps_for_tests/ATOMICDATA/Hf.GGA_PBE-JTH.xml
- pspatm: opening atomic psp file    ../../../Psps_for_tests/ATOMICDATA/Hf.GGA_PBE-JTH.xml
- pspatm : Reading pseudopotential header in XML form from ../../../Psps_for_tests/ATOMICDATA/Hf.GGA_PBE-JTH.xml
 Pseudopotential format is: paw10
 basis_size (lnmax)=  6 (lmn_size= 18), orbitals=   0   0   1   1   2   2
 Spheres core radius: rc_sph= 2.41000000
 1 radial meshes are used:
  - mesh 1: r(i)=AA*[exp(BB*(i-1))-1], size= 972 , AA= 0.19796E-03 BB= 0.14253E-01
 Shapefunction is SIN type: shapef(r)=[sin(pi*r/rshp)/(pi*r/rshp)]**2
 Radius for shape functions =  2.41000000
 mmax=  972
 Radial grid used for partial waves is grid 1
 Radial grid used for projectors is grid 1
 Radial grid used for (t)core density is grid 1
 Radial grid used for Vloc is grid 1
 Radial grid used for pseudo valence density is grid 1
 Mesh size for Vloc has been set to  809 to avoid numerical noise.
 Compensation charge density is not taken into account in XC energy/potential
 pspatm: atomic psp has been read  and splines computed

--------------------------------------------------------------------------------

_setup2: Arith. and geom. avg. npw (full set) are   10432.520   10432.514

================================================================================

--- !BeginCycle
iteration_state: {dtset: 2, }
solver: {iscf: 17, nstep: 2500, nline: 4, wfoptalg: 10, }
tolerances: {toldfe: 1.00E-08, }
...

     iter   Etot(hartree)      deltaE(h)  residm     nres2
 ETOT  1  -171.77180898646    -1.718E+02 5.571E+00 9.695E+00
 ETOT  2  -173.11368218640    -1.342E+00 3.105E-02 2.799E+00
 ETOT  3  -173.10663874817     7.043E-03 1.868E-02 4.826E-01
 ETOT  4  -173.10737362354    -7.349E-04 5.031E-03 1.029E-01
 ETOT  5  -173.10744924793    -7.562E-05 5.194E-03 8.837E-03
 ETOT  6  -173.10751252857    -6.328E-05 2.830E-03 1.058E-03
 ETOT  7  -173.10752199648    -9.468E-06 4.566E-03 2.240E-04
 ETOT  8  -173.10752402422    -2.028E-06 1.367E-03 5.816E-06
 ETOT  9  -173.10752411199    -8.776E-08 8.967E-04 6.524E-07
 ETOT 10  -173.10752411932    -7.329E-09 1.264E-03 6.658E-08
 ETOT 11  -173.10752411873     5.833E-10 7.347E-04 5.487E-09

 At SCF step   11, etot is converged : 
  for the second time, diff in etot=  5.833E-10 < toldfe=  1.000E-08

 Cartesian components of stress tensor (hartree/bohr^3)
  sigma(1 1)= -1.96366491E-05  sigma(3 2)=  0.00000000E+00
  sigma(2 2)= -1.96366491E-05  sigma(3 1)=  0.00000000E+00
  sigma(3 3)= -1.96366491E-05  sigma(2 1)=  0.00000000E+00


--- !ResultsGS
iteration_state: {dtset: 2, }
comment   : Summary of ground state results
lattice_vectors:
- [  0.0000000,  10.3909061,  10.3909061, ]
- [ 10.3909061,   0.0000000,  10.3909061, ]
- [ 10.3909061,  10.3909061,   0.0000000, ]
lattice_lengths: [  14.69496,   14.69496,   14.69496, ]
lattice_angles: [ 60.000,  60.000,  60.000, ] # degrees, (23, 13, 12)
lattice_volume:   2.2438316E+03
convergence: {deltae:  5.833E-10, res2:  5.487E-09, residm:  7.347E-04, diffor: null, }
etotal    :  -1.73107524E+02
entropy   :   0.00000000E+00
fermie    :  -7.24159633E-02
cartesian_stress_tensor: # hartree/bohr^3
- [ -1.96366491E-05,   0.00000000E+00,   0.00000000E+00, ]
- [  0.00000000E+00,  -1.96366491E-05,   0.00000000E+00, ]
- [  0.00000000E+00,   0.00000000E+00,  -1.96366491E-05, ]
pressure_GPa:   5.7773E-01
xred      :
- [  2.5000E-01,   2.5000E-01,   2.5000E-01, Cs]
- [  7.5000E-01,   7.5000E-01,   7.5000E-01, Cs]
- [  7.6144E-01,   2.3856E-01,   7.6144E-01, Br]
- [  2.3856E-01,   2.3856E-01,   7.6144E-01, Br]
- [  7.6144E-01,   7.6144E-01,   2.3856E-01, Br]
- [  2.3856E-01,   7.6144E-01,   2.3856E-01, Br]
- [  2.3856E-01,   7.6144E-01,   7.6144E-01, Br]
- [  7.6144E-01,   2.3856E-01,   2.3856E-01, Br]
- [ -2.8220E-19,   5.7459E-19,  -2.7964E-20, Hf]
cartesian_forces: # hartree/bohr
- [ -1.61959240E-30,   2.10547012E-29,   1.72470369E-24, ]
- [  3.88702177E-29,  -3.23918481E-30,   1.72473447E-24, ]
- [ -1.55228143E-23,  -7.32209115E-07,   1.72475714E-23, ]
- [ -3.56703461E-23,   3.56703461E-23,   7.32209115E-07, ]
- [  3.56703461E-23,  -3.56703461E-23,  -7.32209115E-07, ]
- [  1.55228143E-23,   7.32209115E-07,  -1.37980571E-23, ]
- [ -7.32209115E-07,  -1.55228143E-23,   1.72475714E-23, ]
- [  7.32209115E-07,   1.55228143E-23,  -1.37980571E-23, ]
- [ -0.00000000E+00,  -0.00000000E+00,   1.72475714E-24, ]
force_length_stats: {min:   1.72470369E-24, max:   7.32209115E-07, mean:   4.88139410E-07, }
...

 Integrated electronic density in atomic spheres:
 ------------------------------------------------
 Atom  Sphere_radius  Integrated_density
    1        2.20660          5.37278527
    2        2.20660          5.37278527
    3        2.20000          4.93994062
    4        2.20000          4.93994062
    5        2.20000          4.93994062
    6        2.20000          4.93994062
    7        2.20000          4.93994062
    8        2.20000          4.93994062
    9        2.41000          9.28896435

 PAW TEST:
 ==== Compensation charge inside spheres ============
 The following values must be close to each other ...
 Compensation charge over spherical meshes =     -0.269552714090747
 Compensation charge over fine fft grid    =     -0.269541818108339

 ==== Results concerning PAW augmentation regions ====

 Total pseudopotential strength Dij (hartree):
 Atom #  1
   0.42846  -0.14195   0.00000   0.00000   0.00000   0.00000   0.00000   0.00000   0.00000   0.00000   0.00000   0.00000 ...
  -0.14195   0.04269   0.00000   0.00000   0.00000   0.00000   0.00000   0.00000   0.00000   0.00000   0.00000   0.00000 ...
   0.00000   0.00000  -0.09214   0.00000   0.00000  -0.16741   0.00000   0.00000   0.00000   0.00000   0.00000  -0.00000 ...
   0.00000   0.00000   0.00000  -0.09214   0.00000   0.00000  -0.16741   0.00000  -0.00000   0.00000   0.00000   0.00000 ...
   0.00000   0.00000   0.00000   0.00000  -0.09214   0.00000   0.00000  -0.16741   0.00000  -0.00000   0.00000   0.00000 ...
   0.00000   0.00000  -0.16741   0.00000   0.00000   0.40042   0.00000   0.00000   0.00000   0.00000   0.00000   0.00000 ...
   0.00000   0.00000   0.00000  -0.16741   0.00000   0.00000   0.40042   0.00000   0.00000   0.00000   0.00000   0.00000 ...
   0.00000   0.00000   0.00000   0.00000  -0.16741   0.00000   0.00000   0.40042   0.00000   0.00000   0.00000   0.00000 ...
   0.00000   0.00000   0.00000  -0.00000   0.00000   0.00000   0.00000   0.00000   0.00543   0.00000   0.00000   0.00000 ...
   0.00000   0.00000   0.00000   0.00000  -0.00000   0.00000   0.00000   0.00000   0.00000   0.00543   0.00000   0.00000 ...
   0.00000   0.00000   0.00000   0.00000   0.00000   0.00000   0.00000   0.00000   0.00000   0.00000   0.00543   0.00000 ...
   0.00000   0.00000  -0.00000   0.00000   0.00000   0.00000   0.00000   0.00000   0.00000   0.00000   0.00000   0.00543 ...
   ...  only 12  components have been written...
 Atom #  9
  -3.50236   0.42249   0.00000   0.00000   0.00000   0.00000   0.00000   0.00000   0.00000   0.00000   0.00000   0.00000 ...
   0.42249   0.00395   0.00000   0.00000   0.00000   0.00000   0.00000   0.00000   0.00000   0.00000   0.00000   0.00000 ...
   0.00000   0.00000  -1.42952   0.00000   0.00000   0.11807   0.00000   0.00000   0.00000   0.00000   0.00000   0.00000 ...
   0.00000   0.00000   0.00000  -1.42952   0.00000   0.00000   0.11807   0.00000   0.00000   0.00000   0.00000   0.00000 ...
   0.00000   0.00000   0.00000   0.00000  -1.42952   0.00000   0.00000   0.11807   0.00000   0.00000   0.00000   0.00000 ...
   0.00000   0.00000   0.11807   0.00000   0.00000   0.01426   0.00000   0.00000   0.00000   0.00000   0.00000   0.00000 ...
   0.00000   0.00000   0.00000   0.11807   0.00000   0.00000   0.01426   0.00000   0.00000   0.00000   0.00000   0.00000 ...
   0.00000   0.00000   0.00000   0.00000   0.11807   0.00000   0.00000   0.01426   0.00000   0.00000   0.00000   0.00000 ...
   0.00000   0.00000   0.00000   0.00000   0.00000   0.00000   0.00000   0.00000  -0.38895   0.00000   0.00000   0.00000 ...
   0.00000   0.00000   0.00000   0.00000   0.00000   0.00000   0.00000   0.00000   0.00000  -0.38895   0.00000   0.00000 ...
   0.00000   0.00000   0.00000   0.00000   0.00000   0.00000   0.00000   0.00000   0.00000   0.00000  -0.38829   0.00000 ...
[...]
                       7.6290647870E+00  5.1058713695E+00  5.1058713695E+00
                       2.5826779520E+00  5.1058713695E+00  5.1058713695E+00
                       1.1254356507E-18 -1.8686276122E-19  1.3365929032E-18
           xangst10    2.5248814463E+00  2.5248814463E+00  2.5248814463E+00
                       7.5746443390E+00  7.5746443390E+00  7.5746443390E+00
                       5.0497628927E+00  7.5267601658E+00  5.0497628927E+00
                       5.0497628927E+00  5.0497628927E+00  2.5727656196E+00
                       5.0497628927E+00  5.0497628927E+00  7.5267601658E+00
                       5.0497628927E+00  2.5727656196E+00  5.0497628927E+00
                       7.5267601658E+00  5.0497628927E+00  5.0497628927E+00
                       2.5727656196E+00  5.0497628927E+00  5.0497628927E+00
                       1.4446621889E-18 -5.5190565707E-19  1.6268654891E-18
            xcart1     5.2484678969E+00  5.2484678969E+00  5.2484678969E+00
                       1.5745403691E+01  1.5745403691E+01  1.5745403691E+01
                       1.0496935794E+01  1.6030690941E+01  1.0496935794E+01
                       1.0496935794E+01  1.0496935794E+01  4.9631806465E+00
                       1.0496935794E+01  1.0496935794E+01  1.6030690941E+01
                       1.0496935794E+01  4.9631806465E+00  1.0496935794E+01
                       1.6030690941E+01  1.0496935794E+01  1.0496935794E+01
                       4.9631806465E+00  1.0496935794E+01  1.0496935794E+01
                       2.6429930202E-18 -7.7938081864E-19  3.3282631977E-18
            xcart2     5.1954530695E+00  5.1954530695E+00  5.1954530695E+00
                       1.5586359208E+01  1.5586359208E+01  1.5586359208E+01
                       1.0390906139E+01  1.5824117498E+01  1.0390906139E+01
                       1.0390906139E+01  1.0390906139E+01  4.9576947803E+00
                       1.0390906139E+01  1.0390906139E+01  1.5824117498E+01
                       1.0390906139E+01  4.9576947803E+00  1.0390906139E+01
                       1.5824117498E+01  1.0390906139E+01  1.0390906139E+01
                       4.9576947803E+00  1.0390906139E+01  1.0390906139E+01
                       5.6799816043E-18 -3.2228533649E-18  3.0382666297E-18
            xcart3     5.1424382424E+00  5.1424382424E+00  5.1424382424E+00
                       1.5427314727E+01  1.5427314727E+01  1.5427314727E+01
                       1.0284876485E+01  1.5618835070E+01  1.0284876485E+01
                       1.0284876485E+01  1.0284876485E+01  4.9509178994E+00
                       1.0284876485E+01  1.0284876485E+01  1.5618835070E+01
                       1.0284876485E+01  4.9509178994E+00  1.0284876485E+01
                       1.5618835070E+01  1.0284876485E+01  1.0284876485E+01
                       4.9509178994E+00  1.0284876485E+01  1.0284876485E+01
                       6.4607850786E-18 -6.0767880254E-18  3.1043089213E-18
            xcart4     5.0894234149E+00  5.0894234149E+00  5.0894234149E+00
                       1.5268270245E+01  1.5268270245E+01  1.5268270245E+01
                       1.0178846830E+01  1.5414153887E+01  1.0178846830E+01
                       1.0178846830E+01  1.0178846830E+01  4.9435397724E+00
                       1.0178846830E+01  1.0178846830E+01  1.5414153887E+01
                       1.0178846830E+01  4.9435397724E+00  1.0178846830E+01
                       1.5414153887E+01  1.0178846830E+01  1.0178846830E+01
                       4.9435397724E+00  1.0178846830E+01  1.0178846830E+01
                       2.8905823540E-18 -1.0834432496E-18  3.2662041262E-18
            xcart5     5.0364085878E+00  5.0364085878E+00  5.0364085878E+00
                       1.5109225763E+01  1.5109225763E+01  1.5109225763E+01
                       1.0072817176E+01  1.5211231528E+01  1.0072817176E+01
                       1.0072817176E+01  1.0072817176E+01  4.9344028232E+00
                       1.0072817176E+01  1.0072817176E+01  1.5211231528E+01
                       1.0072817176E+01  4.9344028232E+00  1.0072817176E+01
                       1.5211231528E+01  1.0072817176E+01  1.0072817176E+01
                       4.9344028232E+00  1.0072817176E+01  1.0072817176E+01
                       2.5678649477E-18  2.3138393748E-18  3.2253476491E-18
            xcart6     4.9833937607E+00  4.9833937607E+00  4.9833937607E+00
                       1.4950181282E+01  1.4950181282E+01  1.4950181282E+01
                       9.9667875214E+00  1.5009846697E+01  9.9667875214E+00
                       9.9667875214E+00  9.9667875214E+00  4.9237283457E+00
                       9.9667875214E+00  9.9667875214E+00  1.5009846697E+01
                       9.9667875214E+00  4.9237283457E+00  9.9667875214E+00
                       1.5009846697E+01  9.9667875214E+00  9.9667875214E+00
                       4.9237283457E+00  9.9667875214E+00  9.9667875214E+00
                       2.8536557364E-18 -1.1828230010E-18  3.1962528134E-18
            xcart7     4.9303789332E+00  4.9303789332E+00  4.9303789332E+00
                       1.4791136800E+01  1.4791136800E+01  1.4791136800E+01
                       9.8607578665E+00  1.4810296283E+01  9.8607578665E+00
                       9.8607578665E+00  9.8607578665E+00  4.9112194503E+00
                       9.8607578665E+00  9.8607578665E+00  1.4810296283E+01
                       9.8607578665E+00  4.9112194503E+00  9.8607578665E+00
                       1.4810296283E+01  9.8607578665E+00  9.8607578665E+00
                       4.9112194503E+00  9.8607578665E+00  9.8607578665E+00
                       3.2310123584E-18 -1.6217544541E-18  3.8600340609E-18
            xcart8     4.8773641061E+00  4.8773641061E+00  4.8773641061E+00
                       1.4632092318E+01  1.4632092318E+01  1.4632092318E+01
                       9.7547282123E+00  1.4612446257E+01  9.7547282123E+00
                       9.7547282123E+00  9.7547282123E+00  4.8970101672E+00
                       9.7547282123E+00  9.7547282123E+00  1.4612446257E+01
                       9.7547282123E+00  4.8970101672E+00  9.7547282123E+00
                       1.4612446257E+01  9.7547282123E+00  9.7547282123E+00
                       4.8970101672E+00  9.7547282123E+00  9.7547282123E+00
                       1.6085918381E-18 -1.1031346336E-18  3.5590646884E-18
            xcart9     4.8243492790E+00  4.8243492790E+00  4.8243492790E+00
                       1.4473047837E+01  1.4473047837E+01  1.4473047837E+01
                       9.6486985581E+00  1.4416843097E+01  9.6486985581E+00
                       9.6486985581E+00  9.6486985581E+00  4.8805540188E+00
                       9.6486985581E+00  9.6486985581E+00  1.4416843097E+01
                       9.6486985581E+00  4.8805540188E+00  9.6486985581E+00
                       1.4416843097E+01  9.6486985581E+00  9.6486985581E+00
                       4.8805540188E+00  9.6486985581E+00  9.6486985581E+00
                       2.1267651600E-18 -3.5311944314E-19  2.5257945382E-18
            xcart10    4.7713344516E+00  4.7713344516E+00  4.7713344516E+00
                       1.4314003355E+01  1.4314003355E+01  1.4314003355E+01
                       9.5426689031E+00  1.4223515381E+01  9.5426689031E+00
                       9.5426689031E+00  9.5426689031E+00  4.8618224251E+00
                       9.5426689031E+00  9.5426689031E+00  1.4223515381E+01
                       9.5426689031E+00  4.8618224251E+00  9.5426689031E+00
                       1.4223515381E+01  9.5426689031E+00  9.5426689031E+00
                       4.8618224251E+00  9.5426689031E+00  9.5426689031E+00
                       2.7300158916E-18 -1.0429505431E-18  3.0743302295E-18
             xred1     2.5000000000E-01  2.5000000000E-01  2.5000000000E-01
                       7.5000000000E-01  7.5000000000E-01  7.5000000000E-01
                       7.6358907285E-01  2.3641092715E-01  7.6358907285E-01
                       2.3641092715E-01  2.3641092715E-01  7.6358907285E-01
                       7.6358907285E-01  7.6358907285E-01  2.3641092715E-01
                       2.3641092715E-01  7.6358907285E-01  2.3641092715E-01
                       2.3641092715E-01  7.6358907285E-01  7.6358907285E-01
                       7.6358907285E-01  2.3641092715E-01  2.3641092715E-01
                      -4.4827673062E-21  3.2155274497E-19 -6.9765645178E-20
             xred2     2.5000000000E-01  2.5000000000E-01  2.5000000000E-01
                       7.5000000000E-01  7.5000000000E-01  7.5000000000E-01
                       7.6144069083E-01  2.3855930917E-01  7.6144069083E-01
                       2.3855930917E-01  2.3855930917E-01  7.6144069083E-01
                       7.6144069083E-01  7.6144069083E-01  2.3855930917E-01
                       2.3855930917E-01  7.6144069083E-01  2.3855930917E-01
                       2.3855930917E-01  7.6144069083E-01  7.6144069083E-01
                       7.6144069083E-01  2.3855930917E-01  2.3855930917E-01
                      -2.8219715687E-19  5.7459385347E-19 -2.7963797506E-20
             xred3     2.5000000000E-01  2.5000000000E-01  2.5000000000E-01
                       7.5000000000E-01  7.5000000000E-01  7.5000000000E-01
                       7.5931077506E-01  2.4068922494E-01  7.5931077506E-01
                       2.4068922494E-01  2.4068922494E-01  7.5931077506E-01
                       7.5931077506E-01  7.5931077506E-01  2.4068922494E-01
                       2.4068922494E-01  7.5931077506E-01  2.4068922494E-01
                       2.4068922494E-01  7.5931077506E-01  7.5931077506E-01
                       7.5931077506E-01  2.4068922494E-01  2.4068922494E-01
                      -4.5859880751E-19  7.6043120442E-19 -1.3224815447E-19
             xred4     2.5000000000E-01  2.5000000000E-01  2.5000000000E-01
                       7.5000000000E-01  7.5000000000E-01  7.5000000000E-01
                       7.5716602013E-01  2.4283397987E-01  7.5716602013E-01
                       2.4283397987E-01  2.4283397987E-01  7.5716602013E-01
                       7.5716602013E-01  7.5716602013E-01  2.4283397987E-01
                       2.4283397987E-01  7.5716602013E-01  2.4283397987E-01
                       2.4283397987E-01  7.5716602013E-01  7.5716602013E-01
                       7.5716602013E-01  2.4283397987E-01  2.4283397987E-01
                      -3.4769237090E-20  3.5565078495E-19 -7.1671430278E-20
             xred5     2.5000000000E-01  2.5000000000E-01  2.5000000000E-01
                       7.5000000000E-01  7.5000000000E-01  7.5000000000E-01
                       7.5506341785E-01  2.4493658215E-01  7.5506341785E-01
                       2.4493658215E-01  2.4493658215E-01  7.5506341785E-01
                       7.5506341785E-01  7.5506341785E-01  2.4493658215E-01
                       2.4493658215E-01  7.5506341785E-01  2.4493658215E-01
                       2.4493658215E-01  7.5506341785E-01  7.5506341785E-01
                       7.5506341785E-01  2.4493658215E-01  2.4493658215E-01
                       1.4749210794E-19  1.7271102817E-19  8.2219137136E-20
             xred6     2.5000000000E-01  2.5000000000E-01  2.5000000000E-01
                       7.5000000000E-01  7.5000000000E-01  7.5000000000E-01
                       7.5299321195E-01  2.4700678805E-01  7.5299321195E-01
                       2.4700678805E-01  2.4700678805E-01  7.5299321195E-01
                       7.5299321195E-01  7.5299321195E-01  2.4700678805E-01
                       2.4700678805E-01  7.5299321195E-01  2.4700678805E-01
                       2.4700678805E-01  7.5299321195E-01  7.5299321195E-01
                       7.5299321195E-01  2.4700678805E-01  2.4700678805E-01
                      -4.2151291083E-20  3.6284166464E-19 -7.6525162933E-20
             xred7     2.5000000000E-01  2.5000000000E-01  2.5000000000E-01
                       7.5000000000E-01  7.5000000000E-01  7.5000000000E-01
                       7.5097150154E-01  2.4902849846E-01  7.5097150154E-01
                       2.4902849846E-01  2.4902849846E-01  7.5097150154E-01
                       7.5097150154E-01  7.5097150154E-01  2.4902849846E-01
                       2.4902849846E-01  7.5097150154E-01  2.4902849846E-01
                       2.4902849846E-01  7.5097150154E-01  7.5097150154E-01
                       7.5097150154E-01  2.4902849846E-01  2.4902849846E-01
                      -5.0337548342E-20  4.4179164479E-19 -1.1412794975E-19
             xred8     2.5000000000E-01  2.5000000000E-01  2.5000000000E-01
                       7.5000000000E-01  7.5000000000E-01  7.5000000000E-01
                       7.4899299803E-01  2.5100700197E-01  7.4899299803E-01
                       2.5100700197E-01  2.5100700197E-01  7.4899299803E-01
                       7.4899299803E-01  7.4899299803E-01  2.5100700197E-01
                       2.5100700197E-01  7.4899299803E-01  2.5100700197E-01
                       2.5100700197E-01  7.4899299803E-01  7.4899299803E-01
                       7.4899299803E-01  2.5100700197E-01  2.5100700197E-01
                       4.3432179672E-20  3.2142316134E-19 -1.5651935233E-19
             xred9     2.5000000000E-01  2.5000000000E-01  2.5000000000E-01
                       7.5000000000E-01  7.5000000000E-01  7.5000000000E-01
                       7.4708744452E-01  2.5291255548E-01  7.4708744452E-01
                       2.5291255548E-01  2.5291255548E-01  7.4708744452E-01
                       7.4708744452E-01  7.4708744452E-01  2.5291255548E-01
                       2.5291255548E-01  7.4708744452E-01  2.5291255548E-01
                       2.5291255548E-01  7.4708744452E-01  7.4708744452E-01
                       7.4708744452E-01  2.5291255548E-01  2.5291255548E-01
                       2.3790739629E-21  2.5939659692E-19 -3.8976698090E-20
             xred10    2.5000000000E-01  2.5000000000E-01  2.5000000000E-01
                       7.5000000000E-01  7.5000000000E-01  7.5000000000E-01
                       7.4525877014E-01  2.5474122986E-01  7.4525877014E-01
                       2.5474122986E-01  2.5474122986E-01  7.4525877014E-01
                       7.4525877014E-01  7.4525877014E-01  2.5474122986E-01
                       2.5474122986E-01  7.4525877014E-01  2.5474122986E-01
                       2.5474122986E-01  7.4525877014E-01  7.4525877014E-01
                       7.4525877014E-01  2.5474122986E-01  2.5474122986E-01
                      -3.6605912468E-20  3.5877262083E-19 -7.2687467994E-20
            znucl       55.00000   35.00000   72.00000

================================================================================


- Timing analysis has been suppressed with timopt=0



================================================================================

 Suggested references for the acknowledgment of ABINIT usage.

 The users of ABINIT have little formal obligations with respect to the ABINIT group
 (those specified in the GNU General Public License, http://www.gnu.org/copyleft/gpl.txt).
 However, it is common practice in the scientific literature,
 to acknowledge the efforts of people that have made the research possible.
 In this spirit, please find below suggested citations of work written by ABINIT developers,
 corresponding to implementations inside of ABINIT that you have used in the present run.
 Note also that it will be of great value to readers of publications presenting these results,
 to read papers enabling them to understand the theoretical formalism and details
 of the ABINIT implementation.
 For information on why they are suggested, see also https://docs.abinit.org/theory/acknowledgments.
-
- [1] Implementation of the Projector Augmented-Wave Method in the ABINIT code.
- M. Torrent, F. Jollet, F. Bottin, G. Zerah, and X. Gonze Comput. Mat. Science 42, 337, (2008).
- Comment: PAW calculations. Strong suggestion to cite this paper.
- DOI and bibtex: see https://docs.abinit.org/theory/bibliography/#torrent2008
-
- [2] Libxc: A library of exchange and correlation functionals for density functional theory.
- M.A.L. Marques, M.J.T. Oliveira, T. Burnus, Computer Physics Communications 183, 2227 (2012).
- Comment: to be cited when LibXC is used (negative value of ixc)
- Strong suggestion to cite this paper.
- DOI and bibtex: see https://docs.abinit.org/theory/bibliography/#marques2012
-
- [3] The Abinit project: Impact, environment and recent developments.
- Computer Phys. Comm. 248, 107042 (2020).
- X.Gonze, B. Amadon, G. Antonius, F.Arnardi, L.Baguet, J.-M.Beuken,
- J.Bieder, F.Bottin, J.Bouchet, E.Bousquet, N.Brouwer, F.Bruneval,
- G.Brunin, T.Cavignac, J.-B. Charraud, Wei Chen, M.Cote, S.Cottenier,
- J.Denier, G.Geneste, Ph.Ghosez, M.Giantomassi, Y.Gillet, O.Gingras,
- D.R.Hamann, G.Hautier, Xu He, N.Helbig, N.Holzwarth, Y.Jia, F.Jollet,
- W.Lafargue-Dit-Hauret, K.Lejaeghere, M.A.L.Marques, A.Martin, C.Martins,
- H.P.C. Miranda, F.Naccarato, K. Persson, G.Petretto, V.Planes, Y.Pouillon,
- S.Prokhorenko, F.Ricci, G.-M.Rignanese, A.H.Romero, M.M.Schmitt, M.Torrent,
- M.J.van Setten, B.Van Troeye, M.J.Verstraete, G.Zerah and J.W.Zwanzig
- Comment: the fifth generic paper describing the ABINIT project.
- Note that a version of this paper, that is not formatted for Computer Phys. Comm. 
- is available at https://www.abinit.org/sites/default/files/ABINIT20.pdf .
- The licence allows the authors to put it on the Web.
- DOI and bibtex: see https://docs.abinit.org/theory/bibliography/#gonze2020
-
- [4] ABINIT: Overview, and focus on selected capabilities
- J. Chem. Phys. 152, 124102 (2020).
- A. Romero, D.C. Allan, B. Amadon, G. Antonius, T. Applencourt, L.Baguet,
- J.Bieder, F.Bottin, J.Bouchet, E.Bousquet, F.Bruneval,
- G.Brunin, D.Caliste, M.Cote,
- J.Denier, C. Dreyer, Ph.Ghosez, M.Giantomassi, Y.Gillet, O.Gingras,
- D.R.Hamann, G.Hautier, F.Jollet, G. Jomard,
- A.Martin, 
- H.P.C. Miranda, F.Naccarato, G.Petretto, N.A. Pike, V.Planes,
- S.Prokhorenko, T. Rangel, F.Ricci, G.-M.Rignanese, M.Royo, M.Stengel, M.Torrent,
- M.J.van Setten, B.Van Troeye, M.J.Verstraete, J.Wiktor, J.W.Zwanziger, and X.Gonze.
- Comment: a global overview of ABINIT, with focus on selected capabilities .
- Note that a version of this paper, that is not formatted for J. Chem. Phys 
- is available at https://www.abinit.org/sites/default/files/ABINIT20_JPC.pdf .
- The licence allows the authors to put it on the Web.
- DOI and bibtex: see https://docs.abinit.org/theory/bibliography/#romero2020
-
- [5] Recent developments in the ABINIT software package.
- Computer Phys. Comm. 205, 106 (2016).
- X.Gonze, F.Jollet, F.Abreu Araujo, D.Adams, B.Amadon, T.Applencourt,
- C.Audouze, J.-M.Beuken, J.Bieder, A.Bokhanchuk, E.Bousquet, F.Bruneval
- D.Caliste, M.Cote, F.Dahm, F.Da Pieve, M.Delaveau, M.Di Gennaro,
- B.Dorado, C.Espejo, G.Geneste, L.Genovese, A.Gerossier, M.Giantomassi,
- Y.Gillet, D.R.Hamann, L.He, G.Jomard, J.Laflamme Janssen, S.Le Roux,
- A.Levitt, A.Lherbier, F.Liu, I.Lukacevic, A.Martin, C.Martins,
- M.J.T.Oliveira, S.Ponce, Y.Pouillon, T.Rangel, G.-M.Rignanese,
- A.H.Romero, B.Rousseau, O.Rubel, A.A.Shukri, M.Stankovski, M.Torrent,
- M.J.Van Setten, B.Van Troeye, M.J.Verstraete, D.Waroquier, J.Wiktor,
- B.Xu, A.Zhou, J.W.Zwanziger.
- Comment: the fourth generic paper describing the ABINIT project.
- Note that a version of this paper, that is not formatted for Computer Phys. Comm. 
- is available at https://www.abinit.org/sites/default/files/ABINIT16.pdf .
- The licence allows the authors to put it on the Web.
- DOI and bibtex: see https://docs.abinit.org/theory/bibliography/#gonze2016
-
- Proc.   0 individual time (sec): cpu=       3936.5  wall=       3936.6

================================================================================

 Calculation completed.
.Delivered   0 WARNINGs and  10 COMMENTs to log file.
+Overall time at end (sec) : cpu=      23619.3  wall=      23619.7
