
.Version 9.2.2 of ABINIT 
.(MPI version, prepared for a x86_64_linux_gnu9.3 computer) 

.Copyright (C) 1998-2020 ABINIT group . 
 ABINIT comes with ABSOLUTELY NO WARRANTY.
 It is free software, and you are welcome to redistribute it
 under certain conditions (GNU General Public License,
 see ~abinit/COPYING or http://www.gnu.org/copyleft/gpl.txt).

 ABINIT is a project of the Universite Catholique de Louvain,
 Corning Inc. and other collaborators, see ~abinit/doc/developers/contributors.txt .
 Please read https://docs.abinit.org/theory/acknowledgments for suggested
 acknowledgments of the ABINIT effort.
 For more information, see https://www.abinit.org .

.Starting date : Sat 15 Oct 2022.
- ( at 23h47 )
  
- input  file    -> Cs2TiI6.in
- output file    -> Cs2TiI6.out
- root for input  files -> Cs2TiI6i
- root for output files -> Cs2TiI6o

- inpspheads : Reading pseudopotential header in XML form from 
-   ../../../Psps_for_tests/ATOMICDATA/Cs.GGA_PBE-JTH.xml
- inpspheads : Reading pseudopotential header in XML form from 
-   ../../../Psps_for_tests/ATOMICDATA/I.GGA_PBE-JTH.xml
- inpspheads : Reading pseudopotential header in XML form from 
-   ../../../Psps_for_tests/ATOMICDATA/Hf.GGA_PBE-JTH.xml
- inpspheads : Reading pseudopotential header in XML form from 
-   ../../../Psps_for_tests/ATOMICDATA/Br.GGA_PBE-JTH.xml

 Symmetries : space group I4 m m (#107); Bravais tI (body-center tetrag.)
================================================================================
 Values of the parameters that define the memory need of the present run
     intxc =       0    ionmov =       0      iscf =      17    lmnmax =      18
     lnmax =       6     mgfft =      54  mpssoang =       3    mqgrid =    3368
     natom =       9  nloc_mem =       2    nspden =       1   nspinor =       1
    nsppol =       1      nsym =       8    n1xccc =       1    ntypat =       4
    occopt =       1   xclevel =       2
-    mband =          42        mffmem =           1         mkmem =          28
       mpw =        6606          nfft =      157464          nkpt =         163
Pmy_natom=         2
 PAW method is used; the additional fine FFT grid is defined by:
   mgfftf=        90    nfftf =    729000
================================================================================
P This job should need less than                     336.061 Mbytes of memory.
  Rough estimation (10% accuracy) of disk space for files :
_ WF disk file :    690.076 Mbytes ; DEN or POT disk file :      5.564 Mbytes.
================================================================================

--------------------------------------------------------------------------------
------------- Echo of variables that govern the present computation ------------
--------------------------------------------------------------------------------
-
- outvars: echo of selected default values                                      
-   iomode0 =  0 , fftalg0 =112 , wfoptalg0 = 10
-
- outvars: echo of global parameters not present in the input file              
-  max_nthreads =    0
-
 -outvars: echo values of preprocessed input variables --------
            acell      1.4433984642E+01  1.4601037711E+01  1.4433984642E+01 Bohr
              amu      1.32905430E+02  1.26904470E+02  1.78490000E+02
                       7.99040000E+01
           diemac      1.20000000E+01
             ecut      1.60000000E+01 Hartree
-          fftalg         112
           istwfk        2    0    0    0    0    0    3    0    0    0
                         0    0    0    0    0    0    0    0    0    0
                         0    0    0    0    0    0    0    0    0    0
                         0    0    0    0    0    0    0    0    0    0
                         0    0    7    0    0    0    0    0    0    0
                       outvar_i_n : Printing only first  50 k-points.
              ixc     -101130
              kpt      0.00000000E+00  0.00000000E+00  0.00000000E+00
                       8.33333333E-02  0.00000000E+00  0.00000000E+00
                       1.66666667E-01  0.00000000E+00  0.00000000E+00
                       2.50000000E-01  0.00000000E+00  0.00000000E+00
                       3.33333333E-01  0.00000000E+00  0.00000000E+00
                       4.16666667E-01  0.00000000E+00  0.00000000E+00
                       5.00000000E-01  0.00000000E+00  0.00000000E+00
                       8.33333333E-02  8.33333333E-02  0.00000000E+00
                       1.66666667E-01  8.33333333E-02  0.00000000E+00
                       2.50000000E-01  8.33333333E-02  0.00000000E+00
                       3.33333333E-01  8.33333333E-02  0.00000000E+00
                       4.16666667E-01  8.33333333E-02  0.00000000E+00
                       5.00000000E-01  8.33333333E-02  0.00000000E+00
                      -4.16666667E-01  8.33333333E-02  0.00000000E+00
                      -3.33333333E-01  8.33333333E-02  0.00000000E+00
                      -2.50000000E-01  8.33333333E-02  0.00000000E+00
                      -1.66666667E-01  8.33333333E-02  0.00000000E+00
                      -8.33333333E-02  8.33333333E-02  0.00000000E+00
                       1.66666667E-01  1.66666667E-01  0.00000000E+00
                       2.50000000E-01  1.66666667E-01  0.00000000E+00
                       3.33333333E-01  1.66666667E-01  0.00000000E+00
                       4.16666667E-01  1.66666667E-01  0.00000000E+00
                       5.00000000E-01  1.66666667E-01  0.00000000E+00
                      -4.16666667E-01  1.66666667E-01  0.00000000E+00
                      -3.33333333E-01  1.66666667E-01  0.00000000E+00
                      -2.50000000E-01  1.66666667E-01  0.00000000E+00
                      -1.66666667E-01  1.66666667E-01  0.00000000E+00
                       2.50000000E-01  2.50000000E-01  0.00000000E+00
                       3.33333333E-01  2.50000000E-01  0.00000000E+00
                       4.16666667E-01  2.50000000E-01  0.00000000E+00
                       5.00000000E-01  2.50000000E-01  0.00000000E+00
                      -4.16666667E-01  2.50000000E-01  0.00000000E+00
                      -3.33333333E-01  2.50000000E-01  0.00000000E+00
                      -2.50000000E-01  2.50000000E-01  0.00000000E+00
                       3.33333333E-01  3.33333333E-01  0.00000000E+00
                       4.16666667E-01  3.33333333E-01  0.00000000E+00
                       5.00000000E-01  3.33333333E-01  0.00000000E+00
                      -4.16666667E-01  3.33333333E-01  0.00000000E+00
                      -3.33333333E-01  3.33333333E-01  0.00000000E+00
                       4.16666667E-01  4.16666667E-01  0.00000000E+00
                       5.00000000E-01  4.16666667E-01  0.00000000E+00
                      -4.16666667E-01  4.16666667E-01  0.00000000E+00
                       5.00000000E-01  5.00000000E-01  0.00000000E+00
                       8.33333333E-02  0.00000000E+00  8.33333333E-02
                       1.66666667E-01  0.00000000E+00  8.33333333E-02
                       2.50000000E-01  0.00000000E+00  8.33333333E-02
                       3.33333333E-01  0.00000000E+00  8.33333333E-02
                       4.16666667E-01  0.00000000E+00  8.33333333E-02
                       5.00000000E-01  0.00000000E+00  8.33333333E-02
                      -4.16666667E-01  0.00000000E+00  8.33333333E-02
                       outvar_i_n : Printing only first  50 k-points.
         kptrlatt       12    0    0      0   12    0      0    0   12
          kptrlen      1.73207816E+02
P           mkmem          28
            natom           9
            nband          42
            ngfft          54      54      54
          ngfftdg          90      90      90
             nkpt         163
            nstep        2500
             nsym           8
           ntypat           4
              occ      2.000000  2.000000  2.000000  2.000000  2.000000  2.000000
                       2.000000  2.000000  2.000000  2.000000  2.000000  2.000000
                       2.000000  2.000000  2.000000  2.000000  2.000000  2.000000
                       2.000000  2.000000  2.000000  2.000000  2.000000  2.000000
                       2.000000  2.000000  2.000000  2.000000  2.000000  2.000000
                       2.000000  2.000000  2.000000  2.000000  2.000000  2.000000
                       0.000000  0.000000  0.000000  0.000000  0.000000  0.000000
        pawecutdg      4.00000000E+01 Hartree
            prtwf           0
            rprim      0.0000000000E+00  6.9882718365E-01  7.1529054753E-01
                       7.0710678119E-01  0.0000000000E+00  7.0710678119E-01
                       7.1529054753E-01  6.9882718365E-01  0.0000000000E+00
          spgroup         107
           symrel      1  0  0   0  1  0   0  0  1       0  0  1   0  1  0   1  0  0
                       0 -1  1   0 -1  0   1 -1  0       1 -1  0   0 -1  0   0 -1  1
                       0 -1  1  -1  0  1   0  0  1       0  0  1  -1  0  1   0 -1  1
                       1  0  0   1  0 -1   1 -1  0       1 -1  0   1  0 -1   1  0  0
           toldfe      1.00000000E-08 Hartree
            typat      1  1  4  2  2  2  2  2  3
           useylm           1
              wtk        0.00058    0.00463    0.00463    0.00463    0.00463    0.00463
                         0.00231    0.00231    0.00926    0.00926    0.00926    0.00926
                         0.00926    0.00926    0.00926    0.00926    0.00926    0.00463
                         0.00231    0.00926    0.00926    0.00926    0.00926    0.00926
                         0.00926    0.00926    0.00463    0.00231    0.00926    0.00926
                         0.00926    0.00926    0.00926    0.00463    0.00231    0.00926
                         0.00926    0.00926    0.00463    0.00231    0.00926    0.00463
                         0.00116    0.00116    0.00463    0.00463    0.00463    0.00463
                         0.00463    0.00463
                       outvars : Printing only first  50 k-points.
           xangst      2.7317431341E+00  2.6643138606E+00  2.7317431341E+00
                       8.1952294023E+00  8.0020507213E+00  8.1952294023E+00
                       5.4634862682E+00  8.0270062163E+00  5.4634862682E+00
                       5.4634862682E+00  5.3424369740E+00  2.7989697199E+00
                       5.4634862683E+00  5.3424369740E+00  8.1280028165E+00
                       5.4634862683E+00  2.7189451949E+00  5.4634862683E+00
                       8.1280028165E+00  5.3424369740E+00  5.4634862683E+00
                       2.7989697199E+00  5.3424369740E+00  5.4634862682E+00
                       9.6613761924E-13 -8.0134841429E-02  9.6613761924E-13
            xcart      5.1622463889E+00  5.0348235285E+00  5.1622463889E+00
                       1.5486739167E+01  1.5121684365E+01  1.5486739167E+01
                       1.0324492778E+01  1.5168843416E+01  1.0324492778E+01
                       1.0324492778E+01  1.0095742763E+01  5.2892862249E+00
                       1.0324492778E+01  1.0095742763E+01  1.5359699331E+01
                       1.0324492778E+01  5.1380617886E+00  1.0324492778E+01
                       1.5359699331E+01  1.0095742763E+01  1.0324492778E+01
                       5.2892862249E+00  1.0095742763E+01  1.0324492778E+01
                       1.8257355070E-12 -1.5143290400E-01  1.8257355070E-12
             xred      2.4957336134E-01  2.5042663866E-01  2.4957336134E-01
                       7.4957336134E-01  7.5042663866E-01  7.4957336134E-01
                       7.5191100889E-01  2.4808899111E-01  7.5191100889E-01
                       2.5659262451E-01  2.5571208031E-01  7.4428791969E-01
                       7.4428791969E-01  7.4340737549E-01  2.5659262451E-01
                       2.5469082364E-01  7.4530917636E-01  2.5469082364E-01
                       2.5659262451E-01  7.4340737549E-01  7.4428791969E-01
                       7.4428791969E-01  2.5571208031E-01  2.5659262451E-01
                      -7.5064436033E-03  7.5064436033E-03 -7.5064436033E-03
            znucl       55.00000   53.00000   72.00000   35.00000

================================================================================

 chkinp: Checking input parameters for consistency.

================================================================================
== DATASET  1 ==================================================================
-   mpi_nproc: 6, omp_nthreads: -1 (-1 if OMP is not activated)


--- !DatasetInfo
iteration_state: {dtset: 1, }
dimensions: {natom: 9, nkpt: 163, mband: 42, nsppol: 1, nspinor: 1, nspden: 1, mpw: 6606, }
cutoff_energies: {ecut:  16.0, pawecutdg:  40.0, }
electrons: {nelect:   7.20000000E+01, charge:   0.00000000E+00, occopt:   1.00000000E+00, tsmear:   1.00000000E-02, }
meta: {optdriver: 0, ionmov: 0, optcell: 0, iscf: 17, paral_kgb: 0, }
...

 Real(R)+Recip(G) space primitive vectors, cartesian coordinates (Bohr,Bohr^-1):
 R(1)=  0.0000000 10.0868608 10.3244928  G(1)= -0.0484285  0.0495694  0.0484285
 R(2)= 10.3244928  0.0000000 10.3244928  G(2)=  0.0484285 -0.0495694  0.0484285
 R(3)= 10.3244928 10.0868608  0.0000000  G(3)=  0.0484285  0.0495694 -0.0484285
 Unit cell volume ucvol=  2.1504209E+03 bohr^3
 Angles (23,13,12)=  5.96164044E+01  6.07671912E+01  5.96164044E+01 degrees

 Coarse grid specifications (used for wave-functions):

 getcut: wavevector=  0.0000  0.0000  0.0000  ngfft=  54  54  54
         ecut(hartree)=     16.000   => boxcut(ratio)=   2.05466

 Fine grid specifications (used for densities):

 getcut: wavevector=  0.0000  0.0000  0.0000  ngfft=  90  90  90
         ecut(hartree)=     40.000   => boxcut(ratio)=   2.16531

--- Pseudopotential description ------------------------------------------------
- pspini: atom type   1  psp file is ../../../Psps_for_tests/ATOMICDATA/Cs.GGA_PBE-JTH.xml
- pspatm: opening atomic psp file    ../../../Psps_for_tests/ATOMICDATA/Cs.GGA_PBE-JTH.xml
- pspatm : Reading pseudopotential header in XML form from ../../../Psps_for_tests/ATOMICDATA/Cs.GGA_PBE-JTH.xml
 Pseudopotential format is: paw10
 basis_size (lnmax)=  6 (lmn_size= 18), orbitals=   0   0   1   1   2   2
 Spheres core radius: rc_sph= 2.20660278
 1 radial meshes are used:
  - mesh 1: r(i)=AA*[exp(BB*(i-1))-1], size=1500 , AA= 0.15922E-03 BB= 0.87573E-02
 Shapefunction is SIN type: shapef(r)=[sin(pi*r/rshp)/(pi*r/rshp)]**2
 Radius for shape functions =  2.00394208
 mmax= 1500
 Radial grid used for partial waves is grid 1
 Radial grid used for projectors is grid 1
 Radial grid used for (t)core density is grid 1
 Radial grid used for Vloc is grid 1
 Radial grid used for pseudo valence density is grid 1
 Mesh size for Vloc has been set to 1341 to avoid numerical noise.
 Compensation charge density is not taken into account in XC energy/potential
 pspatm: atomic psp has been read  and splines computed

- pspini: atom type   2  psp file is ../../../Psps_for_tests/ATOMICDATA/I.GGA_PBE-JTH.xml
- pspatm: opening atomic psp file    ../../../Psps_for_tests/ATOMICDATA/I.GGA_PBE-JTH.xml
- pspatm : Reading pseudopotential header in XML form from ../../../Psps_for_tests/ATOMICDATA/I.GGA_PBE-JTH.xml
 Pseudopotential format is: paw10
 basis_size (lnmax)=  4 (lmn_size=  8), orbitals=   0   0   1   1
 Spheres core radius: rc_sph= 2.30022271
 1 radial meshes are used:
  - mesh 1: r(i)=AA*[exp(BB*(i-1))-1], size=2000 , AA= 0.12610E-03 BB= 0.66836E-02
 Shapefunction is SIN type: shapef(r)=[sin(pi*r/rshp)/(pi*r/rshp)]**2
 Radius for shape functions =  2.10879093
 mmax= 2000
 Radial grid used for partial waves is grid 1
 Radial grid used for projectors is grid 1
 Radial grid used for (t)core density is grid 1
 Radial grid used for Vloc is grid 1
 Radial grid used for pseudo valence density is grid 1
 Mesh size for Vloc has been set to 1792 to avoid numerical noise.
 Compensation charge density is not taken into account in XC energy/potential
 pspatm: atomic psp has been read  and splines computed

- pspini: atom type   3  psp file is ../../../Psps_for_tests/ATOMICDATA/Hf.GGA_PBE-JTH.xml
- pspatm: opening atomic psp file    ../../../Psps_for_tests/ATOMICDATA/Hf.GGA_PBE-JTH.xml
- pspatm : Reading pseudopotential header in XML form from ../../../Psps_for_tests/ATOMICDATA/Hf.GGA_PBE-JTH.xml
 Pseudopotential format is: paw10
 basis_size (lnmax)=  6 (lmn_size= 18), orbitals=   0   0   1   1   2   2
 Spheres core radius: rc_sph= 2.41000000
 1 radial meshes are used:
  - mesh 1: r(i)=AA*[exp(BB*(i-1))-1], size= 972 , AA= 0.19796E-03 BB= 0.14253E-01
 Shapefunction is SIN type: shapef(r)=[sin(pi*r/rshp)/(pi*r/rshp)]**2
 Radius for shape functions =  2.41000000
 mmax=  972
 Radial grid used for partial waves is grid 1
 Radial grid used for projectors is grid 1
 Radial grid used for (t)core density is grid 1
 Radial grid used for Vloc is grid 1
 Radial grid used for pseudo valence density is grid 1
 Mesh size for Vloc has been set to  809 to avoid numerical noise.
 Compensation charge density is not taken into account in XC energy/potential
 pspatm: atomic psp has been read  and splines computed

- pspini: atom type   4  psp file is ../../../Psps_for_tests/ATOMICDATA/Br.GGA_PBE-JTH.xml
- pspatm: opening atomic psp file    ../../../Psps_for_tests/ATOMICDATA/Br.GGA_PBE-JTH.xml
- pspatm : Reading pseudopotential header in XML form from ../../../Psps_for_tests/ATOMICDATA/Br.GGA_PBE-JTH.xml
 Pseudopotential format is: paw10
 basis_size (lnmax)=  4 (lmn_size=  8), orbitals=   0   0   1   1
 Spheres core radius: rc_sph= 2.20000000
 1 radial meshes are used:
  - mesh 1: r(i)=AA*[exp(BB*(i-1))-1], size= 927 , AA= 0.40483E-03 BB= 0.14169E-01
 Shapefunction is BESSEL type: shapef(r,l)=aa(1,l)*jl(q(1,l)*r)+aa(2,l)*jl(q(2,l)*r)
 Radius for shape functions =  2.02066386
 mmax=  927
 Radial grid used for partial waves is grid 1
 Radial grid used for projectors is grid 1
 Radial grid used for (t)core density is grid 1
 Radial grid used for Vloc is grid 1
 Radial grid used for pseudo valence density is grid 1
 Mesh size for Vloc has been set to  763 to avoid numerical noise.
 Compensation charge density is not taken into account in XC energy/potential
 pspatm: atomic psp has been read  and splines computed

   4.62562028E+04                                ecore*ucvol(ha*bohr**3)
--------------------------------------------------------------------------------

_setup2: Arith. and geom. avg. npw (full set) are    6573.133    6573.121

================================================================================

--- !BeginCycle
iteration_state: {dtset: 1, }
solver: {iscf: 17, nstep: 2500, nline: 4, wfoptalg: 10, }
tolerances: {toldfe: 1.00E-08, }
...

     iter   Etot(hartree)      deltaE(h)  residm     nres2
 ETOT  1  -161.30984130792    -1.613E+02 8.325E+00 4.810E+00
 ETOT  2  -163.28049559062    -1.971E+00 3.217E-02 3.377E+00
 ETOT  3  -163.26370198851     1.679E-02 1.766E-02 5.654E-01
 ETOT  4  -163.26446628904    -7.643E-04 6.593E-03 1.190E-01
 ETOT  5  -163.26436125128     1.050E-04 4.042E-03 8.055E-03
 ETOT  6  -163.26442937017    -6.812E-05 2.731E-03 8.720E-04
 ETOT  7  -163.26443712137    -7.751E-06 3.661E-03 2.663E-04
 ETOT  8  -163.26443987219    -2.751E-06 2.799E-03 3.119E-05
 ETOT  9  -163.26443983042     4.177E-08 1.979E-03 6.125E-06
 ETOT 10  -163.26443989987    -6.945E-08 1.956E-03 3.538E-06
 ETOT 11  -163.26443989399     5.877E-09 1.125E-03 1.231E-06
 ETOT 12  -163.26443989203     1.968E-09 7.846E-04 3.879E-08

 At SCF step   12, etot is converged : 
  for the second time, diff in etot=  1.968E-09 < toldfe=  1.000E-08

 Cartesian components of stress tensor (hartree/bohr^3)
  sigma(1 1)= -1.71552752E-04  sigma(3 2)=  1.18531380E-13
  sigma(2 2)= -1.71658066E-04  sigma(3 1)= -2.31605027E-13
  sigma(3 3)= -1.71552752E-04  sigma(2 1)=  1.18531237E-13


--- !ResultsGS
iteration_state: {dtset: 1, }
comment   : Summary of ground state results
lattice_vectors:
- [  0.0000000,  10.0868608,  10.3244928, ]
- [ 10.3244928,   0.0000000,  10.3244928, ]
- [ 10.3244928,  10.0868608,   0.0000000, ]
lattice_lengths: [  14.43398,   14.60104,   14.43398, ]
lattice_angles: [ 59.616,  60.767,  59.616, ] # degrees, (23, 13, 12)
lattice_volume:   2.1504209E+03
convergence: {deltae:  1.968E-09, res2:  3.879E-08, residm:  7.846E-04, diffor: null, }
etotal    :  -1.63264440E+02
entropy   :   0.00000000E+00
fermie    :  -9.11600822E-02
cartesian_stress_tensor: # hartree/bohr^3
- [ -1.71552752E-04,   1.18531237E-13,  -2.31605027E-13, ]
- [  1.18531237E-13,  -1.71658066E-04,   1.18531380E-13, ]
- [ -2.31605027E-13,   1.18531380E-13,  -1.71552752E-04, ]
pressure_GPa:   5.0483E+00
xred      :
- [  2.4957E-01,   2.5043E-01,   2.4957E-01, Cs]
- [  7.4957E-01,   7.5043E-01,   7.4957E-01, Cs]
- [  7.5191E-01,   2.4809E-01,   7.5191E-01, Br]
- [  2.5659E-01,   2.5571E-01,   7.4429E-01,  I]
- [  7.4429E-01,   7.4341E-01,   2.5659E-01,  I]
- [  2.5469E-01,   7.4531E-01,   2.5469E-01,  I]
- [  2.5659E-01,   7.4341E-01,   7.4429E-01,  I]
- [  7.4429E-01,   2.5571E-01,   2.5659E-01,  I]
- [ -7.5064E-03,   7.5064E-03,  -7.5064E-03, Hf]
cartesian_forces: # hartree/bohr
- [ -2.91161697E-22,  -6.21192686E-06,   4.04008589E-22, ]
- [  3.65167261E-22,  -6.21192686E-06,  -2.52320368E-22, ]
- [ -7.46675605E-23,   7.01229072E-06,   1.87514453E-22, ]
- [ -1.77766490E-16,   1.26517435E-05,   1.50918615E-05, ]
- [  1.77766272E-16,   1.26517435E-05,  -1.50918615E-05, ]
- [  1.37757280E-22,  -8.21370040E-06,  -2.49103870E-23, ]
- [ -1.50918615E-05,   1.26517435E-05,   1.77767529E-16, ]
- [  1.50918615E-05,   1.26517435E-05,  -1.77765110E-16, ]
- [  8.48241336E-22,  -3.69817107E-05,  -7.35394443E-22, ]
force_length_stats: {min:   6.21192686E-06, max:   3.69817107E-05, mean:   1.59339163E-05, }
...

 Integrated electronic density in atomic spheres:
 ------------------------------------------------
 Atom  Sphere_radius  Integrated_density
    1        2.20660          5.37595265
    2        2.20660          5.37595265
    3        2.20000          4.94970950
    4        2.30022          4.04939580
    5        2.30022          4.04939580
    6        2.30022          4.04906948
    7        2.30022          4.04939580
    8        2.30022          4.04939580
    9        2.41000          9.35058906

 PAW TEST:
 ==== Compensation charge inside spheres ============
 The following values must be close to each other ...
 Compensation charge over spherical meshes =     -0.553807303520115
 Compensation charge over fine fft grid    =     -0.553819955645861

 ==== Results concerning PAW augmentation regions ====

 Total pseudopotential strength Dij (hartree):
 Atom #  1
   0.44139  -0.14615   0.00000   0.00000   0.00000  -0.00000   0.00000   0.00000   0.00000   0.00000  -0.00000  -0.00000 ...
  -0.14615   0.04405  -0.00000   0.00000   0.00000   0.00000   0.00000   0.00000   0.00000   0.00000   0.00000   0.00000 ...
   0.00000  -0.00000  -0.09368   0.00000   0.00000  -0.16654   0.00000   0.00000   0.00000   0.00000  -0.00000  -0.00000 ...
   0.00000   0.00000   0.00000  -0.09368   0.00000   0.00000  -0.16654   0.00000  -0.00000   0.00000   0.00000   0.00000 ...
   0.00000   0.00000   0.00000   0.00000  -0.09368   0.00000   0.00000  -0.16654   0.00000  -0.00000   0.00000   0.00000 ...
  -0.00000   0.00000  -0.16654   0.00000   0.00000   0.40443   0.00000   0.00000   0.00000   0.00000   0.00000  -0.00000 ...
   0.00000   0.00000   0.00000  -0.16654   0.00000   0.00000   0.40443  -0.00001  -0.00000  -0.00000   0.00000   0.00000 ...
   0.00000   0.00000   0.00000   0.00000  -0.16654   0.00000  -0.00001   0.40443  -0.00000  -0.00000   0.00000   0.00000 ...
   0.00000   0.00000   0.00000  -0.00000   0.00000   0.00000  -0.00000  -0.00000   0.00521  -0.00000   0.00000   0.00000 ...
   0.00000   0.00000   0.00000   0.00000  -0.00000   0.00000  -0.00000  -0.00000  -0.00000   0.00521   0.00000   0.00000 ...
  -0.00000   0.00000  -0.00000   0.00000   0.00000   0.00000   0.00000   0.00000   0.00000   0.00000   0.00521  -0.00000 ...
  -0.00000   0.00000  -0.00000   0.00000   0.00000  -0.00000   0.00000   0.00000   0.00000   0.00000  -0.00000   0.00521 ...
   ...  only 12  components have been written...
 Atom #  9
  -3.52059   0.42898  -0.00013   0.00000   0.00000   0.00003   0.00000   0.00000   0.00000   0.00000  -0.00003   0.00000 ...
   0.42898   0.00277   0.00005   0.00000   0.00000  -0.00001   0.00000   0.00000   0.00000   0.00000   0.00000   0.00000 ...
  -0.00013   0.00005  -1.45957   0.00000   0.00000   0.12408   0.00000   0.00000   0.00000   0.00000   0.00001   0.00000 ...
   0.00000   0.00000   0.00000  -1.45978   0.00000   0.00000   0.12412   0.00000   0.00000  -0.00002   0.00000   0.00000 ...
   0.00000   0.00000   0.00000   0.00000  -1.45978   0.00000   0.00000   0.12412  -0.00002   0.00000   0.00000   0.00000 ...
   0.00003  -0.00001   0.12408   0.00000   0.00000   0.01330   0.00000   0.00000   0.00000   0.00000  -0.00000   0.00000 ...
   0.00000   0.00000   0.00000   0.12412   0.00000   0.00000   0.01329   0.00000   0.00000   0.00000   0.00000   0.00000 ...
   0.00000   0.00000   0.00000   0.00000   0.12412   0.00000   0.00000   0.01329   0.00000   0.00000   0.00000   0.00000 ...
   0.00000   0.00000   0.00000   0.00000  -0.00002   0.00000   0.00000   0.00000  -0.39466   0.00000   0.00000   0.00000 ...
   0.00000   0.00000   0.00000  -0.00002   0.00000   0.00000   0.00000   0.00000   0.00000  -0.39466   0.00000   0.00000 ...
  -0.00003   0.00000   0.00001   0.00000   0.00000  -0.00000   0.00000   0.00000   0.00000   0.00000  -0.39405   0.00000 ...
   0.00000   0.00000   0.00000   0.00000   0.00000   0.00000   0.00000   0.00000   0.00000   0.00000   0.00000  -0.39470 ...
   ...  only 12  components have been written...


 Augmentation waves occupancies Rhoij:
 Atom #  1
   1.99873  -0.01195   0.00002   0.00000   0.00000   0.00001   0.00000   0.00000   0.00000   0.00000   0.00030  -0.00225 ...
  -0.01195   0.22414   0.00065   0.00000   0.00000  -0.00003   0.00000   0.00000   0.00000   0.00000  -0.00691   0.01465 ...
   0.00002   0.00065   2.00715   0.00000   0.00000  -0.00494   0.00000   0.00000   0.00000   0.00000  -0.00013  -0.00202 ...
   0.00000   0.00000   0.00000   2.00649   0.00118   0.00000  -0.00478  -0.00022  -0.00213   0.00036   0.00000   0.00000 ...
   0.00000   0.00000   0.00000   0.00118   2.00649   0.00000  -0.00022  -0.00478   0.00036  -0.00213   0.00000   0.00000 ...
   0.00001  -0.00003  -0.00494   0.00000   0.00000   0.00018   0.00000   0.00000   0.00000   0.00000   0.00001   0.00009 ...
   0.00000   0.00000   0.00000  -0.00478  -0.00022   0.00000   0.00016   0.00001   0.00010  -0.00001   0.00000   0.00000 ...
   0.00000   0.00000   0.00000  -0.00022  -0.00478   0.00000   0.00001   0.00016  -0.00001   0.00010   0.00000   0.00000 ...
   0.00000   0.00000   0.00000  -0.00213   0.00036   0.00000   0.00010  -0.00001   0.09466   0.00007   0.00000   0.00000 ...
   0.00000   0.00000   0.00000   0.00036  -0.00213   0.00000  -0.00001   0.00010   0.00007   0.09466   0.00000   0.00000 ...
   0.00030  -0.00691  -0.00013   0.00000   0.00000   0.00001   0.00000   0.00000   0.00000   0.00000   0.06272   0.00717 ...
  -0.00225   0.01465  -0.00202   0.00000   0.00000   0.00009   0.00000   0.00000   0.00000   0.00000   0.00717   0.06749 ...
   ...  only 12  components have been written...
 Atom #  9
   1.99812  -0.01829  -0.00017   0.00000   0.00000  -0.00077   0.00000   0.00000   0.00000   0.00000   0.00001   0.00000 ...
  -0.01829   1.02742   0.00003   0.00000   0.00000  -0.01082   0.00000   0.00000   0.00000   0.00000  -0.00911   0.00000 ...
  -0.00017   0.00003   1.99409   0.00000   0.00000  -0.05102   0.00000   0.00000   0.00000   0.00000   0.00067   0.00000 ...
   0.00000   0.00000   0.00000   1.99426   0.00000   0.00000  -0.04811   0.00000   0.00000  -0.00206   0.00000   0.00000 ...
   0.00000   0.00000   0.00000   0.00000   1.99426   0.00000   0.00000  -0.04811  -0.00206   0.00000   0.00000   0.00000 ...
  -0.00077  -0.01082  -0.05102   0.00000   0.00000   1.35934   0.00000   0.00000   0.00000   0.00000   0.03830   0.00000 ...
   0.00000   0.00000   0.00000  -0.04811   0.00000   0.00000   1.27297   0.00000   0.00000   0.04565   0.00000   0.00000 ...
   0.00000   0.00000   0.00000   0.00000  -0.04811   0.00000   0.00000   1.27297   0.04565   0.00000   0.00000   0.00000 ...
   0.00000   0.00000   0.00000   0.00000  -0.00206   0.00000   0.00000   0.04565   0.52366   0.00000   0.00000   0.00000 ...
   0.00000   0.00000   0.00000  -0.00206   0.00000   0.00000   0.04565   0.00000   0.00000   0.52366   0.00000   0.00000 ...
   0.00001  -0.00911   0.00067   0.00000   0.00000   0.03830   0.00000   0.00000   0.00000   0.00000   1.48775   0.00000 ...
   0.00000   0.00000   0.00000   0.00000   0.00000   0.00000   0.00000   0.00000   0.00000   0.00000   0.00000   0.50695 ...
   ...  only 12  components have been written...


================================================================================

 ----iterations are completed or convergence reached----

 Mean square residual over all n,k,spin=   23.684E-07; max=  78.456E-05
 reduced coordinates (array xred) for    9 atoms
       0.249573361340      0.250426638660      0.249573361340
       0.749573361340      0.750426638660      0.749573361340
       0.751911008890      0.248088991110      0.751911008890
       0.256592624510      0.255712080310      0.744287919690
       0.744287919690      0.743407375490      0.256592624510
       0.254690823640      0.745309176360      0.254690823640
       0.256592624510      0.743407375490      0.744287919690
       0.744287919690      0.255712080310      0.256592624510
      -0.007506443603      0.007506443603     -0.007506443603
 rms dE/dt=  1.5435E-04; max dE/dt=  3.6557E-04; dE/dt below (all hartree)
    1       0.000055196109      0.000000000000      0.000055196109
    2       0.000055196109      0.000000000000      0.000055196109
    3      -0.000078194734      0.000000000000     -0.000078194734
    4      -0.000290894925     -0.000155815815     -0.000135079110
    5       0.000020736706      0.000155815815     -0.000135079110
    6       0.000075387720      0.000000000000      0.000075387720
    7      -0.000135079110      0.000155815815      0.000020736706
    8      -0.000135079110     -0.000155815815     -0.000290894925
    9       0.000365566636      0.000000000000      0.000365566636

 cartesian coordinates (angstrom) at end:
    1      2.73174313411540     2.66431386056894     2.73174313411540
    2      8.19522940234610     8.00205072131363     8.19522940234610
    3      5.46348626819827     8.02700621630376     5.46348626819827
    4      5.46348626819925     5.34243697397854     2.79896971993399
    5      5.46348626826202     5.34243697397854     8.12800281652728
    6      5.46348626826227     2.71894519487331     5.46348626826227
    7      8.12800281652728     5.34243697397854     5.46348626826202
    8      2.79896971993399     5.34243697397854     5.46348626819925
    9      0.00000000000097    -0.08013484142887     0.00000000000097

 cartesian forces (hartree/bohr) at end:
    1     -0.00000000000000    -0.00000621192686     0.00000000000000
    2      0.00000000000000    -0.00000621192686    -0.00000000000000
    3     -0.00000000000000     0.00000701229072     0.00000000000000
    4     -0.00000000000000     0.00001265174353     0.00001509186151
    5      0.00000000000000     0.00001265174353    -0.00001509186151
    6      0.00000000000000    -0.00000821370040    -0.00000000000000
    7     -0.00001509186151     0.00001265174353     0.00000000000000
    8      0.00001509186151     0.00001265174353    -0.00000000000000
    9      0.00000000000000    -0.00003698171073    -0.00000000000000
 frms,max,avg= 1.0737238E-05 3.6981711E-05   0.000E+00  7.398E-07  0.000E+00 h/b

 cartesian forces (eV/Angstrom) at end:
    1     -0.00000000000000    -0.00031943009546     0.00000000000000
    2      0.00000000000000    -0.00031943009546    -0.00000000000000
    3     -0.00000000000000     0.00036058645628     0.00000000000000
    4     -0.00000000000001     0.00065057875540     0.00077605465610
    5      0.00000000000001     0.00065057875538    -0.00077605465610
    6      0.00000000000000    -0.00042236542084    -0.00000000000000
    7     -0.00077605465610     0.00065057875538     0.00000000000001
    8      0.00077605465610     0.00065057875540    -0.00000000000001
    9      0.00000000000000    -0.00190167586607    -0.00000000000000
 frms,max,avg= 5.5213094E-04 1.9016759E-03   0.000E+00  3.804E-05  0.000E+00 e/A
 length scales= 14.433984642000 14.601037711000 14.433984642000 bohr
              =  7.638135701684  7.726536378424  7.638135701684 angstroms
 prteigrs : about to open file Cs2TiI6o_EIG
 Fermi (or HOMO) energy (hartree) =  -0.09116   Average Vxc (hartree)=  -0.32798
 Eigenvalues (hartree) for nkpt= 163  k points:
 kpt#   1, nband= 42, wtk=  0.00058, kpt=  0.0000  0.0000  0.0000 (reduced coord)
  -2.39290   -1.23895   -1.23864   -1.23864   -0.84647   -0.84594   -0.62219   -0.54933
  -0.52435   -0.52435   -0.51646   -0.51551   -0.37360   -0.37168   -0.37168   -0.36703
  -0.36690   -0.36690   -0.27773   -0.20991   -0.20839   -0.20839   -0.20252   -0.20252
  -0.19590   -0.18141   -0.16845   -0.14571   -0.14571   -0.13523   -0.10870   -0.10870
  -0.10468   -0.09369   -0.09116   -0.09116   -0.02848   -0.02351   -0.02351    0.04085
   0.04986    0.06045
 prteigrs : prtvol=0 or 1, do not print more k-points.


--- !EnergyTerms
iteration_state     : {dtset: 1, }
comment             : Components of total free energy in Hartree
kinetic             :  3.80712124060946E+01
hartree             :  2.74991019315893E+01
xc                  : -6.07496848470679E+01
Ewald energy        : -1.29502705683465E+02
psp_core            :  2.15103018292496E+01
local_psp           : -5.32223330881234E+01
spherical_terms     : -6.87034507014414E+00
total_energy        : -1.63264452521867E+02
total_energy_eV     : -4.44265168826527E+03
...


--- !EnergyTermsDC
iteration_state     : {dtset: 1, }
comment             : '"Double-counting" decomposition of free energy'
band_energy         : -3.25870863918932E+01
Ewald energy        : -1.29502705683465E+02
psp_core            :  2.15103018292496E+01
xc_dc               : -5.05614676090167E+01
spherical_terms     :  2.78765179631000E+01
total_energy_dc     : -1.63264439892025E+02
total_energy_dc_eV  : -4.44265134458980E+03
...


 Cartesian components of stress tensor (hartree/bohr^3)
  sigma(1 1)= -1.71552752E-04  sigma(3 2)=  1.18531380E-13
  sigma(2 2)= -1.71658066E-04  sigma(3 1)= -2.31605027E-13
  sigma(3 3)= -1.71552752E-04  sigma(2 1)=  1.18531237E-13

-Cartesian components of stress tensor (GPa)         [Pressure=  5.0483E+00 GPa]
- sigma(1 1)= -5.04725536E+00  sigma(3 2)=  3.48731302E-09
- sigma(2 2)= -5.05035382E+00  sigma(3 1)= -6.81405401E-09
- sigma(3 3)= -5.04725536E+00  sigma(2 1)=  3.48730881E-09

== END DATASET(S) ==============================================================
================================================================================
  
 -outvars: echo values of variables after computation  --------
            acell      1.4433984642E+01  1.4601037711E+01  1.4433984642E+01 Bohr
              amu      1.32905430E+02  1.26904470E+02  1.78490000E+02
                       7.99040000E+01
           diemac      1.20000000E+01
             ecut      1.60000000E+01 Hartree
           etotal     -1.6326443989E+02
            fcart     -2.9116169667E-22 -6.2119268584E-06  4.0400858946E-22
                       3.6516726050E-22 -6.2119268584E-06 -2.5232036771E-22
                      -7.4667560474E-23  7.0122907153E-06  1.8751445327E-22
                      -1.7776649039E-16  1.2651743532E-05  1.5091861507E-05
                       1.7776627186E-16  1.2651743532E-05 -1.5091861507E-05
                       1.3775727985E-22 -8.2137003967E-06 -2.4910387049E-23
                      -1.5091861507E-05  1.2651743532E-05  1.7776752900E-16
                       1.5091861507E-05  1.2651743532E-05 -1.7776511022E-16
                       8.4824133551E-22 -3.6981710729E-05 -7.3539444271E-22
-          fftalg         112
           istwfk        2    0    0    0    0    0    3    0    0    0
                         0    0    0    0    0    0    0    0    0    0
                         0    0    0    0    0    0    0    0    0    0
                         0    0    0    0    0    0    0    0    0    0
                         0    0    7    0    0    0    0    0    0    0
                       outvar_i_n : Printing only first  50 k-points.
              ixc     -101130
              kpt      0.00000000E+00  0.00000000E+00  0.00000000E+00
                       8.33333333E-02  0.00000000E+00  0.00000000E+00
                       1.66666667E-01  0.00000000E+00  0.00000000E+00
                       2.50000000E-01  0.00000000E+00  0.00000000E+00
                       3.33333333E-01  0.00000000E+00  0.00000000E+00
                       4.16666667E-01  0.00000000E+00  0.00000000E+00
                       5.00000000E-01  0.00000000E+00  0.00000000E+00
                       8.33333333E-02  8.33333333E-02  0.00000000E+00
                       1.66666667E-01  8.33333333E-02  0.00000000E+00
                       2.50000000E-01  8.33333333E-02  0.00000000E+00
                       3.33333333E-01  8.33333333E-02  0.00000000E+00
                       4.16666667E-01  8.33333333E-02  0.00000000E+00
                       5.00000000E-01  8.33333333E-02  0.00000000E+00
                      -4.16666667E-01  8.33333333E-02  0.00000000E+00
                      -3.33333333E-01  8.33333333E-02  0.00000000E+00
                      -2.50000000E-01  8.33333333E-02  0.00000000E+00
                      -1.66666667E-01  8.33333333E-02  0.00000000E+00
                      -8.33333333E-02  8.33333333E-02  0.00000000E+00
                       1.66666667E-01  1.66666667E-01  0.00000000E+00
                       2.50000000E-01  1.66666667E-01  0.00000000E+00
                       3.33333333E-01  1.66666667E-01  0.00000000E+00
                       4.16666667E-01  1.66666667E-01  0.00000000E+00
                       5.00000000E-01  1.66666667E-01  0.00000000E+00
                      -4.16666667E-01  1.66666667E-01  0.00000000E+00
                      -3.33333333E-01  1.66666667E-01  0.00000000E+00
                      -2.50000000E-01  1.66666667E-01  0.00000000E+00
                      -1.66666667E-01  1.66666667E-01  0.00000000E+00
                       2.50000000E-01  2.50000000E-01  0.00000000E+00
                       3.33333333E-01  2.50000000E-01  0.00000000E+00
                       4.16666667E-01  2.50000000E-01  0.00000000E+00
                       5.00000000E-01  2.50000000E-01  0.00000000E+00
                      -4.16666667E-01  2.50000000E-01  0.00000000E+00
                      -3.33333333E-01  2.50000000E-01  0.00000000E+00
                      -2.50000000E-01  2.50000000E-01  0.00000000E+00
                       3.33333333E-01  3.33333333E-01  0.00000000E+00
                       4.16666667E-01  3.33333333E-01  0.00000000E+00
                       5.00000000E-01  3.33333333E-01  0.00000000E+00
                      -4.16666667E-01  3.33333333E-01  0.00000000E+00
                      -3.33333333E-01  3.33333333E-01  0.00000000E+00
                       4.16666667E-01  4.16666667E-01  0.00000000E+00
                       5.00000000E-01  4.16666667E-01  0.00000000E+00
                      -4.16666667E-01  4.16666667E-01  0.00000000E+00
                       5.00000000E-01  5.00000000E-01  0.00000000E+00
                       8.33333333E-02  0.00000000E+00  8.33333333E-02
                       1.66666667E-01  0.00000000E+00  8.33333333E-02
                       2.50000000E-01  0.00000000E+00  8.33333333E-02
                       3.33333333E-01  0.00000000E+00  8.33333333E-02
                       4.16666667E-01  0.00000000E+00  8.33333333E-02
                       5.00000000E-01  0.00000000E+00  8.33333333E-02
                      -4.16666667E-01  0.00000000E+00  8.33333333E-02
                       outvar_i_n : Printing only first  50 k-points.
         kptrlatt       12    0    0      0   12    0      0    0   12
          kptrlen      1.73207816E+02
P           mkmem          28
            natom           9
            nband          42
            ngfft          54      54      54
          ngfftdg          90      90      90
             nkpt         163
            nstep        2500
             nsym           8
           ntypat           4
              occ      2.000000  2.000000  2.000000  2.000000  2.000000  2.000000
                       2.000000  2.000000  2.000000  2.000000  2.000000  2.000000
                       2.000000  2.000000  2.000000  2.000000  2.000000  2.000000
                       2.000000  2.000000  2.000000  2.000000  2.000000  2.000000
                       2.000000  2.000000  2.000000  2.000000  2.000000  2.000000
                       2.000000  2.000000  2.000000  2.000000  2.000000  2.000000
                       0.000000  0.000000  0.000000  0.000000  0.000000  0.000000
        pawecutdg      4.00000000E+01 Hartree
            prtwf           0
            rprim      0.0000000000E+00  6.9882718365E-01  7.1529054753E-01
                       7.0710678119E-01  0.0000000000E+00  7.0710678119E-01
                       7.1529054753E-01  6.9882718365E-01  0.0000000000E+00
          spgroup         107
           strten     -1.7155275160E-04 -1.7165806626E-04 -1.7155275160E-04
                       1.1853138040E-13 -2.3160502722E-13  1.1853123721E-13
           symrel      1  0  0   0  1  0   0  0  1       0  0  1   0  1  0   1  0  0
                       0 -1  1   0 -1  0   1 -1  0       1 -1  0   0 -1  0   0 -1  1
                       0 -1  1  -1  0  1   0  0  1       0  0  1  -1  0  1   0 -1  1
                       1  0  0   1  0 -1   1 -1  0       1 -1  0   1  0 -1   1  0  0
           toldfe      1.00000000E-08 Hartree
            typat      1  1  4  2  2  2  2  2  3
           useylm           1
              wtk        0.00058    0.00463    0.00463    0.00463    0.00463    0.00463
                         0.00231    0.00231    0.00926    0.00926    0.00926    0.00926
                         0.00926    0.00926    0.00926    0.00926    0.00926    0.00463
                         0.00231    0.00926    0.00926    0.00926    0.00926    0.00926
                         0.00926    0.00926    0.00463    0.00231    0.00926    0.00926
                         0.00926    0.00926    0.00926    0.00463    0.00231    0.00926
                         0.00926    0.00926    0.00463    0.00231    0.00926    0.00463
                         0.00116    0.00116    0.00463    0.00463    0.00463    0.00463
                         0.00463    0.00463
                       outvars : Printing only first  50 k-points.
           xangst      2.7317431341E+00  2.6643138606E+00  2.7317431341E+00
                       8.1952294023E+00  8.0020507213E+00  8.1952294023E+00
                       5.4634862682E+00  8.0270062163E+00  5.4634862682E+00
                       5.4634862682E+00  5.3424369740E+00  2.7989697199E+00
                       5.4634862683E+00  5.3424369740E+00  8.1280028165E+00
                       5.4634862683E+00  2.7189451949E+00  5.4634862683E+00
                       8.1280028165E+00  5.3424369740E+00  5.4634862683E+00
                       2.7989697199E+00  5.3424369740E+00  5.4634862682E+00
                       9.6613761924E-13 -8.0134841429E-02  9.6613761924E-13
            xcart      5.1622463889E+00  5.0348235285E+00  5.1622463889E+00
                       1.5486739167E+01  1.5121684365E+01  1.5486739167E+01
                       1.0324492778E+01  1.5168843416E+01  1.0324492778E+01
                       1.0324492778E+01  1.0095742763E+01  5.2892862249E+00
                       1.0324492778E+01  1.0095742763E+01  1.5359699331E+01
                       1.0324492778E+01  5.1380617886E+00  1.0324492778E+01
                       1.5359699331E+01  1.0095742763E+01  1.0324492778E+01
                       5.2892862249E+00  1.0095742763E+01  1.0324492778E+01
                       1.8257355070E-12 -1.5143290400E-01  1.8257355070E-12
             xred      2.4957336134E-01  2.5042663866E-01  2.4957336134E-01
                       7.4957336134E-01  7.5042663866E-01  7.4957336134E-01
                       7.5191100889E-01  2.4808899111E-01  7.5191100889E-01
                       2.5659262451E-01  2.5571208031E-01  7.4428791969E-01
                       7.4428791969E-01  7.4340737549E-01  2.5659262451E-01
                       2.5469082364E-01  7.4530917636E-01  2.5469082364E-01
                       2.5659262451E-01  7.4340737549E-01  7.4428791969E-01
                       7.4428791969E-01  2.5571208031E-01  2.5659262451E-01
                      -7.5064436033E-03  7.5064436033E-03 -7.5064436033E-03
            znucl       55.00000   53.00000   72.00000   35.00000

================================================================================


- Timing analysis has been suppressed with timopt=0



================================================================================

 Suggested references for the acknowledgment of ABINIT usage.

 The users of ABINIT have little formal obligations with respect to the ABINIT group
 (those specified in the GNU General Public License, http://www.gnu.org/copyleft/gpl.txt).
 However, it is common practice in the scientific literature,
 to acknowledge the efforts of people that have made the research possible.
 In this spirit, please find below suggested citations of work written by ABINIT developers,
 corresponding to implementations inside of ABINIT that you have used in the present run.
 Note also that it will be of great value to readers of publications presenting these results,
 to read papers enabling them to understand the theoretical formalism and details
 of the ABINIT implementation.
 For information on why they are suggested, see also https://docs.abinit.org/theory/acknowledgments.
-
- [1] Implementation of the Projector Augmented-Wave Method in the ABINIT code.
- M. Torrent, F. Jollet, F. Bottin, G. Zerah, and X. Gonze Comput. Mat. Science 42, 337, (2008).
- Comment: PAW calculations. Strong suggestion to cite this paper.
- DOI and bibtex: see https://docs.abinit.org/theory/bibliography/#torrent2008
-
- [2] Libxc: A library of exchange and correlation functionals for density functional theory.
- M.A.L. Marques, M.J.T. Oliveira, T. Burnus, Computer Physics Communications 183, 2227 (2012).
- Comment: to be cited when LibXC is used (negative value of ixc)
- Strong suggestion to cite this paper.
- DOI and bibtex: see https://docs.abinit.org/theory/bibliography/#marques2012
-
- [3] The Abinit project: Impact, environment and recent developments.
- Computer Phys. Comm. 248, 107042 (2020).
- X.Gonze, B. Amadon, G. Antonius, F.Arnardi, L.Baguet, J.-M.Beuken,
- J.Bieder, F.Bottin, J.Bouchet, E.Bousquet, N.Brouwer, F.Bruneval,
- G.Brunin, T.Cavignac, J.-B. Charraud, Wei Chen, M.Cote, S.Cottenier,
- J.Denier, G.Geneste, Ph.Ghosez, M.Giantomassi, Y.Gillet, O.Gingras,
- D.R.Hamann, G.Hautier, Xu He, N.Helbig, N.Holzwarth, Y.Jia, F.Jollet,
- W.Lafargue-Dit-Hauret, K.Lejaeghere, M.A.L.Marques, A.Martin, C.Martins,
- H.P.C. Miranda, F.Naccarato, K. Persson, G.Petretto, V.Planes, Y.Pouillon,
- S.Prokhorenko, F.Ricci, G.-M.Rignanese, A.H.Romero, M.M.Schmitt, M.Torrent,
- M.J.van Setten, B.Van Troeye, M.J.Verstraete, G.Zerah and J.W.Zwanzig
- Comment: the fifth generic paper describing the ABINIT project.
- Note that a version of this paper, that is not formatted for Computer Phys. Comm. 
- is available at https://www.abinit.org/sites/default/files/ABINIT20.pdf .
- The licence allows the authors to put it on the Web.
- DOI and bibtex: see https://docs.abinit.org/theory/bibliography/#gonze2020
-
- [4] ABINIT: Overview, and focus on selected capabilities
- J. Chem. Phys. 152, 124102 (2020).
- A. Romero, D.C. Allan, B. Amadon, G. Antonius, T. Applencourt, L.Baguet,
- J.Bieder, F.Bottin, J.Bouchet, E.Bousquet, F.Bruneval,
- G.Brunin, D.Caliste, M.Cote,
- J.Denier, C. Dreyer, Ph.Ghosez, M.Giantomassi, Y.Gillet, O.Gingras,
- D.R.Hamann, G.Hautier, F.Jollet, G. Jomard,
- A.Martin, 
- H.P.C. Miranda, F.Naccarato, G.Petretto, N.A. Pike, V.Planes,
- S.Prokhorenko, T. Rangel, F.Ricci, G.-M.Rignanese, M.Royo, M.Stengel, M.Torrent,
- M.J.van Setten, B.Van Troeye, M.J.Verstraete, J.Wiktor, J.W.Zwanziger, and X.Gonze.
- Comment: a global overview of ABINIT, with focus on selected capabilities .
- Note that a version of this paper, that is not formatted for J. Chem. Phys 
- is available at https://www.abinit.org/sites/default/files/ABINIT20_JPC.pdf .
- The licence allows the authors to put it on the Web.
- DOI and bibtex: see https://docs.abinit.org/theory/bibliography/#romero2020
-
- [5] Recent developments in the ABINIT software package.
- Computer Phys. Comm. 205, 106 (2016).
- X.Gonze, F.Jollet, F.Abreu Araujo, D.Adams, B.Amadon, T.Applencourt,
- C.Audouze, J.-M.Beuken, J.Bieder, A.Bokhanchuk, E.Bousquet, F.Bruneval
- D.Caliste, M.Cote, F.Dahm, F.Da Pieve, M.Delaveau, M.Di Gennaro,
- B.Dorado, C.Espejo, G.Geneste, L.Genovese, A.Gerossier, M.Giantomassi,
- Y.Gillet, D.R.Hamann, L.He, G.Jomard, J.Laflamme Janssen, S.Le Roux,
- A.Levitt, A.Lherbier, F.Liu, I.Lukacevic, A.Martin, C.Martins,
- M.J.T.Oliveira, S.Ponce, Y.Pouillon, T.Rangel, G.-M.Rignanese,
- A.H.Romero, B.Rousseau, O.Rubel, A.A.Shukri, M.Stankovski, M.Torrent,
- M.J.Van Setten, B.Van Troeye, M.J.Verstraete, D.Waroquier, J.Wiktor,
- B.Xu, A.Zhou, J.W.Zwanziger.
- Comment: the fourth generic paper describing the ABINIT project.
- Note that a version of this paper, that is not formatted for Computer Phys. Comm. 
- is available at https://www.abinit.org/sites/default/files/ABINIT16.pdf .
- The licence allows the authors to put it on the Web.
- DOI and bibtex: see https://docs.abinit.org/theory/bibliography/#gonze2016
-
- Proc.   0 individual time (sec): cpu=       1249.0  wall=       1258.4

================================================================================

 Calculation completed.
.Delivered   0 WARNINGs and   0 COMMENTs to log file.
+Overall time at end (sec) : cpu=       7528.6  wall=       7550.2
