
.Version 9.2.2 of ABINIT 
.(MPI version, prepared for a x86_64_linux_gnu9.3 computer) 

.Copyright (C) 1998-2020 ABINIT group . 
 ABINIT comes with ABSOLUTELY NO WARRANTY.
 It is free software, and you are welcome to redistribute it
 under certain conditions (GNU General Public License,
 see ~abinit/COPYING or http://www.gnu.org/copyleft/gpl.txt).

 ABINIT is a project of the Universite Catholique de Louvain,
 Corning Inc. and other collaborators, see ~abinit/doc/developers/contributors.txt .
 Please read https://docs.abinit.org/theory/acknowledgments for suggested
 acknowledgments of the ABINIT effort.
 For more information, see https://www.abinit.org .

.Starting date : Tue 22 Nov 2022.
- ( at 23h06 )
  
- input  file    -> Cs2TiI6.in
- output file    -> Cs2TiI6.out
- root for input  files -> Cs2TiI6i
- root for output files -> Cs2TiI6o

- inpspheads : Reading pseudopotential header in XML form from 
-   ../../../Psps_for_tests/ATOMICDATA/Cs.GGA_PBE-JTH.xml
- inpspheads : Reading pseudopotential header in XML form from 
-   ../../../Psps_for_tests/ATOMICDATA/I.GGA_PBE-JTH.xml
- inpspheads : Reading pseudopotential header in XML form from 
-   ../../../Psps_for_tests/ATOMICDATA/Hf.GGA_PBE-JTH.xml
- inpspheads : Reading pseudopotential header in XML form from 
-   ../../../Psps_for_tests/ATOMICDATA/Cl.GGA_PBE-JTH.xml

 DATASET    1 : space group I4 m m (#107); Bravais tI (body-center tetrag.)
================================================================================
 Values of the parameters that define the memory need for DATASET  1.
     intxc =       0    ionmov =       0      iscf =      17    lmnmax =      18
     lnmax =       6     mgfft =      64  mpssoang =       3    mqgrid =    3989
     natom =       9  nloc_mem =       2    nspden =       1   nspinor =       1
    nsppol =       1      nsym =       8    n1xccc =       1    ntypat =       4
    occopt =       1   xclevel =       2
-    mband =          42        mffmem =           1         mkmem =          28
       mpw =       10959          nfft =      262144          nkpt =         163
Pmy_natom=         2
 PAW method is used; the additional fine FFT grid is defined by:
   mgfftf=       100    nfftf =   1000000
================================================================================
P This job should need less than                     504.031 Mbytes of memory.
  Rough estimation (10% accuracy) of disk space for files :
_ WF disk file :   1144.797 Mbytes ; DEN or POT disk file :      7.631 Mbytes.
================================================================================


 DATASET    2 : space group I4 m m (#107); Bravais tI (body-center tetrag.)
================================================================================
 Values of the parameters that define the memory need for DATASET  2.
     intxc =       0    ionmov =       0      iscf =      17    lmnmax =      18
     lnmax =       6     mgfft =      64  mpssoang =       3    mqgrid =    3985
     natom =       9  nloc_mem =       2    nspden =       1   nspinor =       1
    nsppol =       1      nsym =       8    n1xccc =       1    ntypat =       4
    occopt =       1   xclevel =       2
-    mband =          42        mffmem =           1         mkmem =          28
       mpw =       10924          nfft =      262144          nkpt =         163
Pmy_natom=         2
 PAW method is used; the additional fine FFT grid is defined by:
   mgfftf=       100    nfftf =   1000000
================================================================================
P This job should need less than                     503.340 Mbytes of memory.
  Rough estimation (10% accuracy) of disk space for files :
_ WF disk file :   1141.141 Mbytes ; DEN or POT disk file :      7.631 Mbytes.
================================================================================


 DATASET    3 : space group I4 m m (#107); Bravais tI (body-center tetrag.)
================================================================================
 Values of the parameters that define the memory need for DATASET  3.
     intxc =       0    ionmov =       0      iscf =      17    lmnmax =      18
     lnmax =       6     mgfft =      64  mpssoang =       3    mqgrid =    3981
     natom =       9  nloc_mem =       2    nspden =       1   nspinor =       1
    nsppol =       1      nsym =       8    n1xccc =       1    ntypat =       4
    occopt =       1   xclevel =       2
-    mband =          42        mffmem =           1         mkmem =          28
       mpw =       10901          nfft =      262144          nkpt =         163
Pmy_natom=         2
 PAW method is used; the additional fine FFT grid is defined by:
   mgfftf=       100    nfftf =   1000000
================================================================================
P This job should need less than                     502.892 Mbytes of memory.
  Rough estimation (10% accuracy) of disk space for files :
_ WF disk file :   1138.739 Mbytes ; DEN or POT disk file :      7.631 Mbytes.
================================================================================


 DATASET    4 : space group I4 m m (#107); Bravais tI (body-center tetrag.)
================================================================================
 Values of the parameters that define the memory need for DATASET  4.
     intxc =       0    ionmov =       0      iscf =      17    lmnmax =      18
     lnmax =       6     mgfft =      64  mpssoang =       3    mqgrid =    3977
     natom =       9  nloc_mem =       2    nspden =       1   nspinor =       1
    nsppol =       1      nsym =       8    n1xccc =       1    ntypat =       4
    occopt =       1   xclevel =       2
-    mband =          42        mffmem =           1         mkmem =          28
       mpw =       10856          nfft =      262144          nkpt =         163
Pmy_natom=         2
 PAW method is used; the additional fine FFT grid is defined by:
   mgfftf=       100    nfftf =   1000000
================================================================================
P This job should need less than                     502.000 Mbytes of memory.
  Rough estimation (10% accuracy) of disk space for files :
_ WF disk file :   1134.038 Mbytes ; DEN or POT disk file :      7.631 Mbytes.
================================================================================


 DATASET    5 : space group I4 m m (#107); Bravais tI (body-center tetrag.)
================================================================================
 Values of the parameters that define the memory need for DATASET  5.
     intxc =       0    ionmov =       0      iscf =      17    lmnmax =      18
     lnmax =       6     mgfft =      64  mpssoang =       3    mqgrid =    3973
     natom =       9  nloc_mem =       2    nspden =       1   nspinor =       1
    nsppol =       1      nsym =       8    n1xccc =       1    ntypat =       4
    occopt =       1   xclevel =       2
-    mband =          42        mffmem =           1         mkmem =          28
       mpw =       10828          nfft =      262144          nkpt =         163
Pmy_natom=         2
 PAW method is used; the additional fine FFT grid is defined by:
   mgfftf=       100    nfftf =   1000000
================================================================================
P This job should need less than                     501.450 Mbytes of memory.
  Rough estimation (10% accuracy) of disk space for files :
_ WF disk file :   1131.113 Mbytes ; DEN or POT disk file :      7.631 Mbytes.
================================================================================


 DATASET    6 : space group I4 m m (#107); Bravais tI (body-center tetrag.)
================================================================================
 Values of the parameters that define the memory need for DATASET  6.
     intxc =       0    ionmov =       0      iscf =      17    lmnmax =      18
     lnmax =       6     mgfft =      64  mpssoang =       3    mqgrid =    3969
     natom =       9  nloc_mem =       2    nspden =       1   nspinor =       1
    nsppol =       1      nsym =       8    n1xccc =       1    ntypat =       4
    occopt =       1   xclevel =       2
-    mband =          42        mffmem =           1         mkmem =          28
       mpw =       10790          nfft =      262144          nkpt =         163
Pmy_natom=         2
 PAW method is used; the additional fine FFT grid is defined by:
   mgfftf=       100    nfftf =   1000000
================================================================================
P This job should need less than                     500.700 Mbytes of memory.
  Rough estimation (10% accuracy) of disk space for files :
_ WF disk file :   1127.143 Mbytes ; DEN or POT disk file :      7.631 Mbytes.
================================================================================


 DATASET    7 : space group I4 m m (#107); Bravais tI (body-center tetrag.)
================================================================================
 Values of the parameters that define the memory need for DATASET  7.
     intxc =       0    ionmov =       0      iscf =      17    lmnmax =      18
     lnmax =       6     mgfft =      64  mpssoang =       3    mqgrid =    3965
     natom =       9  nloc_mem =       2    nspden =       1   nspinor =       1
    nsppol =       1      nsym =       8    n1xccc =       1    ntypat =       4
    occopt =       1   xclevel =       2
-    mband =          42        mffmem =           1         mkmem =          28
       mpw =       10764          nfft =      262144          nkpt =         163
Pmy_natom=         2
 PAW method is used; the additional fine FFT grid is defined by:
   mgfftf=       100    nfftf =   1000000
================================================================================
P This job should need less than                     500.191 Mbytes of memory.
  Rough estimation (10% accuracy) of disk space for files :
_ WF disk file :   1124.427 Mbytes ; DEN or POT disk file :      7.631 Mbytes.
================================================================================


 DATASET    8 : space group I4 m m (#107); Bravais tI (body-center tetrag.)
================================================================================
 Values of the parameters that define the memory need for DATASET  8.
     intxc =       0    ionmov =       0      iscf =      17    lmnmax =      18
     lnmax =       6     mgfft =      64  mpssoang =       3    mqgrid =    3961
     natom =       9  nloc_mem =       2    nspden =       1   nspinor =       1
    nsppol =       1      nsym =       8    n1xccc =       1    ntypat =       4
    occopt =       1   xclevel =       2
-    mband =          42        mffmem =           1         mkmem =          28
       mpw =       10728          nfft =      262144          nkpt =         163
Pmy_natom=         2
 PAW method is used; the additional fine FFT grid is defined by:
   mgfftf=       100    nfftf =   1000000
================================================================================
P This job should need less than                     499.481 Mbytes of memory.
  Rough estimation (10% accuracy) of disk space for files :
_ WF disk file :   1120.667 Mbytes ; DEN or POT disk file :      7.631 Mbytes.
================================================================================


 DATASET    9 : space group I4 m m (#107); Bravais tI (body-center tetrag.)
================================================================================
 Values of the parameters that define the memory need for DATASET  9.
     intxc =       0    ionmov =       0      iscf =      17    lmnmax =      18
     lnmax =       6     mgfft =      64  mpssoang =       3    mqgrid =    3957
     natom =       9  nloc_mem =       2    nspden =       1   nspinor =       1
    nsppol =       1      nsym =       8    n1xccc =       1    ntypat =       4
    occopt =       1   xclevel =       2
-    mband =          42        mffmem =           1         mkmem =          28
       mpw =       10720          nfft =      262144          nkpt =         163
Pmy_natom=         2
 PAW method is used; the additional fine FFT grid is defined by:
   mgfftf=       100    nfftf =   1000000
================================================================================
P This job should need less than                     499.336 Mbytes of memory.
  Rough estimation (10% accuracy) of disk space for files :
_ WF disk file :   1119.831 Mbytes ; DEN or POT disk file :      7.631 Mbytes.
================================================================================


 DATASET   10 : space group I4 m m (#107); Bravais tI (body-center tetrag.)
================================================================================
 Values of the parameters that define the memory need for DATASET 10.
     intxc =       0    ionmov =       0      iscf =      17    lmnmax =      18
     lnmax =       6     mgfft =      64  mpssoang =       3    mqgrid =    3953
     natom =       9  nloc_mem =       2    nspden =       1   nspinor =       1
    nsppol =       1      nsym =       8    n1xccc =       1    ntypat =       4
    occopt =       1   xclevel =       2
-    mband =          42        mffmem =           1         mkmem =          28
       mpw =       10668          nfft =      262144          nkpt =         163
Pmy_natom=         2
 PAW method is used; the additional fine FFT grid is defined by:
   mgfftf=       100    nfftf =   1000000
================================================================================
P This job should need less than                     498.303 Mbytes of memory.
  Rough estimation (10% accuracy) of disk space for files :
_ WF disk file :   1114.399 Mbytes ; DEN or POT disk file :      7.631 Mbytes.
================================================================================

--------------------------------------------------------------------------------
------------- Echo of variables that govern the present computation ------------
--------------------------------------------------------------------------------
-
- outvars: echo of selected default values                                      
-   iomode0 =  0 , fftalg0 =112 , wfoptalg0 = 10
-
- outvars: echo of global parameters not present in the input file              
-  max_nthreads =    0
-
 -outvars: echo values of preprocessed input variables --------
            acell1     1.4854096076E+01  1.5064252337E+01  1.4854096076E+01 Bohr
            acell2     1.4839128794E+01  1.5049391079E+01  1.4839128794E+01 Bohr
            acell3     1.4824117981E+01  1.5034626441E+01  1.4824117981E+01 Bohr
            acell4     1.4808957113E+01  1.5020194939E+01  1.4808957113E+01 Bohr
            acell5     1.4793450287E+01  1.5006532335E+01  1.4793450287E+01 Bohr
            acell6     1.4777747762E+01  1.4993306676E+01  1.4777747762E+01 Bohr
            acell7     1.4762460915E+01  1.4979157619E+01  1.4762460915E+01 Bohr
            acell8     1.4747209083E+01  1.4964931196E+01  1.4747209083E+01 Bohr
            acell9     1.4731976284E+01  1.4950662892E+01  1.4731976284E+01 Bohr
            acell10    1.4716738496E+01  1.4936406227E+01  1.4716738496E+01 Bohr
              amu      1.32905430E+02  1.26904470E+02  1.78490000E+02
                       3.54527000E+01
           diemac      1.20000000E+01
          dilatmx      1.15000000E+00
             ecut      1.60000000E+01 Hartree
           ecutsm      5.00000000E-01 Hartree
-          fftalg         112
           istwfk        2    0    0    0    0    0    3    0    0    0
                         0    0    0    0    0    0    0    0    0    0
                         0    0    0    0    0    0    0    0    0    0
                         0    0    0    0    0    0    0    0    0    0
                         0    0    7    0    0    0    0    0    0    0
                       outvar_i_n : Printing only first  50 k-points.
              ixc     -101130
           jdtset        1    2    3    4    5    6    7    8    9   10
              kpt      0.00000000E+00  0.00000000E+00  0.00000000E+00
                       8.33333333E-02  0.00000000E+00  0.00000000E+00
                       1.66666667E-01  0.00000000E+00  0.00000000E+00
                       2.50000000E-01  0.00000000E+00  0.00000000E+00
                       3.33333333E-01  0.00000000E+00  0.00000000E+00
                       4.16666667E-01  0.00000000E+00  0.00000000E+00
                       5.00000000E-01  0.00000000E+00  0.00000000E+00
                       8.33333333E-02  8.33333333E-02  0.00000000E+00
                       1.66666667E-01  8.33333333E-02  0.00000000E+00
                       2.50000000E-01  8.33333333E-02  0.00000000E+00
                       3.33333333E-01  8.33333333E-02  0.00000000E+00
                       4.16666667E-01  8.33333333E-02  0.00000000E+00
                       5.00000000E-01  8.33333333E-02  0.00000000E+00
                      -4.16666667E-01  8.33333333E-02  0.00000000E+00
                      -3.33333333E-01  8.33333333E-02  0.00000000E+00
                      -2.50000000E-01  8.33333333E-02  0.00000000E+00
                      -1.66666667E-01  8.33333333E-02  0.00000000E+00
                      -8.33333333E-02  8.33333333E-02  0.00000000E+00
                       1.66666667E-01  1.66666667E-01  0.00000000E+00
                       2.50000000E-01  1.66666667E-01  0.00000000E+00
                       3.33333333E-01  1.66666667E-01  0.00000000E+00
                       4.16666667E-01  1.66666667E-01  0.00000000E+00
                       5.00000000E-01  1.66666667E-01  0.00000000E+00
                      -4.16666667E-01  1.66666667E-01  0.00000000E+00
                      -3.33333333E-01  1.66666667E-01  0.00000000E+00
                      -2.50000000E-01  1.66666667E-01  0.00000000E+00
                      -1.66666667E-01  1.66666667E-01  0.00000000E+00
                       2.50000000E-01  2.50000000E-01  0.00000000E+00
                       3.33333333E-01  2.50000000E-01  0.00000000E+00
                       4.16666667E-01  2.50000000E-01  0.00000000E+00
                       5.00000000E-01  2.50000000E-01  0.00000000E+00
                      -4.16666667E-01  2.50000000E-01  0.00000000E+00
                      -3.33333333E-01  2.50000000E-01  0.00000000E+00
                      -2.50000000E-01  2.50000000E-01  0.00000000E+00
                       3.33333333E-01  3.33333333E-01  0.00000000E+00
                       4.16666667E-01  3.33333333E-01  0.00000000E+00
                       5.00000000E-01  3.33333333E-01  0.00000000E+00
                      -4.16666667E-01  3.33333333E-01  0.00000000E+00
                      -3.33333333E-01  3.33333333E-01  0.00000000E+00
                       4.16666667E-01  4.16666667E-01  0.00000000E+00
                       5.00000000E-01  4.16666667E-01  0.00000000E+00
                      -4.16666667E-01  4.16666667E-01  0.00000000E+00
                       5.00000000E-01  5.00000000E-01  0.00000000E+00
                       8.33333333E-02  0.00000000E+00  8.33333333E-02
                       1.66666667E-01  0.00000000E+00  8.33333333E-02
                       2.50000000E-01  0.00000000E+00  8.33333333E-02
                       3.33333333E-01  0.00000000E+00  8.33333333E-02
                       4.16666667E-01  0.00000000E+00  8.33333333E-02
                       5.00000000E-01  0.00000000E+00  8.33333333E-02
                      -4.16666667E-01  0.00000000E+00  8.33333333E-02
                       outvar_i_n : Printing only first  50 k-points.
         kptrlatt       12    0    0      0   12    0      0    0   12
          kptrlen1     1.78249153E+02
          kptrlen2     1.78069546E+02
          kptrlen3     1.77889416E+02
          kptrlen4     1.77707485E+02
          kptrlen5     1.77521403E+02
          kptrlen6     1.77332973E+02
          kptrlen7     1.77149531E+02
          kptrlen8     1.76966509E+02
          kptrlen9     1.76783715E+02
          kptrlen10    1.76600862E+02
P           mkmem          28
            natom           9
            nband          42
           ndtset          10
            ngfft          64      64      64
          ngfftdg         100     100     100
             nkpt         163
            nstep        2500
             nsym           8
           ntypat           4
              occ      2.000000  2.000000  2.000000  2.000000  2.000000  2.000000
                       2.000000  2.000000  2.000000  2.000000  2.000000  2.000000
                       2.000000  2.000000  2.000000  2.000000  2.000000  2.000000
                       2.000000  2.000000  2.000000  2.000000  2.000000  2.000000
                       2.000000  2.000000  2.000000  2.000000  2.000000  2.000000
                       2.000000  2.000000  2.000000  2.000000  2.000000  2.000000
                       0.000000  0.000000  0.000000  0.000000  0.000000  0.000000
        pawecutdg      4.00000000E+01 Hartree
            prtwf           0
            rprim1     0.0000000000E+00  6.9695902478E-01  7.1711095221E-01
                       7.0710678119E-01  0.0000000000E+00  7.0710678119E-01
                       7.1711095221E-01  6.9695902478E-01  0.0000000000E+00
            rprim2     0.0000000000E+00  6.9694344384E-01  7.1712609497E-01
                       7.0710678119E-01  0.0000000000E+00  7.0710678119E-01
                       7.1712609497E-01  6.9694344384E-01  0.0000000000E+00
            rprim3     0.0000000000E+00  6.9692092129E-01  7.1714798296E-01
                       7.0710678119E-01  0.0000000000E+00  7.0710678119E-01
                       7.1714798296E-01  6.9692092129E-01  0.0000000000E+00
            rprim4     0.0000000000E+00  6.9687450314E-01  7.1719308897E-01
                       7.0710678119E-01  0.0000000000E+00  7.0710678119E-01
                       7.1719308897E-01  6.9687450314E-01  0.0000000000E+00
            rprim5     0.0000000000E+00  6.9677288626E-01  7.1729181298E-01
                       7.0710678119E-01  0.0000000000E+00  7.0710678119E-01
                       7.1729181298E-01  6.9677288626E-01  0.0000000000E+00
            rprim6     0.0000000000E+00  6.9663971367E-01  7.1742115200E-01
                       7.0710678119E-01  0.0000000000E+00  7.0710678119E-01
                       7.1742115200E-01  6.9663971367E-01  0.0000000000E+00
            rprim7     0.0000000000E+00  6.9657258328E-01  7.1748633173E-01
                       7.0710678119E-01  0.0000000000E+00  7.0710678119E-01
                       7.1748633173E-01  6.9657258328E-01  0.0000000000E+00
            rprim8     0.0000000000E+00  6.9651087798E-01  7.1754623325E-01
                       7.0710678119E-01  0.0000000000E+00  7.0710678119E-01
                       7.1754623325E-01  6.9651087798E-01  0.0000000000E+00
            rprim9     0.0000000000E+00  6.9645206073E-01  7.1760332156E-01
                       7.0710678119E-01  0.0000000000E+00  7.0710678119E-01
                       7.1760332156E-01  6.9645206073E-01  0.0000000000E+00
            rprim10    0.0000000000E+00  6.9639228502E-01  7.1766133054E-01
                       7.0710678119E-01  0.0000000000E+00  7.0710678119E-01
                       7.1766133054E-01  6.9639228502E-01  0.0000000000E+00
          spgroup         107
           symrel      1  0  0   0  1  0   0  0  1       0  0  1   0  1  0   1  0  0
                       0 -1  1   0 -1  0   1 -1  0       1 -1  0   0 -1  0   0 -1  1
                       0 -1  1  -1  0  1   0  0  1       0  0  1  -1  0  1   0 -1  1
                       1  0  0   1  0 -1   1 -1  0       1 -1  0   1  0 -1   1  0  0
           toldfe      1.00000000E-08 Hartree
            typat      1  1  4  2  2  2  2  2  3
           useylm           1
              wtk        0.00058    0.00463    0.00463    0.00463    0.00463    0.00463
                         0.00231    0.00231    0.00926    0.00926    0.00926    0.00926
                         0.00926    0.00926    0.00926    0.00926    0.00926    0.00463
                         0.00231    0.00926    0.00926    0.00926    0.00926    0.00926
                         0.00926    0.00926    0.00463    0.00231    0.00926    0.00926
                         0.00926    0.00926    0.00926    0.00463    0.00231    0.00926
                         0.00926    0.00926    0.00463    0.00231    0.00926    0.00463
                         0.00116    0.00116    0.00463    0.00463    0.00463    0.00463
                         0.00463    0.00463
                       outvars : Printing only first  50 k-points.
           xangst1     2.8184070686E+00  2.7244951388E+00  2.8184070686E+00
                       8.4552212057E+00  8.2029060762E+00  8.4552212057E+00
                       5.6368141372E+00  8.4441539202E+00  5.6368141372E+00
                       5.6368141372E+00  5.4715835489E+00  2.8362002250E+00
                       5.6368141371E+00  5.4715835489E+00  8.4374280493E+00
                       5.6368141371E+00  2.7423756387E+00  5.6368141371E+00
                       8.4374280493E+00  5.4715835489E+00  5.6368141371E+00
                       2.8362002250E+00  5.4715835489E+00  5.6368141372E+00
                      -1.0627455094E-12 -9.6014791904E-02 -1.0627455094E-12
           xangst2     2.8156266402E+00  2.7218408844E+00  2.8156266402E+00
                       8.4468799205E+00  8.1946093164E+00  8.4468799205E+00
                       5.6312532804E+00  8.4325476197E+00  5.6312532804E+00
                       5.6312532804E+00  5.4663657015E+00  2.8352818083E+00
                       5.6312532803E+00  5.4663657015E+00  8.4272247524E+00
                       5.6312532803E+00  2.7410502116E+00  5.6312532803E+00
                       8.4272247524E+00  5.4663657015E+00  5.6312532803E+00
                       2.8352818083E+00  5.4663657015E+00  5.6312532804E+00
                      -2.6547825715E-13 -9.6479971428E-02 -2.6547825715E-13
           xangst3     2.8128642887E+00  2.7190496306E+00  2.8128642887E+00
                       8.4385928660E+00  8.1861052959E+00  8.4385928660E+00
                       5.6257285774E+00  8.4207903463E+00  5.6257285774E+00
                       5.6257285774E+00  5.4611028998E+00  2.8343576727E+00
                       5.6257285773E+00  5.4611028998E+00  8.4170994820E+00
                       5.6257285773E+00  2.7397426972E+00  5.6257285773E+00
                       8.4170994820E+00  5.4611028998E+00  5.6257285773E+00
                       2.8343576727E+00  5.4611028998E+00  5.6257285774E+00
                      -6.8265566290E-13 -9.6851091688E-02 -6.8265566290E-13
           xangst4     2.8101642644E+00  2.7163646456E+00  2.8101642644E+00
                       8.4304927932E+00  8.1774653048E+00  8.4304927932E+00
                       5.6203285288E+00  8.4084031069E+00  5.6203285288E+00
                       5.6203285288E+00  5.4556329342E+00  2.8334093817E+00
                       5.6203285288E+00  5.4556329342E+00  8.4072476759E+00
                       5.6203285288E+00  2.7382502680E+00  5.6203285288E+00
                       8.4072476759E+00  5.4556329342E+00  5.6203285288E+00
                       2.8334093817E+00  5.4556329342E+00  5.6203285288E+00
                      -6.3343470146E-13 -9.7490290692E-02 -6.3343470146E-13
           xangst5     2.8076080951E+00  2.7137387506E+00  2.8076080951E+00
                       8.4228242853E+00  8.1683254628E+00  8.4228242853E+00
                       5.6152161902E+00  8.3949536378E+00  5.6152161902E+00
                       5.6152161902E+00  5.4494433909E+00  2.8325189580E+00
                       5.6152161901E+00  5.4494433909E+00  8.3979134224E+00
                       5.6152161901E+00  2.7366195367E+00  5.6152161901E+00
                       8.3979134224E+00  5.4494433909E+00  5.6152161901E+00
                       2.8325189580E+00  5.4494433909E+00  5.6152161902E+00
                      -1.7425358168E-12 -9.8089266464E-02 -1.7425358168E-12
           xangst6     2.8051336749E+00  2.7107903590E+00  2.8051336749E+00
                       8.4154010246E+00  8.1585458779E+00  8.4154010246E+00
                       5.6102673498E+00  8.3807008094E+00  5.6102673498E+00
                       5.6102673498E+00  5.4431011074E+00  2.8316149730E+00
                       5.6102673497E+00  5.4431011074E+00  8.3889197265E+00
                       5.6102673497E+00  2.7349696952E+00  5.6102673497E+00
                       8.3889197265E+00  5.4431011074E+00  5.6102673497E+00
                       2.8316149730E+00  5.4431011074E+00  5.6102673498E+00
                      -1.5291844849E-12 -9.8834999997E-02 -1.5291844849E-12
           xangst7     2.8024864939E+00  2.7076114639E+00  2.8024864939E+00
                       8.4074594816E+00  8.1492071302E+00  8.4074594816E+00
                       5.6049729878E+00  8.3681875555E+00  5.6049729878E+00
                       5.6049729878E+00  5.4374208401E+00  2.8306801483E+00
                       5.6049729877E+00  5.4374208401E+00  8.3792658272E+00
                       5.6049729877E+00  2.7336411002E+00  5.6049729877E+00
                       8.3792658272E+00  5.4374208401E+00  5.6049729877E+00
                       2.8306801483E+00  5.4374208401E+00  5.6049729878E+00
                      -1.4559549906E-12 -9.9119795809E-02 -1.4559549906E-12
           xangst8     2.7998248382E+00  2.7048382995E+00  2.7998248382E+00
                       8.3994745147E+00  8.1403304417E+00  8.3994745147E+00
                       5.5996496764E+00  8.3555639598E+00  5.5996496764E+00
                       5.5996496764E+00  5.4317971713E+00  2.8297151387E+00
                       5.5996496765E+00  5.4317971713E+00  8.3695842142E+00
                       5.5996496765E+00  2.7320971769E+00  5.5996496765E+00
                       8.3695842142E+00  5.4317971713E+00  5.5996496765E+00
                       2.8297151387E+00  5.4317971713E+00  5.5996496764E+00
                       1.3423902583E-12 -9.9721686205E-02  1.3423902583E-12
           xangst9     2.7971553471E+00  2.7023481329E+00  2.7971553471E+00
                       8.3914660414E+00  8.1317672762E+00  8.3914660414E+00
                       5.5943106943E+00  8.3428178481E+00  5.5943106943E+00
                       5.5943106943E+00  5.4261716413E+00  2.8287385780E+00
                       5.5943106942E+00  5.4261716413E+00  8.3598828105E+00
                       5.5943106942E+00  2.7304493620E+00  5.5943106942E+00
                       8.3598828105E+00  5.4261716413E+00  5.5943106942E+00
                       2.8287385780E+00  5.4261716413E+00  5.5943106943E+00
                      -1.5792844924E-12 -1.0044161308E-01 -1.5792844924E-12
           xangst10    2.7944880335E+00  2.6994294848E+00  2.7944880335E+00
                       8.3834641006E+00  8.1227672748E+00  8.3834641006E+00
                       5.5889760671E+00  8.3303516234E+00  5.5889760671E+00
                       5.5889760671E+00  5.4205521199E+00  2.8277736230E+00
                       5.5889760670E+00  5.4205521199E+00  8.3501785111E+00
                       5.5889760670E+00  2.7290072406E+00  5.5889760670E+00
                       8.3501785111E+00  5.4205521199E+00  5.5889760670E+00
                       2.8277736230E+00  5.4205521199E+00  5.5889760671E+00
                      -2.6001906790E-12 -1.0087279203E-01 -2.6001906790E-12
            xcart1     5.3260174906E+00  5.1485496627E+00  5.3260174906E+00
                       1.5978052472E+01  1.5501245978E+01  1.5978052472E+01
                       1.0652034981E+01  1.5957138333E+01  1.0652034981E+01
                       1.0652034981E+01  1.0339794421E+01  5.3596416832E+00
                       1.0652034981E+01  1.0339794421E+01  1.5944428279E+01
                       1.0652034981E+01  5.1823389107E+00  1.0652034981E+01
                       1.5944428279E+01  1.0339794421E+01  1.0652034981E+01
                       5.3596416832E+00  1.0339794421E+01  1.0652034981E+01
                      -2.0082979616E-12 -1.8144166140E-01 -2.0082979616E-12
            xcart2     5.3207632424E+00  5.1435338487E+00  5.3207632424E+00
                       1.5962289727E+01  1.5485567374E+01  1.5962289727E+01
                       1.0641526485E+01  1.5935205604E+01  1.0641526485E+01
                       1.0641526485E+01  1.0329934118E+01  5.3579061272E+00
                       1.0641526485E+01  1.0329934118E+01  1.5925146842E+01
                       1.0641526485E+01  5.1798342164E+00  1.0641526485E+01
                       1.5925146842E+01  1.0329934118E+01  1.0641526485E+01
                       5.3579061272E+00  1.0329934118E+01  1.0641526485E+01
                      -5.0168120025E-13 -1.8232072331E-01 -5.0168120025E-13
            xcart3     5.3155431546E+00  5.1382591436E+00  5.3155431546E+00
                       1.5946629464E+01  1.5469497104E+01  1.5946629464E+01
                       1.0631086309E+01  1.5912987577E+01  1.0631086309E+01
                       1.0631086309E+01  1.0319988864E+01  5.3561597640E+00
                       1.0631086309E+01  1.0319988864E+01  1.5906012854E+01
                       1.0631086309E+01  5.1773633723E+00  1.0631086309E+01
                       1.5906012854E+01  1.0319988864E+01  1.0631086309E+01
                       5.3561597640E+00  1.0319988864E+01  1.0631086309E+01
                      -1.2900322459E-12 -1.8302203896E-01 -1.2900322459E-12
            xcart4     5.3104408481E+00  5.1331852572E+00  5.3104408481E+00
                       1.5931322544E+01  1.5453169887E+01  1.5931322544E+01
                       1.0620881696E+01  1.5889579087E+01  1.0620881696E+01
                       1.0620881696E+01  1.0309652127E+01  5.3543677537E+00
                       1.0620881696E+01  1.0309652127E+01  1.5887395639E+01
                       1.0620881696E+01  5.1745430899E+00  1.0620881696E+01
                       1.5887395639E+01  1.0309652127E+01  1.0620881696E+01
                       5.3543677537E+00  1.0309652127E+01  1.0620881696E+01
                      -1.1970181088E-12 -1.8422995002E-01 -1.1970181088E-12
            xcart5     5.3056103882E+00  5.1282230348E+00  5.3056103882E+00
                       1.5916831165E+01  1.5435898089E+01  1.5916831165E+01
                       1.0611220777E+01  1.5864163274E+01  1.0611220777E+01
                       1.0611220776E+01  1.0297955585E+01  5.3526850968E+00
                       1.0611220776E+01  1.0297955585E+01  1.5869756456E+01
                       1.0611220776E+01  5.1714614543E+00  1.0611220776E+01
                       1.5869756456E+01  1.0297955585E+01  1.0611220776E+01
                       5.3526850968E+00  1.0297955585E+01  1.0611220776E+01
                      -3.2929154705E-12 -1.8536185019E-01 -3.2929154705E-12
            xcart6     5.3009344116E+00  5.1226513822E+00  5.3009344116E+00
                       1.5902803235E+01  1.5417417352E+01  1.5902803235E+01
                       1.0601868823E+01  1.5837229331E+01  1.0601868823E+01
                       1.0601868823E+01  1.0285970407E+01  5.3509768127E+00
                       1.0601868823E+01  1.0285970407E+01  1.5852760834E+01
                       1.0601868823E+01  5.1683437056E+00  1.0601868823E+01
                       1.5852760834E+01  1.0285970407E+01  1.0601868823E+01
                       5.3509768127E+00  1.0285970407E+01  1.0601868823E+01
                      -2.8897398832E-12 -1.8677108234E-01 -2.8897398832E-12
            xcart7     5.2959319645E+00  5.1166441410E+00  5.2959319645E+00
                       1.5887795894E+01  1.5399769676E+01  1.5887795894E+01
                       1.0591863929E+01  1.5813582708E+01  1.0591863929E+01
                       1.0591863929E+01  1.0275236257E+01  5.3492102501E+00
                       1.0591863929E+01  1.0275236257E+01  1.5834517608E+01
                       1.0591863929E+01  5.1658330249E+00  1.0591863929E+01
                       1.5834517608E+01  1.0275236257E+01  1.0591863929E+01
                       5.3492102501E+00  1.0275236257E+01  1.0591863929E+01
                      -2.7513561941E-12 -1.8730926843E-01 -2.7513561941E-12
            xcart8     5.2909021643E+00  5.1114036198E+00  5.2909021643E+00
                       1.5872706493E+01  1.5382995166E+01  1.5872706493E+01
                       1.0581804329E+01  1.5789727570E+01  1.0581804329E+01
                       1.0581804329E+01  1.0264609063E+01  5.3473866463E+00
                       1.0581804329E+01  1.0264609063E+01  1.5816222011E+01
                       1.0581804329E+01  5.1629154328E+00  1.0581804329E+01
                       1.5816222011E+01  1.0264609063E+01  1.0581804329E+01
                       5.3473866463E+00  1.0264609063E+01  1.0581804329E+01
                       2.5367499517E-12 -1.8844667644E-01  2.5367499517E-12
            xcart9     5.2858575572E+00  5.1066978868E+00  5.2858575572E+00
                       1.5857572672E+01  1.5366813128E+01  1.5857572672E+01
                       1.0571715114E+01  1.5765640909E+01  1.0571715114E+01
                       1.0571715114E+01  1.0253978352E+01  5.3455412140E+00
                       1.0571715114E+01  1.0253978352E+01  1.5797889015E+01
                       1.0571715114E+01  5.1598015139E+00  1.0571715114E+01
                       1.5797889015E+01  1.0253978352E+01  1.0571715114E+01
                       5.3455412140E+00  1.0253978352E+01  1.0571715114E+01
                      -2.9844151765E-12 -1.8980714107E-01 -2.9844151765E-12
            xcart10    5.2808170650E+00  5.1011824413E+00  5.2808170650E+00
                       1.5842451195E+01  1.5349805591E+01  1.5842451195E+01
                       1.0561634130E+01  1.5742083159E+01  1.0561634130E+01
                       1.0561634130E+01  1.0243358996E+01  5.3437177133E+00
                       1.0561634130E+01  1.0243358996E+01  1.5779550547E+01
                       1.0561634130E+01  5.1570762995E+00  1.0561634130E+01
                       1.5779550547E+01  1.0243358996E+01  1.0561634130E+01
                       5.3437177133E+00  1.0243358996E+01  1.0561634130E+01
                      -4.9136482765E-12 -1.9062195119E-01 -4.9136482765E-12
             xred1     2.4865742730E-01  2.5134257270E-01  2.4865742730E-01
                       7.4865742730E-01  7.5134257270E-01  7.4865742730E-01
                       7.7067547658E-01  2.2932452342E-01  7.7067547658E-01
                       2.5095518142E-01  2.5220141661E-01  7.4779858339E-01
                       7.4779858339E-01  7.4904481858E-01  2.5095518142E-01
                       2.5028933299E-01  7.4971066701E-01  2.5028933299E-01
                       2.5095518142E-01  7.4904481858E-01  7.4779858339E-01
                       7.4779858339E-01  2.5220141661E-01  2.5095518142E-01
                      -8.7630147684E-03  8.7630147684E-03 -8.7630147684E-03
             xred2     2.4867130029E-01  2.5132869971E-01  2.4867130029E-01
                       7.4867130029E-01  7.5132869971E-01  7.4867130029E-01
                       7.7040968610E-01  2.2959031390E-01  7.7040968610E-01
                       2.5116022326E-01  2.5233014862E-01  7.4766985138E-01
                       7.4766985138E-01  7.4883977674E-01  2.5116022326E-01
                       2.5042629207E-01  7.4957370793E-01  2.5042629207E-01
                       2.5116022326E-01  7.4883977674E-01  7.4766985138E-01
                       7.4766985138E-01  2.5233014862E-01  2.5116022326E-01
                      -8.8145490373E-03  8.8145490373E-03 -8.8145490373E-03
             xred3     2.4867586843E-01  2.5132413157E-01  2.4867586843E-01
                       7.4867586843E-01  7.5132413157E-01  7.4867586843E-01
                       7.7013943719E-01  2.2986056281E-01  7.7013943719E-01
                       2.5136585408E-01  2.5245469711E-01  7.4754530289E-01
                       7.4754530289E-01  7.4863414592E-01  2.5136585408E-01
                       2.5056839229E-01  7.4943160771E-01  2.5056839229E-01
                       2.5136585408E-01  7.4863414592E-01  7.4754530289E-01
                       7.4754530289E-01  2.5245469711E-01  2.5136585408E-01
                      -8.8577012580E-03  8.8577012580E-03 -8.8577012580E-03
             xred4     2.4870120650E-01  2.5129879350E-01  2.4870120650E-01
                       7.4870120650E-01  7.5129879350E-01  7.4870120650E-01
                       7.6984509456E-01  2.3015490544E-01  7.6984509456E-01
                       2.5156734354E-01  2.5256855655E-01  7.4743144345E-01
                       7.4743144345E-01  7.4843265646E-01  2.5156734354E-01
                       2.5070498045E-01  7.4929501955E-01  2.5070498045E-01
                       2.5156734354E-01  7.4843265646E-01  7.4743144345E-01
                       7.4743144345E-01  2.5256855655E-01  2.5156734354E-01
                      -8.9258829652E-03  8.9258829652E-03 -8.9258829652E-03
             xred5     2.4875750389E-01  2.5124249611E-01  2.4875750389E-01
                       7.4875750389E-01  7.5124249611E-01  7.4875750389E-01
                       7.6953159613E-01  2.3046840387E-01  7.6953159613E-01
                       2.5174668950E-01  2.5268962462E-01  7.4731037538E-01
                       7.4731037538E-01  7.4825331050E-01  2.5174668950E-01
                       2.5085489342E-01  7.4914510658E-01  2.5085489342E-01
                       2.5174668950E-01  7.4825331050E-01  7.4731037538E-01
                       7.4731037538E-01  2.5268962462E-01  2.5174668950E-01
                      -8.9914480820E-03  8.9914480820E-03 -8.9914480820E-03
             xred6     2.4879882638E-01  2.5120117362E-01  2.4879882638E-01
                       7.4879882638E-01  7.5120117362E-01  7.4879882638E-01
                       7.6918840983E-01  2.3081159017E-01  7.6918840983E-01
                       2.5193288837E-01  2.5278726068E-01  7.4721273932E-01
                       7.4721273932E-01  7.4806711163E-01  2.5193288837E-01
                       2.5101802804E-01  7.4898197196E-01  2.5101802804E-01
                       2.5193288837E-01  7.4806711163E-01  7.4721273932E-01
                       7.4721273932E-01  2.5278726068E-01  2.5193288837E-01
                      -9.0711669838E-03  9.0711669838E-03 -9.0711669838E-03
             xred7     2.4878837293E-01  2.5121162707E-01  2.4878837293E-01
                       7.4878837293E-01  7.5121162707E-01  7.4878837293E-01
                       7.6890934835E-01  2.3109065165E-01  7.6890934835E-01
                       2.5213145400E-01  2.5289866024E-01  7.4710133976E-01
                       7.4710133976E-01  7.4786854600E-01  2.5213145400E-01
                       2.5118010119E-01  7.4881989881E-01  2.5118010119E-01
                       2.5213145400E-01  7.4786854600E-01  7.4710133976E-01
                       7.4710133976E-01  2.5289866024E-01  2.5213145400E-01
                      -9.1076038986E-03  9.1076038986E-03 -9.1076038986E-03
             xred8     2.4881264003E-01  2.5118735997E-01  2.4881264003E-01
                       7.4881264003E-01  7.5118735997E-01  7.4881264003E-01
                       7.6861153887E-01  2.3138846113E-01  7.6861153887E-01
                       2.5232905085E-01  2.5300883674E-01  7.4699116326E-01
                       7.4699116326E-01  7.4767094915E-01  2.5232905085E-01
                       2.5132012939E-01  7.4867987061E-01  2.5132012939E-01
                       2.5232905085E-01  7.4767094915E-01  7.4699116326E-01
                       7.4699116326E-01  2.5300883674E-01  2.5232905085E-01
                      -9.1731975318E-03  9.1731975318E-03 -9.1731975318E-03
             xred9     2.4886162419E-01  2.5113837581E-01  2.4886162419E-01
                       7.4886162419E-01  7.5113837581E-01  7.4886162419E-01
                       7.6829745759E-01  2.3170254241E-01  7.6829745759E-01
                       2.5252373381E-01  2.5312186448E-01  7.4687813552E-01
                       7.4687813552E-01  7.4747626619E-01  2.5252373381E-01
                       2.5144949118E-01  7.4855050882E-01  2.5144949118E-01
                       2.5252373381E-01  7.4747626619E-01  7.4687813552E-01
                       7.4687813552E-01  2.5312186448E-01  2.5252373381E-01
                      -9.2497567814E-03  9.2497567814E-03 -9.2497567814E-03
             xred10    2.4887159802E-01  2.5112840198E-01  2.4887159802E-01
                       7.4887159802E-01  7.5112840198E-01  7.4887159802E-01
                       7.6800965991E-01  2.3199034009E-01  7.6800965991E-01
                       2.5272096711E-01  2.5323461207E-01  7.4676538793E-01
                       7.4676538793E-01  7.4727903289E-01  2.5272096711E-01
                       2.5159849398E-01  7.4840150602E-01  2.5159849398E-01
                       2.5272096711E-01  7.4727903289E-01  7.4676538793E-01
                       7.4676538793E-01  2.5323461207E-01  2.5272096711E-01
                      -9.2998809895E-03  9.2998809895E-03 -9.2998809895E-03
            znucl       55.00000   53.00000   72.00000   17.00000

================================================================================

 chkinp: Checking input parameters for consistency, jdtset=   1.

 chkinp: Checking input parameters for consistency, jdtset=   2.

 chkinp: Checking input parameters for consistency, jdtset=   3.

 chkinp: Checking input parameters for consistency, jdtset=   4.

 chkinp: Checking input parameters for consistency, jdtset=   5.

 chkinp: Checking input parameters for consistency, jdtset=   6.

 chkinp: Checking input parameters for consistency, jdtset=   7.

 chkinp: Checking input parameters for consistency, jdtset=   8.

 chkinp: Checking input parameters for consistency, jdtset=   9.

 chkinp: Checking input parameters for consistency, jdtset=  10.

================================================================================
== DATASET  1 ==================================================================
-   mpi_nproc: 6, omp_nthreads: -1 (-1 if OMP is not activated)


--- !DatasetInfo
iteration_state: {dtset: 1, }
dimensions: {natom: 9, nkpt: 163, mband: 42, nsppol: 1, nspinor: 1, nspden: 1, mpw: 10959, }
cutoff_energies: {ecut:  16.0, pawecutdg:  40.0, }
electrons: {nelect:   7.20000000E+01, charge:   0.00000000E+00, occopt:   1.00000000E+00, tsmear:   1.00000000E-02, }
meta: {optdriver: 0, ionmov: 0, optcell: 0, iscf: 17, paral_kgb: 0, }
...

 Real(R)+Recip(G) space primitive vectors, cartesian coordinates (Bohr,Bohr^-1):
 R(1)=  0.0000000 10.3526963 10.6520350  G(1)= -0.0469394  0.0482966  0.0469394
 R(2)= 10.6520350  0.0000000 10.6520350  G(2)=  0.0469394 -0.0482966  0.0469394
 R(3)= 10.6520350 10.3526963  0.0000000  G(3)=  0.0469394  0.0482966 -0.0469394
 Unit cell volume ucvol=  2.3493550E+03 bohr^3
 Angles (23,13,12)=  5.95308727E+01  6.09382546E+01  5.95308727E+01 degrees

 Coarse grid specifications (used for wave-functions):

 getcut: wavevector=  0.0000  0.0000  0.0000  ngfft=  64  64  64
         ecut(hartree)=     21.160   => boxcut(ratio)=   2.05168

 Fine grid specifications (used for densities):

 getcut: wavevector=  0.0000  0.0000  0.0000  ngfft= 100 100 100
         ecut(hartree)=     52.900   => boxcut(ratio)=   2.02749

--- Pseudopotential description ------------------------------------------------
- pspini: atom type   1  psp file is ../../../Psps_for_tests/ATOMICDATA/Cs.GGA_PBE-JTH.xml
- pspatm: opening atomic psp file    ../../../Psps_for_tests/ATOMICDATA/Cs.GGA_PBE-JTH.xml
- pspatm : Reading pseudopotential header in XML form from ../../../Psps_for_tests/ATOMICDATA/Cs.GGA_PBE-JTH.xml
 Pseudopotential format is: paw10
 basis_size (lnmax)=  6 (lmn_size= 18), orbitals=   0   0   1   1   2   2
 Spheres core radius: rc_sph= 2.20660278
 1 radial meshes are used:
  - mesh 1: r(i)=AA*[exp(BB*(i-1))-1], size=1500 , AA= 0.15922E-03 BB= 0.87573E-02
 Shapefunction is SIN type: shapef(r)=[sin(pi*r/rshp)/(pi*r/rshp)]**2
 Radius for shape functions =  2.00394208
 mmax= 1500
 Radial grid used for partial waves is grid 1
 Radial grid used for projectors is grid 1
 Radial grid used for (t)core density is grid 1
 Radial grid used for Vloc is grid 1
 Radial grid used for pseudo valence density is grid 1
 Mesh size for Vloc has been set to 1341 to avoid numerical noise.
 Compensation charge density is not taken into account in XC energy/potential
 pspatm: atomic psp has been read  and splines computed

- pspini: atom type   2  psp file is ../../../Psps_for_tests/ATOMICDATA/I.GGA_PBE-JTH.xml
- pspatm: opening atomic psp file    ../../../Psps_for_tests/ATOMICDATA/I.GGA_PBE-JTH.xml
- pspatm : Reading pseudopotential header in XML form from ../../../Psps_for_tests/ATOMICDATA/I.GGA_PBE-JTH.xml
 Pseudopotential format is: paw10
 basis_size (lnmax)=  4 (lmn_size=  8), orbitals=   0   0   1   1
 Spheres core radius: rc_sph= 2.30022271
 1 radial meshes are used:
  - mesh 1: r(i)=AA*[exp(BB*(i-1))-1], size=2000 , AA= 0.12610E-03 BB= 0.66836E-02
 Shapefunction is SIN type: shapef(r)=[sin(pi*r/rshp)/(pi*r/rshp)]**2
 Radius for shape functions =  2.10879093
 mmax= 2000
 Radial grid used for partial waves is grid 1
 Radial grid used for projectors is grid 1
 Radial grid used for (t)core density is grid 1
 Radial grid used for Vloc is grid 1
 Radial grid used for pseudo valence density is grid 1
 Mesh size for Vloc has been set to 1792 to avoid numerical noise.
 Compensation charge density is not taken into account in XC energy/potential
 pspatm: atomic psp has been read  and splines computed

- pspini: atom type   3  psp file is ../../../Psps_for_tests/ATOMICDATA/Hf.GGA_PBE-JTH.xml
- pspatm: opening atomic psp file    ../../../Psps_for_tests/ATOMICDATA/Hf.GGA_PBE-JTH.xml
- pspatm : Reading pseudopotential header in XML form from ../../../Psps_for_tests/ATOMICDATA/Hf.GGA_PBE-JTH.xml
 Pseudopotential format is: paw10
 basis_size (lnmax)=  6 (lmn_size= 18), orbitals=   0   0   1   1   2   2
 Spheres core radius: rc_sph= 2.41000000
 1 radial meshes are used:
  - mesh 1: r(i)=AA*[exp(BB*(i-1))-1], size= 972 , AA= 0.19796E-03 BB= 0.14253E-01
 Shapefunction is SIN type: shapef(r)=[sin(pi*r/rshp)/(pi*r/rshp)]**2
 Radius for shape functions =  2.41000000
 mmax=  972
 Radial grid used for partial waves is grid 1
 Radial grid used for projectors is grid 1
 Radial grid used for (t)core density is grid 1
 Radial grid used for Vloc is grid 1
 Radial grid used for pseudo valence density is grid 1
 Mesh size for Vloc has been set to  809 to avoid numerical noise.
 Compensation charge density is not taken into account in XC energy/potential
 pspatm: atomic psp has been read  and splines computed

- pspini: atom type   4  psp file is ../../../Psps_for_tests/ATOMICDATA/Cl.GGA_PBE-JTH.xml
- pspatm: opening atomic psp file    ../../../Psps_for_tests/ATOMICDATA/Cl.GGA_PBE-JTH.xml
- pspatm : Reading pseudopotential header in XML form from ../../../Psps_for_tests/ATOMICDATA/Cl.GGA_PBE-JTH.xml
 Pseudopotential format is: paw10
 basis_size (lnmax)=  4 (lmn_size=  8), orbitals=   0   0   1   1
 Spheres core radius: rc_sph= 1.80315674
 1 radial meshes are used:
  - mesh 1: r(i)=AA*[exp(BB*(i-1))-1], size=1400 , AA= 0.50355E-03 BB= 0.85603E-02
 Shapefunction is SIN type: shapef(r)=[sin(pi*r/rshp)/(pi*r/rshp)]**2
 Radius for shape functions =  1.61320365
 mmax= 1400
 Radial grid used for partial waves is grid 1
 Radial grid used for projectors is grid 1
 Radial grid used for (t)core density is grid 1
 Radial grid used for Vloc is grid 1
 Radial grid used for pseudo valence density is grid 1
 Mesh size for Vloc has been set to 1238 to avoid numerical noise.
 Compensation charge density is not taken into account in XC energy/potential
 pspatm: atomic psp has been read  and splines computed

   4.43613238E+04                                ecore*ucvol(ha*bohr**3)
--------------------------------------------------------------------------------

_setup2: Arith. and geom. avg. npw (full set) are   10922.651   10922.643

================================================================================

--- !BeginCycle
iteration_state: {dtset: 1, }
solver: {iscf: 17, nstep: 2500, nline: 4, wfoptalg: 10, }
tolerances: {toldfe: 1.00E-08, }
...

     iter   Etot(hartree)      deltaE(h)  residm     nres2
 ETOT  1  -163.41612102818    -1.634E+02 4.823E+00 8.306E+00
 ETOT  2  -164.84054178747    -1.424E+00 3.842E-02 3.155E+00
 ETOT  3  -164.83131409195     9.228E-03 2.163E-02 5.364E-01
 ETOT  4  -164.83225232759    -9.382E-04 7.848E-03 1.262E-01
 ETOT  5  -164.83222953915     2.279E-05 1.056E-02 1.118E-02
 ETOT  6  -164.83228378652    -5.425E-05 3.005E-03 1.428E-03
 ETOT  7  -164.83229857914    -1.479E-05 2.181E-03 2.765E-04
 ETOT  8  -164.83230096786    -2.389E-06 1.483E-03 2.822E-05
 ETOT  9  -164.83230126468    -2.968E-07 9.836E-04 4.129E-06
 ETOT 10  -164.83230131024    -4.556E-08 8.055E-04 7.110E-07
 ETOT 11  -164.83230131529    -5.042E-09 6.241E-04 1.491E-07
 ETOT 12  -164.83230131588    -5.966E-10 5.833E-04 4.277E-08

 At SCF step   12, etot is converged : 
  for the second time, diff in etot=  5.966E-10 < toldfe=  1.000E-08

 Cartesian components of stress tensor (hartree/bohr^3)
  sigma(1 1)= -8.15881737E-05  sigma(3 2)= -8.80600213E-14
  sigma(2 2)= -8.15248476E-05  sigma(3 1)=  1.71168264E-13
  sigma(3 3)= -8.15881737E-05  sigma(2 1)= -8.80591418E-14


--- !ResultsGS
iteration_state: {dtset: 1, }
comment   : Summary of ground state results
lattice_vectors:
- [  0.0000000,  10.3526963,  10.6520350, ]
- [ 10.6520350,   0.0000000,  10.6520350, ]
- [ 10.6520350,  10.3526963,   0.0000000, ]
lattice_lengths: [  14.85410,   15.06425,   14.85410, ]
lattice_angles: [ 59.531,  60.938,  59.531, ] # degrees, (23, 13, 12)
lattice_volume:   2.3493550E+03
convergence: {deltae: -5.966E-10, res2:  4.277E-08, residm:  5.833E-04, diffor: null, }
etotal    :  -1.64832301E+02
entropy   :   0.00000000E+00
fermie    :  -9.94635587E-02
cartesian_stress_tensor: # hartree/bohr^3
- [ -8.15881737E-05,  -8.80591418E-14,   1.71168264E-13, ]
- [ -8.80591418E-14,  -8.15248476E-05,  -8.80600213E-14, ]
- [  1.71168264E-13,  -8.80600213E-14,  -8.15881737E-05, ]
pressure_GPa:   2.3998E+00
xred      :
- [  2.4866E-01,   2.5134E-01,   2.4866E-01, Cs]
- [  7.4866E-01,   7.5134E-01,   7.4866E-01, Cs]
- [  7.7068E-01,   2.2932E-01,   7.7068E-01, Cl]
- [  2.5096E-01,   2.5220E-01,   7.4780E-01,  I]
- [  7.4780E-01,   7.4904E-01,   2.5096E-01,  I]
- [  2.5029E-01,   7.4971E-01,   2.5029E-01,  I]
- [  2.5096E-01,   7.4904E-01,   7.4780E-01,  I]
- [  7.4780E-01,   2.5220E-01,   2.5096E-01,  I]
- [ -8.7630E-03,   8.7630E-03,  -8.7630E-03, Hf]
cartesian_forces: # hartree/bohr
- [  3.06098569E-22,   4.88226363E-06,  -3.15099864E-22, ]
- [  9.52129489E-23,   4.88226363E-06,  -1.04214244E-22, ]
- [ -3.22896715E-22,   1.01251215E-05,   3.13895420E-22, ]
- [ -2.05234316E-17,  -3.91584641E-06,  -1.90781992E-06, ]
- [  2.05234940E-17,  -3.91584641E-06,   1.90781992E-06, ]
- [ -5.57521814E-23,   1.49154233E-06,   4.67508864E-23, ]
- [  1.90781992E-06,  -3.91584641E-06,   2.05234505E-17, ]
- [ -1.90781992E-06,  -3.91584641E-06,  -2.05236369E-17, ]
- [ -9.30408520E-23,  -5.71780544E-06,   8.40395570E-23, ]
force_length_stats: {min:   1.49154233E-06, max:   1.01251215E-05, mean:   4.94694319E-06, }
...

 Integrated electronic density in atomic spheres:
 ------------------------------------------------
 Atom  Sphere_radius  Integrated_density
    1        2.20660          5.36913853
    2        2.20660          5.36913853
    3        1.80316          4.36105347
    4        2.30022          4.03020422
    5        2.30022          4.03020422
    6        2.30022          4.02972658
    7        2.30022          4.03020422
    8        2.30022          4.03020422
    9        2.41000          9.31108977

 PAW TEST:
 ==== Compensation charge inside spheres ============
 The following values must be close to each other ...
 Compensation charge over spherical meshes =     -0.741806662509585
 Compensation charge over fine fft grid    =     -0.741793070830323

 ==== Results concerning PAW augmentation regions ====

 Total pseudopotential strength Dij (hartree):
 Atom #  1
   0.44348  -0.14683   0.00000   0.00000   0.00000  -0.00000   0.00000   0.00000   0.00000   0.00000   0.00000  -0.00000 ...
  -0.14683   0.04427  -0.00000   0.00000   0.00000   0.00000   0.00000   0.00000   0.00000   0.00000  -0.00000   0.00000 ...
   0.00000  -0.00000  -0.09395   0.00000   0.00000  -0.16635   0.00000   0.00000   0.00000   0.00000  -0.00000  -0.00000 ...
   0.00000   0.00000   0.00000  -0.09395  -0.00000   0.00000  -0.16635   0.00000  -0.00000   0.00000   0.00000   0.00000 ...
   0.00000   0.00000   0.00000  -0.00000  -0.09395   0.00000   0.00000  -0.16635   0.00000  -0.00000   0.00000   0.00000 ...
  -0.00000   0.00000  -0.16635   0.00000   0.00000   0.40501   0.00000   0.00000   0.00000   0.00000   0.00000   0.00000 ...
   0.00000   0.00000   0.00000  -0.16635   0.00000   0.00000   0.40502  -0.00001   0.00000  -0.00000   0.00000   0.00000 ...
   0.00000   0.00000   0.00000   0.00000  -0.16635   0.00000  -0.00001   0.40502  -0.00000   0.00000   0.00000   0.00000 ...
   0.00000   0.00000   0.00000  -0.00000   0.00000   0.00000   0.00000  -0.00000   0.00517  -0.00000   0.00000   0.00000 ...
   0.00000   0.00000   0.00000   0.00000  -0.00000   0.00000  -0.00000   0.00000  -0.00000   0.00517   0.00000   0.00000 ...
   0.00000  -0.00000  -0.00000   0.00000   0.00000   0.00000   0.00000   0.00000   0.00000   0.00000   0.00517  -0.00000 ...
  -0.00000   0.00000  -0.00000   0.00000   0.00000   0.00000   0.00000   0.00000   0.00000   0.00000  -0.00000   0.00517 ...
   ...  only 12  components have been written...
 Atom #  9
  -3.52459   0.43045  -0.00028   0.00000   0.00000   0.00005   0.00000   0.00000   0.00000   0.00000  -0.00008   0.00000 ...
   0.43045   0.00244   0.00004   0.00000   0.00000  -0.00001   0.00000   0.00000   0.00000   0.00000   0.00001   0.00000 ...
  -0.00028   0.00004  -1.46579   0.00000   0.00000   0.12536   0.00000   0.00000   0.00000   0.00000   0.00006   0.00000 ...
   0.00000   0.00000   0.00000  -1.46638   0.00000   0.00000   0.12547   0.00000   0.00000  -0.00011   0.00000   0.00000 ...
   0.00000   0.00000   0.00000   0.00000  -1.46638   0.00000   0.00000   0.12547  -0.00011   0.00000   0.00000   0.00000 ...
   0.00005  -0.00001   0.12536   0.00000   0.00000   0.01307   0.00000   0.00000   0.00000   0.00000  -0.00001   0.00000 ...
   0.00000   0.00000   0.00000   0.12547   0.00000   0.00000   0.01306   0.00000   0.00000   0.00002   0.00000   0.00000 ...
   0.00000   0.00000   0.00000   0.00000   0.12547   0.00000   0.00000   0.01306   0.00002   0.00000   0.00000   0.00000 ...
   0.00000   0.00000   0.00000   0.00000  -0.00011   0.00000   0.00000   0.00002  -0.39591   0.00000   0.00000   0.00000 ...
   0.00000   0.00000   0.00000  -0.00011   0.00000   0.00000   0.00002   0.00000   0.00000  -0.39591   0.00000   0.00000 ...
  -0.00008   0.00001   0.00006   0.00000   0.00000  -0.00001   0.00000   0.00000   0.00000   0.00000  -0.39531   0.00000 ...
   0.00000   0.00000   0.00000   0.00000   0.00000   0.00000   0.00000   0.00000   0.00000   0.00000   0.00000  -0.39602 ...
   ...  only 12  components have been written...


 Augmentation waves occupancies Rhoij:
 Atom #  1
   1.99772  -0.01456   0.00002   0.00000   0.00000   0.00000   0.00000   0.00000   0.00000   0.00000   0.00056  -0.00343 ...
  -0.01456   0.18225   0.00018   0.00000   0.00000  -0.00001   0.00000   0.00000   0.00000   0.00000  -0.00741   0.01723 ...
   0.00002   0.00018   2.00785   0.00000   0.00000  -0.00515   0.00000   0.00000   0.00000   0.00000  -0.00012  -0.00132 ...
   0.00000   0.00000   0.00000   2.00679   0.00189   0.00000  -0.00493  -0.00032  -0.00152  -0.00004   0.00000   0.00000 ...
   0.00000   0.00000   0.00000   0.00189   2.00679   0.00000  -0.00032  -0.00493  -0.00004  -0.00152   0.00000   0.00000 ...
   0.00000  -0.00001  -0.00515   0.00000   0.00000   0.00015   0.00000   0.00000   0.00000   0.00000   0.00001   0.00005 ...
   0.00000   0.00000   0.00000  -0.00493  -0.00032   0.00000   0.00013   0.00002   0.00006   0.00000   0.00000   0.00000 ...
   0.00000   0.00000   0.00000  -0.00032  -0.00493   0.00000   0.00002   0.00013   0.00000   0.00006   0.00000   0.00000 ...
   0.00000   0.00000   0.00000  -0.00152  -0.00004   0.00000   0.00006   0.00000   0.07276   0.00021   0.00000   0.00000 ...
   0.00000   0.00000   0.00000  -0.00004  -0.00152   0.00000   0.00000   0.00006   0.00021   0.07276   0.00000   0.00000 ...
   0.00056  -0.00741  -0.00012   0.00000   0.00000   0.00001   0.00000   0.00000   0.00000   0.00000   0.04620   0.00772 ...
  -0.00343   0.01723  -0.00132   0.00000   0.00000   0.00005   0.00000   0.00000   0.00000   0.00000   0.00772   0.04386 ...
   ...  only 12  components have been written...
 Atom #  9
   1.99798  -0.02026  -0.00003   0.00000   0.00000   0.00029   0.00000   0.00000   0.00000   0.00000  -0.00023   0.00000 ...
  -0.02026   1.01190   0.00260   0.00000   0.00000  -0.04103   0.00000   0.00000   0.00000   0.00000  -0.02243   0.00000 ...
  -0.00003   0.00260   1.99260   0.00000   0.00000  -0.06354   0.00000   0.00000   0.00000   0.00000   0.00021   0.00000 ...
   0.00000   0.00000   0.00000   1.99303   0.00000   0.00000  -0.05787   0.00000   0.00000  -0.00170   0.00000   0.00000 ...
   0.00000   0.00000   0.00000   0.00000   1.99303   0.00000   0.00000  -0.05787  -0.00170   0.00000   0.00000   0.00000 ...
   0.00029  -0.04103  -0.06354   0.00000   0.00000   1.39101   0.00000   0.00000   0.00000   0.00000   0.08815   0.00000 ...
   0.00000   0.00000   0.00000  -0.05787   0.00000   0.00000   1.20124   0.00000   0.00000   0.03665   0.00000   0.00000 ...
   0.00000   0.00000   0.00000   0.00000  -0.05787   0.00000   0.00000   1.20124   0.03665   0.00000   0.00000   0.00000 ...
   0.00000   0.00000   0.00000   0.00000  -0.00170   0.00000   0.00000   0.03665   0.50002   0.00000   0.00000   0.00000 ...
   0.00000   0.00000   0.00000  -0.00170   0.00000   0.00000   0.03665   0.00000   0.00000   0.50002   0.00000   0.00000 ...
  -0.00023  -0.02243   0.00021   0.00000   0.00000   0.08815   0.00000   0.00000   0.00000   0.00000   1.41335   0.00000 ...
   0.00000   0.00000   0.00000   0.00000   0.00000   0.00000   0.00000   0.00000   0.00000   0.00000   0.00000   0.45796 ...
   ...  only 12  components have been written...


================================================================================

 ----iterations are completed or convergence reached----

 Mean square residual over all n,k,spin=   18.068E-07; max=  58.328E-05
 reduced coordinates (array xred) for    9 atoms
       0.248657427300      0.251342572700      0.248657427300
       0.748657427300      0.751342572700      0.748657427300
       0.770675476580      0.229324523420      0.770675476580
       0.250955181420      0.252201416610      0.747798583390
       0.747798583390      0.749044818580      0.250955181420
       0.250289332990      0.749710667010      0.250289332990
       0.250955181420      0.749044818580      0.747798583390
       0.747798583390      0.252201416610      0.250955181420
      -0.008763014768      0.008763014768     -0.008763014768
 rms dE/dt=  5.2186E-05; max dE/dt=  2.9770E-05; dE/dt below (all hartree)
    1      -0.000081636555      0.000000000000     -0.000081636555
    2      -0.000081636555      0.000000000000     -0.000081636555
    3      -0.000135914271      0.000000000000     -0.000135914271
    4       0.000029769771      0.000020322165      0.000009447606
    5      -0.000010874559     -0.000020322165      0.000009447606
    6      -0.000046533447      0.000000000000     -0.000046533447
    7       0.000009447606     -0.000020322165     -0.000010874559
    8       0.000009447606      0.000020322165      0.000029769771
    9       0.000028102741      0.000000000000      0.000028102741

 cartesian coordinates (angstrom) at end:
    1      2.81840706856769     2.72449513877899     2.81840706856769
    2      8.45522120570341     8.20290607619279     8.45522120570340
    3      5.63681413716854     8.44415392018492     5.63681413716854
    4      5.63681413716576     5.47158354891831     2.83620022496854
    5      5.63681413710551     5.47158354891831     8.43742804930273
    6      5.63681413710543     2.74237563874084     5.63681413710543
    7      8.43742804930273     5.47158354891831     5.63681413710551
    8      2.83620022496854     5.47158354891831     5.63681413716576
    9     -0.00000000000106    -0.09601479190384    -0.00000000000106

 cartesian forces (hartree/bohr) at end:
    1      0.00000000000000     0.00000488226363    -0.00000000000000
    2      0.00000000000000     0.00000488226363    -0.00000000000000
    3     -0.00000000000000     0.00001012512148     0.00000000000000
    4     -0.00000000000000    -0.00000391584641    -0.00000190781992
    5      0.00000000000000    -0.00000391584641     0.00000190781992
    6     -0.00000000000000     0.00000149154233     0.00000000000000
    7      0.00000190781992    -0.00000391584641     0.00000000000000
    8     -0.00000190781992    -0.00000391584641    -0.00000000000000
    9     -0.00000000000000    -0.00000571780544     0.00000000000000
 frms,max,avg= 3.1091478E-06 1.0125121E-05   0.000E+00  3.003E-06  0.000E+00 h/b

 cartesian forces (eV/Angstrom) at end:
    1      0.00000000000000     0.00025105606892    -0.00000000000000
    2      0.00000000000000     0.00025105606892    -0.00000000000000
    3     -0.00000000000000     0.00052065463668     0.00000000000000
    4     -0.00000000000000    -0.00020136090142    -0.00009810403660
    5      0.00000000000000    -0.00020136090142     0.00009810403660
    6     -0.00000000000000     0.00007669818389     0.00000000000000
    7      0.00009810403660    -0.00020136090142     0.00000000000000
    8     -0.00009810403660    -0.00020136090142    -0.00000000000000
    9     -0.00000000000000    -0.00029402135272     0.00000000000000
 frms,max,avg= 1.5987879E-04 5.2065464E-04   0.000E+00  1.544E-04  0.000E+00 e/A
 length scales= 14.854096076000 15.064252337000 14.854096076000 bohr
              =  7.860449097625  7.971659001189  7.860449097625 angstroms
 prteigrs : about to open file Cs2TiI6o_DS1_EIG
 Fermi (or HOMO) energy (hartree) =  -0.09946   Average Vxc (hartree)=  -0.30870
 Eigenvalues (hartree) for nkpt= 163  k points:
 kpt#   1, nband= 42, wtk=  0.00058, kpt=  0.0000  0.0000  0.0000 (reduced coord)
  -2.40298   -1.24811   -1.24761   -1.24761   -0.85384   -0.85354   -0.63791   -0.54457
  -0.52376   -0.52376   -0.51807   -0.51506   -0.37644   -0.37467   -0.37467   -0.37183
  -0.37169   -0.37169   -0.26997   -0.22037   -0.21705   -0.21705   -0.20045   -0.20045
  -0.19457   -0.18693   -0.17298   -0.15546   -0.15546   -0.13702   -0.11996   -0.11996
  -0.11578   -0.10248   -0.09946   -0.09946   -0.02979   -0.02153   -0.02153    0.04242
   0.05093    0.06123
 prteigrs : prtvol=0 or 1, do not print more k-points.


--- !EnergyTerms
iteration_state     : {dtset: 1, }
comment             : Components of total free energy in Hartree
kinetic             :  3.94948207331900E+01
hartree             :  3.22002179744475E+01
xc                  : -5.82913329125644E+01
Ewald energy        : -1.23487200774154E+02
psp_core            :  1.88823419863501E+01
local_psp           : -6.74934762908994E+01
spherical_terms     : -6.13766143420175E+00
total_energy        : -1.64832290717831E+02
total_energy_eV     : -4.48531473524603E+03
...


--- !EnergyTermsDC
iteration_state     : {dtset: 1, }
comment             : '"Double-counting" decomposition of free energy'
band_energy         : -3.28953582548416E+01
Ewald energy        : -1.23487200774154E+02
psp_core            :  1.88823419863501E+01
xc_dc               : -5.27249120878934E+01
spherical_terms     :  2.53928278146561E+01
total_energy_dc     : -1.64832301315882E+02
total_energy_dc_eV  : -4.48531502363366E+03
...


 Cartesian components of stress tensor (hartree/bohr^3)
  sigma(1 1)= -8.15881737E-05  sigma(3 2)= -8.80600213E-14
  sigma(2 2)= -8.15248476E-05  sigma(3 1)=  1.71168264E-13
  sigma(3 3)= -8.15881737E-05  sigma(2 1)= -8.80591418E-14

-Cartesian components of stress tensor (GPa)         [Pressure=  2.3998E+00 GPa]
- sigma(1 1)= -2.40040654E+00  sigma(3 2)= -2.59081484E-09
- sigma(2 2)= -2.39854342E+00  sigma(3 1)=  5.03594335E-09
- sigma(3 3)= -2.40040654E+00  sigma(2 1)= -2.59078896E-09

================================================================================
== DATASET  2 ==================================================================
-   mpi_nproc: 6, omp_nthreads: -1 (-1 if OMP is not activated)


--- !DatasetInfo
iteration_state: {dtset: 2, }
dimensions: {natom: 9, nkpt: 163, mband: 42, nsppol: 1, nspinor: 1, nspden: 1, mpw: 10924, }
cutoff_energies: {ecut:  16.0, pawecutdg:  40.0, }
electrons: {nelect:   7.20000000E+01, charge:   0.00000000E+00, occopt:   1.00000000E+00, tsmear:   1.00000000E-02, }
meta: {optdriver: 0, ionmov: 0, optcell: 0, iscf: 17, paral_kgb: 0, }
...

 Real(R)+Recip(G) space primitive vectors, cartesian coordinates (Bohr,Bohr^-1):
 R(1)=  0.0000000 10.3420335 10.6415265  G(1)= -0.0469857  0.0483464  0.0469857
 R(2)= 10.6415265  0.0000000 10.6415265  G(2)=  0.0469857 -0.0483464  0.0469857
 R(3)= 10.6415265 10.3420335  0.0000000  G(3)=  0.0469857  0.0483464 -0.0469857
 Unit cell volume ucvol=  2.3423069E+03 bohr^3
 Angles (23,13,12)=  5.95301609E+01  6.09396782E+01  5.95301609E+01 degrees

 Coarse grid specifications (used for wave-functions):

 getcut: wavevector=  0.0000  0.0000  0.0000  ngfft=  64  64  64
         ecut(hartree)=     21.160   => boxcut(ratio)=   2.05371

 Fine grid specifications (used for densities):

 getcut: wavevector=  0.0000  0.0000  0.0000  ngfft= 100 100 100
         ecut(hartree)=     52.900   => boxcut(ratio)=   2.02950

--- Pseudopotential description ------------------------------------------------
- pspini: atom type   1  psp file is ../../../Psps_for_tests/ATOMICDATA/Cs.GGA_PBE-JTH.xml
- pspatm: opening atomic psp file    ../../../Psps_for_tests/ATOMICDATA/Cs.GGA_PBE-JTH.xml
- pspatm : Reading pseudopotential header in XML form from ../../../Psps_for_tests/ATOMICDATA/Cs.GGA_PBE-JTH.xml
 Pseudopotential format is: paw10
 basis_size (lnmax)=  6 (lmn_size= 18), orbitals=   0   0   1   1   2   2
 Spheres core radius: rc_sph= 2.20660278
 1 radial meshes are used:
  - mesh 1: r(i)=AA*[exp(BB*(i-1))-1], size=1500 , AA= 0.15922E-03 BB= 0.87573E-02
 Shapefunction is SIN type: shapef(r)=[sin(pi*r/rshp)/(pi*r/rshp)]**2
 Radius for shape functions =  2.00394208
 mmax= 1500
 Radial grid used for partial waves is grid 1
 Radial grid used for projectors is grid 1
 Radial grid used for (t)core density is grid 1
 Radial grid used for Vloc is grid 1
 Radial grid used for pseudo valence density is grid 1
 Mesh size for Vloc has been set to 1341 to avoid numerical noise.
 Compensation charge density is not taken into account in XC energy/potential
 pspatm: atomic psp has been read  and splines computed

- pspini: atom type   2  psp file is ../../../Psps_for_tests/ATOMICDATA/I.GGA_PBE-JTH.xml
- pspatm: opening atomic psp file    ../../../Psps_for_tests/ATOMICDATA/I.GGA_PBE-JTH.xml
- pspatm : Reading pseudopotential header in XML form from ../../../Psps_for_tests/ATOMICDATA/I.GGA_PBE-JTH.xml
 Pseudopotential format is: paw10
 basis_size (lnmax)=  4 (lmn_size=  8), orbitals=   0   0   1   1
 Spheres core radius: rc_sph= 2.30022271
 1 radial meshes are used:
  - mesh 1: r(i)=AA*[exp(BB*(i-1))-1], size=2000 , AA= 0.12610E-03 BB= 0.66836E-02
 Shapefunction is SIN type: shapef(r)=[sin(pi*r/rshp)/(pi*r/rshp)]**2
 Radius for shape functions =  2.10879093
 mmax= 2000
 Radial grid used for partial waves is grid 1
 Radial grid used for projectors is grid 1
 Radial grid used for (t)core density is grid 1
 Radial grid used for Vloc is grid 1
 Radial grid used for pseudo valence density is grid 1
 Mesh size for Vloc has been set to 1792 to avoid numerical noise.
 Compensation charge density is not taken into account in XC energy/potential
 pspatm: atomic psp has been read  and splines computed

- pspini: atom type   3  psp file is ../../../Psps_for_tests/ATOMICDATA/Hf.GGA_PBE-JTH.xml
- pspatm: opening atomic psp file    ../../../Psps_for_tests/ATOMICDATA/Hf.GGA_PBE-JTH.xml
- pspatm : Reading pseudopotential header in XML form from ../../../Psps_for_tests/ATOMICDATA/Hf.GGA_PBE-JTH.xml
 Pseudopotential format is: paw10
 basis_size (lnmax)=  6 (lmn_size= 18), orbitals=   0   0   1   1   2   2
 Spheres core radius: rc_sph= 2.41000000
 1 radial meshes are used:
  - mesh 1: r(i)=AA*[exp(BB*(i-1))-1], size= 972 , AA= 0.19796E-03 BB= 0.14253E-01
 Shapefunction is SIN type: shapef(r)=[sin(pi*r/rshp)/(pi*r/rshp)]**2
 Radius for shape functions =  2.41000000
 mmax=  972
 Radial grid used for partial waves is grid 1
 Radial grid used for projectors is grid 1
 Radial grid used for (t)core density is grid 1
 Radial grid used for Vloc is grid 1
 Radial grid used for pseudo valence density is grid 1
 Mesh size for Vloc has been set to  809 to avoid numerical noise.
 Compensation charge density is not taken into account in XC energy/potential
 pspatm: atomic psp has been read  and splines computed

- pspini: atom type   4  psp file is ../../../Psps_for_tests/ATOMICDATA/Cl.GGA_PBE-JTH.xml
- pspatm: opening atomic psp file    ../../../Psps_for_tests/ATOMICDATA/Cl.GGA_PBE-JTH.xml
- pspatm : Reading pseudopotential header in XML form from ../../../Psps_for_tests/ATOMICDATA/Cl.GGA_PBE-JTH.xml
 Pseudopotential format is: paw10
 basis_size (lnmax)=  4 (lmn_size=  8), orbitals=   0   0   1   1
 Spheres core radius: rc_sph= 1.80315674
 1 radial meshes are used:
  - mesh 1: r(i)=AA*[exp(BB*(i-1))-1], size=1400 , AA= 0.50355E-03 BB= 0.85603E-02
 Shapefunction is SIN type: shapef(r)=[sin(pi*r/rshp)/(pi*r/rshp)]**2
 Radius for shape functions =  1.61320365
 mmax= 1400
 Radial grid used for partial waves is grid 1
 Radial grid used for projectors is grid 1
 Radial grid used for (t)core density is grid 1
 Radial grid used for Vloc is grid 1
 Radial grid used for pseudo valence density is grid 1
 Mesh size for Vloc has been set to 1238 to avoid numerical noise.
 Compensation charge density is not taken into account in XC energy/potential
 pspatm: atomic psp has been read  and splines computed

--------------------------------------------------------------------------------

_setup2: Arith. and geom. avg. npw (full set) are   10889.595   10889.588

================================================================================

--- !BeginCycle
iteration_state: {dtset: 2, }
solver: {iscf: 17, nstep: 2500, nline: 4, wfoptalg: 10, }
tolerances: {toldfe: 1.00E-08, }
...

     iter   Etot(hartree)      deltaE(h)  residm     nres2
 ETOT  1  -163.30774023405    -1.633E+02 4.890E+00 8.088E+00
 ETOT  2  -164.84075093571    -1.533E+00 3.540E-02 3.339E+00
 ETOT  3  -164.83076538449     9.986E-03 2.399E-02 5.593E-01
 ETOT  4  -164.83167416603    -9.088E-04 6.960E-03 1.321E-01
 ETOT  5  -164.83164891107     2.525E-05 8.281E-03 1.279E-02
 ETOT  6  -164.83170251677    -5.361E-05 2.308E-03 1.462E-03
 ETOT  7  -164.83171761151    -1.509E-05 3.070E-03 3.069E-04
 ETOT  8  -164.83172004900    -2.437E-06 1.498E-03 2.609E-05
 ETOT  9  -164.83172035513    -3.061E-07 9.199E-04 3.602E-06
 ETOT 10  -164.83172039427    -3.914E-08 1.210E-03 7.020E-07
 ETOT 11  -164.83172039983    -5.561E-09 1.139E-03 1.839E-07
 ETOT 12  -164.83172040001    -1.728E-10 7.788E-04 2.637E-08

 At SCF step   12, etot is converged : 
  for the second time, diff in etot=  1.728E-10 < toldfe=  1.000E-08

 Cartesian components of stress tensor (hartree/bohr^3)
  sigma(1 1)= -8.37830851E-05  sigma(3 2)= -2.20188925E-14
  sigma(2 2)= -8.37186956E-05  sigma(3 1)=  4.27969711E-14
  sigma(3 3)= -8.37830851E-05  sigma(2 1)= -2.20167052E-14


--- !ResultsGS
iteration_state: {dtset: 2, }
comment   : Summary of ground state results
lattice_vectors:
- [  0.0000000,  10.3420335,  10.6415265, ]
- [ 10.6415265,   0.0000000,  10.6415265, ]
- [ 10.6415265,  10.3420335,   0.0000000, ]
lattice_lengths: [  14.83913,   15.04939,   14.83913, ]
lattice_angles: [ 59.530,  60.940,  59.530, ] # degrees, (23, 13, 12)
lattice_volume:   2.3423069E+03
convergence: {deltae: -1.728E-10, res2:  2.637E-08, residm:  7.788E-04, diffor: null, }
etotal    :  -1.64831720E+02
entropy   :   0.00000000E+00
fermie    :  -9.89784087E-02
cartesian_stress_tensor: # hartree/bohr^3
- [ -8.37830851E-05,  -2.20167052E-14,   4.27969711E-14, ]
- [ -2.20167052E-14,  -8.37186956E-05,  -2.20188925E-14, ]
- [  4.27969711E-14,  -2.20188925E-14,  -8.37830851E-05, ]
pressure_GPa:   2.4644E+00
xred      :
- [  2.4867E-01,   2.5133E-01,   2.4867E-01, Cs]
- [  7.4867E-01,   7.5133E-01,   7.4867E-01, Cs]
- [  7.7041E-01,   2.2959E-01,   7.7041E-01, Cl]
- [  2.5116E-01,   2.5233E-01,   7.4767E-01,  I]
- [  7.4767E-01,   7.4884E-01,   2.5116E-01,  I]
- [  2.5043E-01,   7.4957E-01,   2.5043E-01,  I]
- [  2.5116E-01,   7.4884E-01,   7.4767E-01,  I]
- [  7.4767E-01,   2.5233E-01,   2.5116E-01,  I]
- [ -8.8145E-03,   8.8145E-03,  -8.8145E-03, Hf]
cartesian_forces: # hartree/bohr
- [ -3.34466982E-22,   4.53028519E-06,   2.90082892E-22, ]
- [ -1.24209556E-22,   4.53028519E-06,   7.98254663E-23, ]
- [  8.88563713E-23,   7.58955401E-06,  -1.33240461E-22, ]
- [ -3.51372295E-18,  -4.10073684E-06,  -1.31395094E-06, ]
- [  3.51373883E-18,  -4.10073684E-06,   1.31395094E-06, ]
- [  1.59082002E-22,  -1.52402625E-06,  -2.03466091E-22, ]
- [  1.31395094E-06,  -4.10073684E-06,   3.51359634E-18, ]
- [ -1.31395094E-06,  -4.10073684E-06,  -3.51359549E-18, ]
- [  2.01041134E-23,   1.27684922E-06,  -6.44882033E-23, ]
force_length_stats: {min:   1.27684922E-06, max:   7.58955401E-06, mean:   4.07504507E-06, }
...

 Integrated electronic density in atomic spheres:
 ------------------------------------------------
 Atom  Sphere_radius  Integrated_density
    1        2.20660          5.36607259
    2        2.20660          5.36607259
    3        1.80316          4.35853613
    4        2.30022          4.03005078
    5        2.30022          4.03005078
    6        2.30022          4.02904127
    7        2.30022          4.03005078
    8        2.30022          4.03005078
    9        2.41000          9.30854138

 PAW TEST:
 ==== Compensation charge inside spheres ============
 The following values must be close to each other ...
 Compensation charge over spherical meshes =     -0.742041639690060
 Compensation charge over fine fft grid    =     -0.742021102410662

 ==== Results concerning PAW augmentation regions ====

 Total pseudopotential strength Dij (hartree):
 Atom #  1
   0.44336  -0.14679   0.00000   0.00000   0.00000  -0.00000   0.00000   0.00000   0.00000   0.00000   0.00000  -0.00000 ...
  -0.14679   0.04426  -0.00000   0.00000   0.00000   0.00000   0.00000   0.00000   0.00000   0.00000  -0.00000   0.00000 ...
   0.00000  -0.00000  -0.09394   0.00000   0.00000  -0.16636   0.00000   0.00000   0.00000   0.00000  -0.00000  -0.00000 ...
   0.00000   0.00000   0.00000  -0.09394  -0.00000   0.00000  -0.16636   0.00000  -0.00000   0.00000   0.00000   0.00000 ...
   0.00000   0.00000   0.00000  -0.00000  -0.09394   0.00000   0.00000  -0.16636   0.00000  -0.00000   0.00000   0.00000 ...
  -0.00000   0.00000  -0.16636   0.00000   0.00000   0.40498   0.00000   0.00000   0.00000   0.00000   0.00000   0.00000 ...
   0.00000   0.00000   0.00000  -0.16636   0.00000   0.00000   0.40498  -0.00001   0.00000  -0.00000   0.00000   0.00000 ...
   0.00000   0.00000   0.00000   0.00000  -0.16636   0.00000  -0.00001   0.40498  -0.00000   0.00000   0.00000   0.00000 ...
[...]
                       8.3598828105E+00  5.4261716413E+00  5.5943106942E+00
                       2.8287385780E+00  5.4261716413E+00  5.5943106943E+00
                      -1.5792844924E-12 -1.0044161308E-01 -1.5792844924E-12
           xangst10    2.7944880335E+00  2.6994294848E+00  2.7944880335E+00
                       8.3834641006E+00  8.1227672748E+00  8.3834641006E+00
                       5.5889760671E+00  8.3303516234E+00  5.5889760671E+00
                       5.5889760671E+00  5.4205521199E+00  2.8277736230E+00
                       5.5889760670E+00  5.4205521199E+00  8.3501785111E+00
                       5.5889760670E+00  2.7290072406E+00  5.5889760670E+00
                       8.3501785111E+00  5.4205521199E+00  5.5889760670E+00
                       2.8277736230E+00  5.4205521199E+00  5.5889760671E+00
                      -2.6001906790E-12 -1.0087279203E-01 -2.6001906790E-12
            xcart1     5.3260174906E+00  5.1485496627E+00  5.3260174906E+00
                       1.5978052472E+01  1.5501245978E+01  1.5978052472E+01
                       1.0652034981E+01  1.5957138333E+01  1.0652034981E+01
                       1.0652034981E+01  1.0339794421E+01  5.3596416832E+00
                       1.0652034981E+01  1.0339794421E+01  1.5944428279E+01
                       1.0652034981E+01  5.1823389107E+00  1.0652034981E+01
                       1.5944428279E+01  1.0339794421E+01  1.0652034981E+01
                       5.3596416832E+00  1.0339794421E+01  1.0652034981E+01
                      -2.0082979616E-12 -1.8144166140E-01 -2.0082979616E-12
            xcart2     5.3207632424E+00  5.1435338487E+00  5.3207632424E+00
                       1.5962289727E+01  1.5485567374E+01  1.5962289727E+01
                       1.0641526485E+01  1.5935205604E+01  1.0641526485E+01
                       1.0641526485E+01  1.0329934118E+01  5.3579061272E+00
                       1.0641526485E+01  1.0329934118E+01  1.5925146842E+01
                       1.0641526485E+01  5.1798342164E+00  1.0641526485E+01
                       1.5925146842E+01  1.0329934118E+01  1.0641526485E+01
                       5.3579061272E+00  1.0329934118E+01  1.0641526485E+01
                      -5.0168120025E-13 -1.8232072331E-01 -5.0168120025E-13
            xcart3     5.3155431546E+00  5.1382591436E+00  5.3155431546E+00
                       1.5946629464E+01  1.5469497104E+01  1.5946629464E+01
                       1.0631086309E+01  1.5912987577E+01  1.0631086309E+01
                       1.0631086309E+01  1.0319988864E+01  5.3561597640E+00
                       1.0631086309E+01  1.0319988864E+01  1.5906012854E+01
                       1.0631086309E+01  5.1773633723E+00  1.0631086309E+01
                       1.5906012854E+01  1.0319988864E+01  1.0631086309E+01
                       5.3561597640E+00  1.0319988864E+01  1.0631086309E+01
                      -1.2900322459E-12 -1.8302203896E-01 -1.2900322459E-12
            xcart4     5.3104408481E+00  5.1331852572E+00  5.3104408481E+00
                       1.5931322544E+01  1.5453169887E+01  1.5931322544E+01
                       1.0620881696E+01  1.5889579087E+01  1.0620881696E+01
                       1.0620881696E+01  1.0309652127E+01  5.3543677537E+00
                       1.0620881696E+01  1.0309652127E+01  1.5887395639E+01
                       1.0620881696E+01  5.1745430899E+00  1.0620881696E+01
                       1.5887395639E+01  1.0309652127E+01  1.0620881696E+01
                       5.3543677537E+00  1.0309652127E+01  1.0620881696E+01
                      -1.1970181088E-12 -1.8422995002E-01 -1.1970181088E-12
            xcart5     5.3056103882E+00  5.1282230348E+00  5.3056103882E+00
                       1.5916831165E+01  1.5435898089E+01  1.5916831165E+01
                       1.0611220777E+01  1.5864163274E+01  1.0611220777E+01
                       1.0611220776E+01  1.0297955585E+01  5.3526850968E+00
                       1.0611220776E+01  1.0297955585E+01  1.5869756456E+01
                       1.0611220776E+01  5.1714614543E+00  1.0611220776E+01
                       1.5869756456E+01  1.0297955585E+01  1.0611220776E+01
                       5.3526850968E+00  1.0297955585E+01  1.0611220776E+01
                      -3.2929154705E-12 -1.8536185019E-01 -3.2929154705E-12
            xcart6     5.3009344116E+00  5.1226513822E+00  5.3009344116E+00
                       1.5902803235E+01  1.5417417352E+01  1.5902803235E+01
                       1.0601868823E+01  1.5837229331E+01  1.0601868823E+01
                       1.0601868823E+01  1.0285970407E+01  5.3509768127E+00
                       1.0601868823E+01  1.0285970407E+01  1.5852760834E+01
                       1.0601868823E+01  5.1683437056E+00  1.0601868823E+01
                       1.5852760834E+01  1.0285970407E+01  1.0601868823E+01
                       5.3509768127E+00  1.0285970407E+01  1.0601868823E+01
                      -2.8897398832E-12 -1.8677108234E-01 -2.8897398832E-12
            xcart7     5.2959319645E+00  5.1166441410E+00  5.2959319645E+00
                       1.5887795894E+01  1.5399769676E+01  1.5887795894E+01
                       1.0591863929E+01  1.5813582708E+01  1.0591863929E+01
                       1.0591863929E+01  1.0275236257E+01  5.3492102501E+00
                       1.0591863929E+01  1.0275236257E+01  1.5834517608E+01
                       1.0591863929E+01  5.1658330249E+00  1.0591863929E+01
                       1.5834517608E+01  1.0275236257E+01  1.0591863929E+01
                       5.3492102501E+00  1.0275236257E+01  1.0591863929E+01
                      -2.7513561941E-12 -1.8730926843E-01 -2.7513561941E-12
            xcart8     5.2909021643E+00  5.1114036198E+00  5.2909021643E+00
                       1.5872706493E+01  1.5382995166E+01  1.5872706493E+01
                       1.0581804329E+01  1.5789727570E+01  1.0581804329E+01
                       1.0581804329E+01  1.0264609063E+01  5.3473866463E+00
                       1.0581804329E+01  1.0264609063E+01  1.5816222011E+01
                       1.0581804329E+01  5.1629154328E+00  1.0581804329E+01
                       1.5816222011E+01  1.0264609063E+01  1.0581804329E+01
                       5.3473866463E+00  1.0264609063E+01  1.0581804329E+01
                       2.5367499517E-12 -1.8844667644E-01  2.5367499517E-12
            xcart9     5.2858575572E+00  5.1066978868E+00  5.2858575572E+00
                       1.5857572672E+01  1.5366813128E+01  1.5857572672E+01
                       1.0571715114E+01  1.5765640909E+01  1.0571715114E+01
                       1.0571715114E+01  1.0253978352E+01  5.3455412140E+00
                       1.0571715114E+01  1.0253978352E+01  1.5797889015E+01
                       1.0571715114E+01  5.1598015139E+00  1.0571715114E+01
                       1.5797889015E+01  1.0253978352E+01  1.0571715114E+01
                       5.3455412140E+00  1.0253978352E+01  1.0571715114E+01
                      -2.9844151765E-12 -1.8980714107E-01 -2.9844151765E-12
            xcart10    5.2808170650E+00  5.1011824413E+00  5.2808170650E+00
                       1.5842451195E+01  1.5349805591E+01  1.5842451195E+01
                       1.0561634130E+01  1.5742083159E+01  1.0561634130E+01
                       1.0561634130E+01  1.0243358996E+01  5.3437177133E+00
                       1.0561634130E+01  1.0243358996E+01  1.5779550547E+01
                       1.0561634130E+01  5.1570762995E+00  1.0561634130E+01
                       1.5779550547E+01  1.0243358996E+01  1.0561634130E+01
                       5.3437177133E+00  1.0243358996E+01  1.0561634130E+01
                      -4.9136482765E-12 -1.9062195119E-01 -4.9136482765E-12
             xred1     2.4865742730E-01  2.5134257270E-01  2.4865742730E-01
                       7.4865742730E-01  7.5134257270E-01  7.4865742730E-01
                       7.7067547658E-01  2.2932452342E-01  7.7067547658E-01
                       2.5095518142E-01  2.5220141661E-01  7.4779858339E-01
                       7.4779858339E-01  7.4904481858E-01  2.5095518142E-01
                       2.5028933299E-01  7.4971066701E-01  2.5028933299E-01
                       2.5095518142E-01  7.4904481858E-01  7.4779858339E-01
                       7.4779858339E-01  2.5220141661E-01  2.5095518142E-01
                      -8.7630147684E-03  8.7630147684E-03 -8.7630147684E-03
             xred2     2.4867130029E-01  2.5132869971E-01  2.4867130029E-01
                       7.4867130029E-01  7.5132869971E-01  7.4867130029E-01
                       7.7040968610E-01  2.2959031390E-01  7.7040968610E-01
                       2.5116022326E-01  2.5233014862E-01  7.4766985138E-01
                       7.4766985138E-01  7.4883977674E-01  2.5116022326E-01
                       2.5042629207E-01  7.4957370793E-01  2.5042629207E-01
                       2.5116022326E-01  7.4883977674E-01  7.4766985138E-01
                       7.4766985138E-01  2.5233014862E-01  2.5116022326E-01
                      -8.8145490373E-03  8.8145490373E-03 -8.8145490373E-03
             xred3     2.4867586843E-01  2.5132413157E-01  2.4867586843E-01
                       7.4867586843E-01  7.5132413157E-01  7.4867586843E-01
                       7.7013943719E-01  2.2986056281E-01  7.7013943719E-01
                       2.5136585408E-01  2.5245469711E-01  7.4754530289E-01
                       7.4754530289E-01  7.4863414592E-01  2.5136585408E-01
                       2.5056839229E-01  7.4943160771E-01  2.5056839229E-01
                       2.5136585408E-01  7.4863414592E-01  7.4754530289E-01
                       7.4754530289E-01  2.5245469711E-01  2.5136585408E-01
                      -8.8577012580E-03  8.8577012580E-03 -8.8577012580E-03
             xred4     2.4870120650E-01  2.5129879350E-01  2.4870120650E-01
                       7.4870120650E-01  7.5129879350E-01  7.4870120650E-01
                       7.6984509456E-01  2.3015490544E-01  7.6984509456E-01
                       2.5156734354E-01  2.5256855655E-01  7.4743144345E-01
                       7.4743144345E-01  7.4843265646E-01  2.5156734354E-01
                       2.5070498045E-01  7.4929501955E-01  2.5070498045E-01
                       2.5156734354E-01  7.4843265646E-01  7.4743144345E-01
                       7.4743144345E-01  2.5256855655E-01  2.5156734354E-01
                      -8.9258829652E-03  8.9258829652E-03 -8.9258829652E-03
             xred5     2.4875750389E-01  2.5124249611E-01  2.4875750389E-01
                       7.4875750389E-01  7.5124249611E-01  7.4875750389E-01
                       7.6953159613E-01  2.3046840387E-01  7.6953159613E-01
                       2.5174668950E-01  2.5268962462E-01  7.4731037538E-01
                       7.4731037538E-01  7.4825331050E-01  2.5174668950E-01
                       2.5085489342E-01  7.4914510658E-01  2.5085489342E-01
                       2.5174668950E-01  7.4825331050E-01  7.4731037538E-01
                       7.4731037538E-01  2.5268962462E-01  2.5174668950E-01
                      -8.9914480820E-03  8.9914480820E-03 -8.9914480820E-03
             xred6     2.4879882638E-01  2.5120117362E-01  2.4879882638E-01
                       7.4879882638E-01  7.5120117362E-01  7.4879882638E-01
                       7.6918840983E-01  2.3081159017E-01  7.6918840983E-01
                       2.5193288837E-01  2.5278726068E-01  7.4721273932E-01
                       7.4721273932E-01  7.4806711163E-01  2.5193288837E-01
                       2.5101802804E-01  7.4898197196E-01  2.5101802804E-01
                       2.5193288837E-01  7.4806711163E-01  7.4721273932E-01
                       7.4721273932E-01  2.5278726068E-01  2.5193288837E-01
                      -9.0711669838E-03  9.0711669838E-03 -9.0711669838E-03
             xred7     2.4878837293E-01  2.5121162707E-01  2.4878837293E-01
                       7.4878837293E-01  7.5121162707E-01  7.4878837293E-01
                       7.6890934835E-01  2.3109065165E-01  7.6890934835E-01
                       2.5213145400E-01  2.5289866024E-01  7.4710133976E-01
                       7.4710133976E-01  7.4786854600E-01  2.5213145400E-01
                       2.5118010119E-01  7.4881989881E-01  2.5118010119E-01
                       2.5213145400E-01  7.4786854600E-01  7.4710133976E-01
                       7.4710133976E-01  2.5289866024E-01  2.5213145400E-01
                      -9.1076038986E-03  9.1076038986E-03 -9.1076038986E-03
             xred8     2.4881264003E-01  2.5118735997E-01  2.4881264003E-01
                       7.4881264003E-01  7.5118735997E-01  7.4881264003E-01
                       7.6861153887E-01  2.3138846113E-01  7.6861153887E-01
                       2.5232905085E-01  2.5300883674E-01  7.4699116326E-01
                       7.4699116326E-01  7.4767094915E-01  2.5232905085E-01
                       2.5132012939E-01  7.4867987061E-01  2.5132012939E-01
                       2.5232905085E-01  7.4767094915E-01  7.4699116326E-01
                       7.4699116326E-01  2.5300883674E-01  2.5232905085E-01
                      -9.1731975318E-03  9.1731975318E-03 -9.1731975318E-03
             xred9     2.4886162419E-01  2.5113837581E-01  2.4886162419E-01
                       7.4886162419E-01  7.5113837581E-01  7.4886162419E-01
                       7.6829745759E-01  2.3170254241E-01  7.6829745759E-01
                       2.5252373381E-01  2.5312186448E-01  7.4687813552E-01
                       7.4687813552E-01  7.4747626619E-01  2.5252373381E-01
                       2.5144949118E-01  7.4855050882E-01  2.5144949118E-01
                       2.5252373381E-01  7.4747626619E-01  7.4687813552E-01
                       7.4687813552E-01  2.5312186448E-01  2.5252373381E-01
                      -9.2497567814E-03  9.2497567814E-03 -9.2497567814E-03
             xred10    2.4887159802E-01  2.5112840198E-01  2.4887159802E-01
                       7.4887159802E-01  7.5112840198E-01  7.4887159802E-01
                       7.6800965991E-01  2.3199034009E-01  7.6800965991E-01
                       2.5272096711E-01  2.5323461207E-01  7.4676538793E-01
                       7.4676538793E-01  7.4727903289E-01  2.5272096711E-01
                       2.5159849398E-01  7.4840150602E-01  2.5159849398E-01
                       2.5272096711E-01  7.4727903289E-01  7.4676538793E-01
                       7.4676538793E-01  2.5323461207E-01  2.5272096711E-01
                      -9.2998809895E-03  9.2998809895E-03 -9.2998809895E-03
            znucl       55.00000   53.00000   72.00000   17.00000

================================================================================


- Timing analysis has been suppressed with timopt=0



================================================================================

 Suggested references for the acknowledgment of ABINIT usage.

 The users of ABINIT have little formal obligations with respect to the ABINIT group
 (those specified in the GNU General Public License, http://www.gnu.org/copyleft/gpl.txt).
 However, it is common practice in the scientific literature,
 to acknowledge the efforts of people that have made the research possible.
 In this spirit, please find below suggested citations of work written by ABINIT developers,
 corresponding to implementations inside of ABINIT that you have used in the present run.
 Note also that it will be of great value to readers of publications presenting these results,
 to read papers enabling them to understand the theoretical formalism and details
 of the ABINIT implementation.
 For information on why they are suggested, see also https://docs.abinit.org/theory/acknowledgments.
-
- [1] Implementation of the Projector Augmented-Wave Method in the ABINIT code.
- M. Torrent, F. Jollet, F. Bottin, G. Zerah, and X. Gonze Comput. Mat. Science 42, 337, (2008).
- Comment: PAW calculations. Strong suggestion to cite this paper.
- DOI and bibtex: see https://docs.abinit.org/theory/bibliography/#torrent2008
-
- [2] Libxc: A library of exchange and correlation functionals for density functional theory.
- M.A.L. Marques, M.J.T. Oliveira, T. Burnus, Computer Physics Communications 183, 2227 (2012).
- Comment: to be cited when LibXC is used (negative value of ixc)
- Strong suggestion to cite this paper.
- DOI and bibtex: see https://docs.abinit.org/theory/bibliography/#marques2012
-
- [3] The Abinit project: Impact, environment and recent developments.
- Computer Phys. Comm. 248, 107042 (2020).
- X.Gonze, B. Amadon, G. Antonius, F.Arnardi, L.Baguet, J.-M.Beuken,
- J.Bieder, F.Bottin, J.Bouchet, E.Bousquet, N.Brouwer, F.Bruneval,
- G.Brunin, T.Cavignac, J.-B. Charraud, Wei Chen, M.Cote, S.Cottenier,
- J.Denier, G.Geneste, Ph.Ghosez, M.Giantomassi, Y.Gillet, O.Gingras,
- D.R.Hamann, G.Hautier, Xu He, N.Helbig, N.Holzwarth, Y.Jia, F.Jollet,
- W.Lafargue-Dit-Hauret, K.Lejaeghere, M.A.L.Marques, A.Martin, C.Martins,
- H.P.C. Miranda, F.Naccarato, K. Persson, G.Petretto, V.Planes, Y.Pouillon,
- S.Prokhorenko, F.Ricci, G.-M.Rignanese, A.H.Romero, M.M.Schmitt, M.Torrent,
- M.J.van Setten, B.Van Troeye, M.J.Verstraete, G.Zerah and J.W.Zwanzig
- Comment: the fifth generic paper describing the ABINIT project.
- Note that a version of this paper, that is not formatted for Computer Phys. Comm. 
- is available at https://www.abinit.org/sites/default/files/ABINIT20.pdf .
- The licence allows the authors to put it on the Web.
- DOI and bibtex: see https://docs.abinit.org/theory/bibliography/#gonze2020
-
- [4] ABINIT: Overview, and focus on selected capabilities
- J. Chem. Phys. 152, 124102 (2020).
- A. Romero, D.C. Allan, B. Amadon, G. Antonius, T. Applencourt, L.Baguet,
- J.Bieder, F.Bottin, J.Bouchet, E.Bousquet, F.Bruneval,
- G.Brunin, D.Caliste, M.Cote,
- J.Denier, C. Dreyer, Ph.Ghosez, M.Giantomassi, Y.Gillet, O.Gingras,
- D.R.Hamann, G.Hautier, F.Jollet, G. Jomard,
- A.Martin, 
- H.P.C. Miranda, F.Naccarato, G.Petretto, N.A. Pike, V.Planes,
- S.Prokhorenko, T. Rangel, F.Ricci, G.-M.Rignanese, M.Royo, M.Stengel, M.Torrent,
- M.J.van Setten, B.Van Troeye, M.J.Verstraete, J.Wiktor, J.W.Zwanziger, and X.Gonze.
- Comment: a global overview of ABINIT, with focus on selected capabilities .
- Note that a version of this paper, that is not formatted for J. Chem. Phys 
- is available at https://www.abinit.org/sites/default/files/ABINIT20_JPC.pdf .
- The licence allows the authors to put it on the Web.
- DOI and bibtex: see https://docs.abinit.org/theory/bibliography/#romero2020
-
- [5] Recent developments in the ABINIT software package.
- Computer Phys. Comm. 205, 106 (2016).
- X.Gonze, F.Jollet, F.Abreu Araujo, D.Adams, B.Amadon, T.Applencourt,
- C.Audouze, J.-M.Beuken, J.Bieder, A.Bokhanchuk, E.Bousquet, F.Bruneval
- D.Caliste, M.Cote, F.Dahm, F.Da Pieve, M.Delaveau, M.Di Gennaro,
- B.Dorado, C.Espejo, G.Geneste, L.Genovese, A.Gerossier, M.Giantomassi,
- Y.Gillet, D.R.Hamann, L.He, G.Jomard, J.Laflamme Janssen, S.Le Roux,
- A.Levitt, A.Lherbier, F.Liu, I.Lukacevic, A.Martin, C.Martins,
- M.J.T.Oliveira, S.Ponce, Y.Pouillon, T.Rangel, G.-M.Rignanese,
- A.H.Romero, B.Rousseau, O.Rubel, A.A.Shukri, M.Stankovski, M.Torrent,
- M.J.Van Setten, B.Van Troeye, M.J.Verstraete, D.Waroquier, J.Wiktor,
- B.Xu, A.Zhou, J.W.Zwanziger.
- Comment: the fourth generic paper describing the ABINIT project.
- Note that a version of this paper, that is not formatted for Computer Phys. Comm. 
- is available at https://www.abinit.org/sites/default/files/ABINIT16.pdf .
- The licence allows the authors to put it on the Web.
- DOI and bibtex: see https://docs.abinit.org/theory/bibliography/#gonze2016
-
- Proc.   0 individual time (sec): cpu=      14225.2  wall=      14264.2

================================================================================

 Calculation completed.
.Delivered   0 WARNINGs and  10 COMMENTs to log file.
+Overall time at end (sec) : cpu=      85494.1  wall=      85584.8
