
 **** DERIVATIVE DATABASE ****    
+DDB, Version number    100401

 Cs2TiI6 phonons on 4 4 4 mesh

    usepaw         1
     natom         9
      nkpt       256
    nsppol         1
      nsym        48
    ntypat         3
    occopt         1
     nband        42
     acell  0.16056750671000D+02  0.16056750671000D+02  0.16056750671000D+02
       amu  0.13290543000000D+03  0.12690447000000D+03  0.91224000000000D+02
   dilatmx  0.10000000000000D+01
      ecut  0.16000000000000D+02
 pawecutdg  0.40000000000000D+02
    ecutsm  0.00000000000000D+00
     intxc         0
      iscf         7
       ixc   -101130
       kpt -0.12500000000000D+00 -0.25000000000000D+00  0.00000000000000D+00
           -0.25000000000000D+00 -0.12500000000000D+00  0.00000000000000D+00
           -0.12500000000000D+00 -0.12500000000000D+00  0.12500000000000D+00
           -0.12500000000000D+00  0.50000000000000D+00  0.00000000000000D+00
           -0.25000000000000D+00 -0.37500000000000D+00  0.00000000000000D+00
           -0.12500000000000D+00 -0.37500000000000D+00  0.12500000000000D+00
           -0.37500000000000D+00 -0.25000000000000D+00  0.00000000000000D+00
           -0.25000000000000D+00 -0.25000000000000D+00  0.12500000000000D+00
           -0.12500000000000D+00 -0.25000000000000D+00  0.25000000000000D+00
            0.50000000000000D+00 -0.12500000000000D+00  0.00000000000000D+00
           -0.37500000000000D+00 -0.12500000000000D+00  0.12500000000000D+00
           -0.25000000000000D+00 -0.12500000000000D+00  0.25000000000000D+00
           -0.12500000000000D+00 -0.12500000000000D+00  0.37500000000000D+00
           -0.12500000000000D+00  0.25000000000000D+00  0.00000000000000D+00
           -0.25000000000000D+00  0.37500000000000D+00  0.00000000000000D+00
           -0.12500000000000D+00  0.37500000000000D+00  0.12500000000000D+00
           -0.37500000000000D+00  0.50000000000000D+00  0.00000000000000D+00
           -0.25000000000000D+00  0.50000000000000D+00  0.12500000000000D+00
           -0.12500000000000D+00  0.50000000000000D+00  0.25000000000000D+00
            0.50000000000000D+00 -0.37500000000000D+00  0.00000000000000D+00
           -0.37500000000000D+00 -0.37500000000000D+00  0.12500000000000D+00
           -0.25000000000000D+00 -0.37500000000000D+00  0.25000000000000D+00
           -0.12500000000000D+00 -0.37500000000000D+00  0.37500000000000D+00
            0.37500000000000D+00 -0.25000000000000D+00  0.00000000000000D+00
            0.50000000000000D+00 -0.25000000000000D+00  0.12500000000000D+00
           -0.37500000000000D+00 -0.25000000000000D+00  0.25000000000000D+00
           -0.25000000000000D+00 -0.25000000000000D+00  0.37500000000000D+00
           -0.12500000000000D+00 -0.25000000000000D+00  0.50000000000000D+00
            0.25000000000000D+00 -0.12500000000000D+00  0.00000000000000D+00
            0.37500000000000D+00 -0.12500000000000D+00  0.12500000000000D+00
            0.50000000000000D+00 -0.12500000000000D+00  0.25000000000000D+00
           -0.37500000000000D+00 -0.12500000000000D+00  0.37500000000000D+00
           -0.25000000000000D+00 -0.12500000000000D+00  0.50000000000000D+00
           -0.12500000000000D+00 -0.12500000000000D+00 -0.37500000000000D+00
           -0.12500000000000D+00  0.00000000000000D+00  0.00000000000000D+00
           -0.25000000000000D+00  0.12500000000000D+00  0.00000000000000D+00
           -0.12500000000000D+00  0.12500000000000D+00  0.12500000000000D+00
           -0.37500000000000D+00  0.25000000000000D+00  0.00000000000000D+00
           -0.25000000000000D+00  0.25000000000000D+00  0.12500000000000D+00
           -0.12500000000000D+00  0.25000000000000D+00  0.25000000000000D+00
            0.50000000000000D+00  0.37500000000000D+00  0.00000000000000D+00
           -0.37500000000000D+00  0.37500000000000D+00  0.12500000000000D+00
           -0.25000000000000D+00  0.37500000000000D+00  0.25000000000000D+00
           -0.12500000000000D+00  0.37500000000000D+00  0.37500000000000D+00
            0.37500000000000D+00  0.50000000000000D+00  0.00000000000000D+00
            0.50000000000000D+00  0.50000000000000D+00  0.12500000000000D+00
           -0.37500000000000D+00  0.50000000000000D+00  0.25000000000000D+00
           -0.25000000000000D+00  0.50000000000000D+00  0.37500000000000D+00
           -0.12500000000000D+00  0.50000000000000D+00  0.50000000000000D+00
            0.25000000000000D+00 -0.37500000000000D+00  0.00000000000000D+00
            0.37500000000000D+00 -0.37500000000000D+00  0.12500000000000D+00
            0.50000000000000D+00 -0.37500000000000D+00  0.25000000000000D+00
           -0.37500000000000D+00 -0.37500000000000D+00  0.37500000000000D+00
           -0.25000000000000D+00 -0.37500000000000D+00  0.50000000000000D+00
           -0.12500000000000D+00 -0.37500000000000D+00 -0.37500000000000D+00
            0.12500000000000D+00 -0.25000000000000D+00  0.00000000000000D+00
            0.25000000000000D+00 -0.25000000000000D+00  0.12500000000000D+00
            0.37500000000000D+00 -0.25000000000000D+00  0.25000000000000D+00
            0.50000000000000D+00 -0.25000000000000D+00  0.37500000000000D+00
           -0.37500000000000D+00 -0.25000000000000D+00  0.50000000000000D+00
           -0.25000000000000D+00 -0.25000000000000D+00 -0.37500000000000D+00
           -0.12500000000000D+00 -0.25000000000000D+00 -0.25000000000000D+00
            0.00000000000000D+00 -0.12500000000000D+00  0.00000000000000D+00
            0.12500000000000D+00 -0.12500000000000D+00  0.12500000000000D+00
            0.25000000000000D+00 -0.12500000000000D+00  0.25000000000000D+00
            0.37500000000000D+00 -0.12500000000000D+00  0.37500000000000D+00
            0.50000000000000D+00 -0.12500000000000D+00  0.50000000000000D+00
           -0.37500000000000D+00 -0.12500000000000D+00 -0.37500000000000D+00
           -0.25000000000000D+00 -0.12500000000000D+00 -0.25000000000000D+00
           -0.12500000000000D+00 -0.12500000000000D+00 -0.12500000000000D+00
           -0.37500000000000D+00  0.00000000000000D+00  0.00000000000000D+00
           -0.25000000000000D+00  0.00000000000000D+00  0.12500000000000D+00
           -0.12500000000000D+00  0.00000000000000D+00  0.25000000000000D+00
            0.50000000000000D+00  0.12500000000000D+00  0.00000000000000D+00
           -0.37500000000000D+00  0.12500000000000D+00  0.12500000000000D+00
           -0.25000000000000D+00  0.12500000000000D+00  0.25000000000000D+00
           -0.12500000000000D+00  0.12500000000000D+00  0.37500000000000D+00
            0.37500000000000D+00  0.25000000000000D+00  0.00000000000000D+00
            0.50000000000000D+00  0.25000000000000D+00  0.12500000000000D+00
           -0.37500000000000D+00  0.25000000000000D+00  0.25000000000000D+00
           -0.25000000000000D+00  0.25000000000000D+00  0.37500000000000D+00
           -0.12500000000000D+00  0.25000000000000D+00  0.50000000000000D+00
            0.25000000000000D+00  0.37500000000000D+00  0.00000000000000D+00
            0.37500000000000D+00  0.37500000000000D+00  0.12500000000000D+00
            0.50000000000000D+00  0.37500000000000D+00  0.25000000000000D+00
           -0.37500000000000D+00  0.37500000000000D+00  0.37500000000000D+00
           -0.25000000000000D+00  0.37500000000000D+00  0.50000000000000D+00
           -0.12500000000000D+00  0.37500000000000D+00 -0.37500000000000D+00
            0.12500000000000D+00  0.50000000000000D+00  0.00000000000000D+00
            0.25000000000000D+00  0.50000000000000D+00  0.12500000000000D+00
            0.37500000000000D+00  0.50000000000000D+00  0.25000000000000D+00
            0.50000000000000D+00  0.50000000000000D+00  0.37500000000000D+00
           -0.37500000000000D+00  0.50000000000000D+00  0.50000000000000D+00
           -0.25000000000000D+00  0.50000000000000D+00 -0.37500000000000D+00
           -0.12500000000000D+00  0.50000000000000D+00 -0.25000000000000D+00
            0.00000000000000D+00 -0.37500000000000D+00  0.00000000000000D+00
            0.12500000000000D+00 -0.37500000000000D+00  0.12500000000000D+00
            0.25000000000000D+00 -0.37500000000000D+00  0.25000000000000D+00
            0.37500000000000D+00 -0.37500000000000D+00  0.37500000000000D+00
            0.50000000000000D+00 -0.37500000000000D+00  0.50000000000000D+00
           -0.37500000000000D+00 -0.37500000000000D+00 -0.37500000000000D+00
           -0.25000000000000D+00 -0.37500000000000D+00 -0.25000000000000D+00
           -0.12500000000000D+00 -0.37500000000000D+00 -0.12500000000000D+00
            0.00000000000000D+00 -0.25000000000000D+00  0.12500000000000D+00
            0.12500000000000D+00 -0.25000000000000D+00  0.25000000000000D+00
            0.25000000000000D+00 -0.25000000000000D+00  0.37500000000000D+00
            0.37500000000000D+00 -0.25000000000000D+00  0.50000000000000D+00
            0.50000000000000D+00 -0.25000000000000D+00 -0.37500000000000D+00
           -0.37500000000000D+00 -0.25000000000000D+00 -0.25000000000000D+00
           -0.25000000000000D+00 -0.25000000000000D+00 -0.12500000000000D+00
            0.00000000000000D+00 -0.12500000000000D+00  0.25000000000000D+00
            0.12500000000000D+00 -0.12500000000000D+00  0.37500000000000D+00
            0.25000000000000D+00 -0.12500000000000D+00  0.50000000000000D+00
            0.37500000000000D+00 -0.12500000000000D+00 -0.37500000000000D+00
            0.50000000000000D+00 -0.12500000000000D+00 -0.25000000000000D+00
           -0.37500000000000D+00 -0.12500000000000D+00 -0.12500000000000D+00
            0.37500000000000D+00  0.00000000000000D+00  0.00000000000000D+00
            0.50000000000000D+00  0.00000000000000D+00  0.12500000000000D+00
           -0.37500000000000D+00  0.00000000000000D+00  0.25000000000000D+00
           -0.25000000000000D+00  0.00000000000000D+00  0.37500000000000D+00
           -0.12500000000000D+00  0.00000000000000D+00  0.50000000000000D+00
            0.25000000000000D+00  0.12500000000000D+00  0.00000000000000D+00
            0.37500000000000D+00  0.12500000000000D+00  0.12500000000000D+00
            0.50000000000000D+00  0.12500000000000D+00  0.25000000000000D+00
           -0.37500000000000D+00  0.12500000000000D+00  0.37500000000000D+00
           -0.25000000000000D+00  0.12500000000000D+00  0.50000000000000D+00
           -0.12500000000000D+00  0.12500000000000D+00 -0.37500000000000D+00
            0.12500000000000D+00  0.25000000000000D+00  0.00000000000000D+00
            0.25000000000000D+00  0.25000000000000D+00  0.12500000000000D+00
            0.37500000000000D+00  0.25000000000000D+00  0.25000000000000D+00
            0.50000000000000D+00  0.25000000000000D+00  0.37500000000000D+00
           -0.37500000000000D+00  0.25000000000000D+00  0.50000000000000D+00
           -0.25000000000000D+00  0.25000000000000D+00 -0.37500000000000D+00
           -0.12500000000000D+00  0.25000000000000D+00 -0.25000000000000D+00
            0.00000000000000D+00  0.37500000000000D+00  0.00000000000000D+00
            0.12500000000000D+00  0.37500000000000D+00  0.12500000000000D+00
            0.25000000000000D+00  0.37500000000000D+00  0.25000000000000D+00
            0.37500000000000D+00  0.37500000000000D+00  0.37500000000000D+00
            0.50000000000000D+00  0.37500000000000D+00  0.50000000000000D+00
           -0.37500000000000D+00  0.37500000000000D+00 -0.37500000000000D+00
           -0.25000000000000D+00  0.37500000000000D+00 -0.25000000000000D+00
           -0.12500000000000D+00  0.37500000000000D+00 -0.12500000000000D+00
            0.00000000000000D+00  0.50000000000000D+00  0.12500000000000D+00
            0.12500000000000D+00  0.50000000000000D+00  0.25000000000000D+00
            0.25000000000000D+00  0.50000000000000D+00  0.37500000000000D+00
            0.37500000000000D+00  0.50000000000000D+00  0.50000000000000D+00
            0.50000000000000D+00  0.50000000000000D+00 -0.37500000000000D+00
           -0.37500000000000D+00  0.50000000000000D+00 -0.25000000000000D+00
           -0.25000000000000D+00  0.50000000000000D+00 -0.12500000000000D+00
            0.00000000000000D+00 -0.37500000000000D+00  0.25000000000000D+00
            0.12500000000000D+00 -0.37500000000000D+00  0.37500000000000D+00
            0.25000000000000D+00 -0.37500000000000D+00  0.50000000000000D+00
            0.37500000000000D+00 -0.37500000000000D+00 -0.37500000000000D+00
            0.50000000000000D+00 -0.37500000000000D+00 -0.25000000000000D+00
           -0.37500000000000D+00 -0.37500000000000D+00 -0.12500000000000D+00
            0.00000000000000D+00 -0.25000000000000D+00  0.37500000000000D+00
            0.12500000000000D+00 -0.25000000000000D+00  0.50000000000000D+00
            0.25000000000000D+00 -0.25000000000000D+00 -0.37500000000000D+00
            0.37500000000000D+00 -0.25000000000000D+00 -0.25000000000000D+00
            0.50000000000000D+00 -0.25000000000000D+00 -0.12500000000000D+00
            0.00000000000000D+00 -0.12500000000000D+00  0.50000000000000D+00
            0.12500000000000D+00 -0.12500000000000D+00 -0.37500000000000D+00
            0.25000000000000D+00 -0.12500000000000D+00 -0.25000000000000D+00
            0.37500000000000D+00 -0.12500000000000D+00 -0.12500000000000D+00
            0.12500000000000D+00  0.00000000000000D+00  0.00000000000000D+00
            0.25000000000000D+00  0.00000000000000D+00  0.12500000000000D+00
            0.37500000000000D+00  0.00000000000000D+00  0.25000000000000D+00
            0.50000000000000D+00  0.00000000000000D+00  0.37500000000000D+00
           -0.37500000000000D+00  0.00000000000000D+00  0.50000000000000D+00
           -0.25000000000000D+00  0.00000000000000D+00 -0.37500000000000D+00
           -0.12500000000000D+00  0.00000000000000D+00 -0.25000000000000D+00
            0.00000000000000D+00  0.12500000000000D+00  0.00000000000000D+00
            0.12500000000000D+00  0.12500000000000D+00  0.12500000000000D+00
            0.25000000000000D+00  0.12500000000000D+00  0.25000000000000D+00
            0.37500000000000D+00  0.12500000000000D+00  0.37500000000000D+00
            0.50000000000000D+00  0.12500000000000D+00  0.50000000000000D+00
           -0.37500000000000D+00  0.12500000000000D+00 -0.37500000000000D+00
           -0.25000000000000D+00  0.12500000000000D+00 -0.25000000000000D+00
           -0.12500000000000D+00  0.12500000000000D+00 -0.12500000000000D+00
            0.00000000000000D+00  0.25000000000000D+00  0.12500000000000D+00
            0.12500000000000D+00  0.25000000000000D+00  0.25000000000000D+00
            0.25000000000000D+00  0.25000000000000D+00  0.37500000000000D+00
            0.37500000000000D+00  0.25000000000000D+00  0.50000000000000D+00
            0.50000000000000D+00  0.25000000000000D+00 -0.37500000000000D+00
           -0.37500000000000D+00  0.25000000000000D+00 -0.25000000000000D+00
           -0.25000000000000D+00  0.25000000000000D+00 -0.12500000000000D+00
            0.00000000000000D+00  0.37500000000000D+00  0.25000000000000D+00
            0.12500000000000D+00  0.37500000000000D+00  0.37500000000000D+00
            0.25000000000000D+00  0.37500000000000D+00  0.50000000000000D+00
            0.37500000000000D+00  0.37500000000000D+00 -0.37500000000000D+00
            0.50000000000000D+00  0.37500000000000D+00 -0.25000000000000D+00
           -0.37500000000000D+00  0.37500000000000D+00 -0.12500000000000D+00
            0.00000000000000D+00  0.50000000000000D+00  0.37500000000000D+00
            0.12500000000000D+00  0.50000000000000D+00  0.50000000000000D+00
            0.25000000000000D+00  0.50000000000000D+00 -0.37500000000000D+00
            0.37500000000000D+00  0.50000000000000D+00 -0.25000000000000D+00
            0.50000000000000D+00  0.50000000000000D+00 -0.12500000000000D+00
            0.00000000000000D+00 -0.37500000000000D+00  0.50000000000000D+00
            0.12500000000000D+00 -0.37500000000000D+00 -0.37500000000000D+00
            0.25000000000000D+00 -0.37500000000000D+00 -0.25000000000000D+00
            0.37500000000000D+00 -0.37500000000000D+00 -0.12500000000000D+00
            0.00000000000000D+00 -0.25000000000000D+00 -0.37500000000000D+00
            0.12500000000000D+00 -0.25000000000000D+00 -0.25000000000000D+00
            0.25000000000000D+00 -0.25000000000000D+00 -0.12500000000000D+00
            0.00000000000000D+00 -0.12500000000000D+00 -0.25000000000000D+00
            0.12500000000000D+00 -0.12500000000000D+00 -0.12500000000000D+00
            0.00000000000000D+00  0.00000000000000D+00  0.12500000000000D+00
            0.12500000000000D+00  0.00000000000000D+00  0.25000000000000D+00
            0.25000000000000D+00  0.00000000000000D+00  0.37500000000000D+00
            0.37500000000000D+00  0.00000000000000D+00  0.50000000000000D+00
            0.50000000000000D+00  0.00000000000000D+00 -0.37500000000000D+00
           -0.37500000000000D+00  0.00000000000000D+00 -0.25000000000000D+00
           -0.25000000000000D+00  0.00000000000000D+00 -0.12500000000000D+00
            0.00000000000000D+00  0.12500000000000D+00  0.25000000000000D+00
            0.12500000000000D+00  0.12500000000000D+00  0.37500000000000D+00
            0.25000000000000D+00  0.12500000000000D+00  0.50000000000000D+00
            0.37500000000000D+00  0.12500000000000D+00 -0.37500000000000D+00
            0.50000000000000D+00  0.12500000000000D+00 -0.25000000000000D+00
           -0.37500000000000D+00  0.12500000000000D+00 -0.12500000000000D+00
            0.00000000000000D+00  0.25000000000000D+00  0.37500000000000D+00
            0.12500000000000D+00  0.25000000000000D+00  0.50000000000000D+00
            0.25000000000000D+00  0.25000000000000D+00 -0.37500000000000D+00
            0.37500000000000D+00  0.25000000000000D+00 -0.25000000000000D+00
            0.50000000000000D+00  0.25000000000000D+00 -0.12500000000000D+00
            0.00000000000000D+00  0.37500000000000D+00  0.50000000000000D+00
            0.12500000000000D+00  0.37500000000000D+00 -0.37500000000000D+00
            0.25000000000000D+00  0.37500000000000D+00 -0.25000000000000D+00
            0.37500000000000D+00  0.37500000000000D+00 -0.12500000000000D+00
            0.00000000000000D+00  0.50000000000000D+00 -0.37500000000000D+00
            0.12500000000000D+00  0.50000000000000D+00 -0.25000000000000D+00
            0.25000000000000D+00  0.50000000000000D+00 -0.12500000000000D+00
            0.00000000000000D+00 -0.37500000000000D+00 -0.25000000000000D+00
            0.12500000000000D+00 -0.37500000000000D+00 -0.12500000000000D+00
            0.00000000000000D+00 -0.25000000000000D+00 -0.12500000000000D+00
            0.00000000000000D+00  0.00000000000000D+00  0.37500000000000D+00
            0.12500000000000D+00  0.00000000000000D+00  0.50000000000000D+00
            0.25000000000000D+00  0.00000000000000D+00 -0.37500000000000D+00
            0.37500000000000D+00  0.00000000000000D+00 -0.25000000000000D+00
            0.50000000000000D+00  0.00000000000000D+00 -0.12500000000000D+00
            0.00000000000000D+00  0.12500000000000D+00  0.50000000000000D+00
            0.12500000000000D+00  0.12500000000000D+00 -0.37500000000000D+00
            0.25000000000000D+00  0.12500000000000D+00 -0.25000000000000D+00
            0.37500000000000D+00  0.12500000000000D+00 -0.12500000000000D+00
            0.00000000000000D+00  0.25000000000000D+00 -0.37500000000000D+00
            0.12500000000000D+00  0.25000000000000D+00 -0.25000000000000D+00
            0.25000000000000D+00  0.25000000000000D+00 -0.12500000000000D+00
            0.00000000000000D+00  0.37500000000000D+00 -0.25000000000000D+00
            0.12500000000000D+00  0.37500000000000D+00 -0.12500000000000D+00
            0.00000000000000D+00  0.50000000000000D+00 -0.12500000000000D+00
            0.00000000000000D+00  0.00000000000000D+00 -0.37500000000000D+00
            0.12500000000000D+00  0.00000000000000D+00 -0.25000000000000D+00
            0.25000000000000D+00  0.00000000000000D+00 -0.12500000000000D+00
            0.00000000000000D+00  0.12500000000000D+00 -0.25000000000000D+00
            0.12500000000000D+00  0.12500000000000D+00 -0.12500000000000D+00
            0.00000000000000D+00  0.25000000000000D+00 -0.12500000000000D+00
            0.00000000000000D+00  0.00000000000000D+00 -0.12500000000000D+00
    kptnrm  0.10000000000000D+01
     ngfft        54   54   54
    nspden         1
   nspinor         1
       occ  0.20000000000000D+01  0.20000000000000D+01  0.20000000000000D+01
            0.20000000000000D+01  0.20000000000000D+01  0.20000000000000D+01
            0.20000000000000D+01  0.20000000000000D+01  0.20000000000000D+01
            0.20000000000000D+01  0.20000000000000D+01  0.20000000000000D+01
            0.20000000000000D+01  0.20000000000000D+01  0.20000000000000D+01
            0.20000000000000D+01  0.20000000000000D+01  0.20000000000000D+01
            0.20000000000000D+01  0.20000000000000D+01  0.20000000000000D+01
            0.20000000000000D+01  0.20000000000000D+01  0.20000000000000D+01
            0.20000000000000D+01  0.20000000000000D+01  0.20000000000000D+01
            0.20000000000000D+01  0.20000000000000D+01  0.20000000000000D+01
            0.20000000000000D+01  0.20000000000000D+01  0.20000000000000D+01
            0.20000000000000D+01  0.20000000000000D+01  0.20000000000000D+01
            0.00000000000000D+00  0.00000000000000D+00  0.00000000000000D+00
            0.00000000000000D+00  0.00000000000000D+00  0.00000000000000D+00
     rprim  0.00000000000000D+00  0.63639610307100D+00  0.63639610307100D+00
            0.63639610307100D+00  0.00000000000000D+00  0.63639610307100D+00
            0.63639610307100D+00  0.63639610307100D+00  0.00000000000000D+00
  dfpt_sciss  0.00000000000000D+00
    spinat  0.00000000000000D+00  0.00000000000000D+00  0.00000000000000D+00
            0.00000000000000D+00  0.00000000000000D+00  0.00000000000000D+00
            0.00000000000000D+00  0.00000000000000D+00  0.00000000000000D+00
            0.00000000000000D+00  0.00000000000000D+00  0.00000000000000D+00
            0.00000000000000D+00  0.00000000000000D+00  0.00000000000000D+00
            0.00000000000000D+00  0.00000000000000D+00  0.00000000000000D+00
            0.00000000000000D+00  0.00000000000000D+00  0.00000000000000D+00
            0.00000000000000D+00  0.00000000000000D+00  0.00000000000000D+00
            0.00000000000000D+00  0.00000000000000D+00  0.00000000000000D+00
    symafm         1    1    1    1    1    1    1    1    1    1    1    1
                   1    1    1    1    1    1    1    1    1    1    1    1
                   1    1    1    1    1    1    1    1    1    1    1    1
                   1    1    1    1    1    1    1    1    1    1    1    1
    symrel         1    0    0    0    1    0    0    0    1
                  -1    0    0    0   -1    0    0    0   -1
                   0   -1    1    0   -1    0    1   -1    0
                   0    1   -1    0    1    0   -1    1    0
                  -1    0    0   -1    0    1   -1    1    0
                   1    0    0    1    0   -1    1   -1    0
                   0    1   -1    1    0   -1    0    0   -1
                   0   -1    1   -1    0    1    0    0    1
                  -1    0    0   -1    1    0   -1    0    1
                   1    0    0    1   -1    0    1    0   -1
                   0   -1    1    1   -1    0    0   -1    0
                   0    1   -1   -1    1    0    0    1    0
                   1    0    0    0    0    1    0    1    0
                  -1    0    0    0    0   -1    0   -1    0
                   0    1   -1    0    0   -1    1    0   -1
                   0   -1    1    0    0    1   -1    0    1
                  -1    0    1   -1    1    0   -1    0    0
                   1    0   -1    1   -1    0    1    0    0
                   0   -1    0    1   -1    0    0   -1    1
                   0    1    0   -1    1    0    0    1   -1
                   1    0   -1    0    0   -1    0    1   -1
                  -1    0    1    0    0    1    0   -1    1
                   0    1    0    0    0    1    1    0    0
                   0   -1    0    0    0   -1   -1    0    0
                   1    0   -1    0    1   -1    0    0   -1
                  -1    0    1    0   -1    1    0    0    1
                   0   -1    0    0   -1    1    1   -1    0
                   0    1    0    0    1   -1   -1    1    0
                  -1    0    1   -1    0    0   -1    1    0
                   1    0   -1    1    0    0    1   -1    0
                   0    1    0    1    0    0    0    0    1
                   0   -1    0   -1    0    0    0    0   -1
                   0    0   -1    0    1   -1    1    0   -1
                   0    0    1    0   -1    1   -1    0    1
                   1   -1    0    0   -1    1    0   -1    0
                  -1    1    0    0    1   -1    0    1    0
                   0    0    1    1    0    0    0    1    0
                   0    0   -1   -1    0    0    0   -1    0
                  -1    1    0   -1    0    0   -1    0    1
                   1   -1    0    1    0    0    1    0   -1
                   0    0    1    0    1    0    1    0    0
                   0    0   -1    0   -1    0   -1    0    0
                   1   -1    0    0   -1    0    0   -1    1
                  -1    1    0    0    1    0    0    1   -1
                   0    0   -1    1    0   -1    0    1   -1
                   0    0    1   -1    0    1    0   -1    1
                  -1    1    0   -1    0    1   -1    0    0
                   1   -1    0    1    0   -1    1    0    0
     tnons  0.00000000000000D+00  0.00000000000000D+00  0.00000000000000D+00
            0.66415735044000D-18 -0.14243902813400D-20 -0.54747616850000D-18
            0.60581675947000D-18  0.56916200688660D-19 -0.60581675947000D-18
            0.58340590970000D-19 -0.58340590970000D-19  0.58340590970000D-19
            0.38970707104933D-18  0.27302588910933D-18 -0.27302588910933D-18
            0.27445027939067D-18 -0.27445027939067D-18 -0.27445027939067D-18
            0.33279087036067D-18 -0.33279087036067D-18 -0.21610968842067D-18
            0.33136648007933D-18  0.33136648007933D-18 -0.33136648007933D-18
            0.38970707104933D-18  0.00000000000000D+00  0.00000000000000D+00
            0.27445027939067D-18 -0.14243902813400D-20 -0.54747616850000D-18
            0.33279087036067D-18  0.56916200688660D-19 -0.60581675947000D-18
            0.33136648007933D-18 -0.58340590970000D-19  0.58340590970000D-19
            0.00000000000000D+00  0.27302588910933D-18 -0.27302588910933D-18
            0.66415735044000D-18 -0.27445027939067D-18 -0.27445027939067D-18
            0.60581675947000D-18 -0.33279087036067D-18 -0.21610968842067D-18
            0.58340590970000D-19  0.33136648007933D-18 -0.33136648007933D-18
            0.38970707104933D-18  0.00000000000000D+00 -0.60581675947000D-18
            0.27445027939067D-18 -0.14243902813400D-20  0.58340590970000D-19
            0.33279087036067D-18  0.56916200688660D-19  0.00000000000000D+00
            0.33136648007933D-18 -0.58340590970000D-19 -0.54747616850000D-18
            0.00000000000000D+00  0.27302588910933D-18 -0.21610968842067D-18
            0.66415735044000D-18 -0.27445027939067D-18 -0.33136648007933D-18
            0.60581675947000D-18 -0.33279087036067D-18 -0.27302588910933D-18
            0.58340590970000D-19  0.33136648007933D-18 -0.27445027939067D-18
            0.00000000000000D+00  0.00000000000000D+00 -0.21610968842067D-18
            0.66415735044000D-18 -0.14243902813400D-20 -0.33136648007933D-18
            0.60581675947000D-18  0.56916200688660D-19 -0.27302588910933D-18
            0.58340590970000D-19 -0.58340590970000D-19 -0.27445027939067D-18
            0.38970707104933D-18  0.27302588910933D-18 -0.60581675947000D-18
            0.27445027939067D-18 -0.27445027939067D-18  0.58340590970000D-19
            0.33279087036067D-18 -0.33279087036067D-18  0.00000000000000D+00
            0.33136648007933D-18  0.33136648007933D-18 -0.54747616850000D-18
            0.60581675947000D-18  0.00000000000000D+00 -0.21610968842067D-18
            0.58340590970000D-19 -0.14243902813400D-20 -0.33136648007933D-18
            0.00000000000000D+00  0.56916200688660D-19 -0.27302588910933D-18
            0.66415735044000D-18 -0.58340590970000D-19 -0.27445027939067D-18
            0.33279087036067D-18  0.27302588910933D-18 -0.60581675947000D-18
            0.33136648007933D-18 -0.27445027939067D-18  0.58340590970000D-19
            0.38970707104933D-18 -0.33279087036067D-18  0.00000000000000D+00
            0.27445027939067D-18  0.33136648007933D-18 -0.54747616850000D-18
            0.60581675947000D-18  0.00000000000000D+00 -0.60581675947000D-18
            0.58340590970000D-19 -0.14243902813400D-20  0.58340590970000D-19
            0.00000000000000D+00  0.56916200688660D-19  0.00000000000000D+00
            0.66415735044000D-18 -0.58340590970000D-19 -0.54747616850000D-18
            0.33279087036067D-18  0.27302588910933D-18 -0.21610968842067D-18
            0.33136648007933D-18 -0.27445027939067D-18 -0.33136648007933D-18
            0.38970707104933D-18 -0.33279087036067D-18 -0.27302588910933D-18
            0.27445027939067D-18  0.33136648007933D-18 -0.27445027939067D-18
    tolwfr  0.10000000000000D+01
   tphysel  0.00000000000000D+00
    tsmear  0.10000000000000D-01
     typat         1    1    2    2    2    2    2    2    3
       wtk  0.39062500000000D-02  0.39062500000000D-02  0.39062500000000D-02
            0.39062500000000D-02  0.39062500000000D-02  0.39062500000000D-02
            0.39062500000000D-02  0.39062500000000D-02  0.39062500000000D-02
            0.39062500000000D-02  0.39062500000000D-02  0.39062500000000D-02
            0.39062500000000D-02  0.39062500000000D-02  0.39062500000000D-02
            0.39062500000000D-02  0.39062500000000D-02  0.39062500000000D-02
            0.39062500000000D-02  0.39062500000000D-02  0.39062500000000D-02
            0.39062500000000D-02  0.39062500000000D-02  0.39062500000000D-02
            0.39062500000000D-02  0.39062500000000D-02  0.39062500000000D-02
            0.39062500000000D-02  0.39062500000000D-02  0.39062500000000D-02
            0.39062500000000D-02  0.39062500000000D-02  0.39062500000000D-02
            0.39062500000000D-02  0.39062500000000D-02  0.39062500000000D-02
            0.39062500000000D-02  0.39062500000000D-02  0.39062500000000D-02
            0.39062500000000D-02  0.39062500000000D-02  0.39062500000000D-02
            0.39062500000000D-02  0.39062500000000D-02  0.39062500000000D-02
            0.39062500000000D-02  0.39062500000000D-02  0.39062500000000D-02
            0.39062500000000D-02  0.39062500000000D-02  0.39062500000000D-02
            0.39062500000000D-02  0.39062500000000D-02  0.39062500000000D-02
            0.39062500000000D-02  0.39062500000000D-02  0.39062500000000D-02
            0.39062500000000D-02  0.39062500000000D-02  0.39062500000000D-02
            0.39062500000000D-02  0.39062500000000D-02  0.39062500000000D-02
            0.39062500000000D-02  0.39062500000000D-02  0.39062500000000D-02
            0.39062500000000D-02  0.39062500000000D-02  0.39062500000000D-02
            0.39062500000000D-02  0.39062500000000D-02  0.39062500000000D-02
            0.39062500000000D-02  0.39062500000000D-02  0.39062500000000D-02
            0.39062500000000D-02  0.39062500000000D-02  0.39062500000000D-02
            0.39062500000000D-02  0.39062500000000D-02  0.39062500000000D-02
            0.39062500000000D-02  0.39062500000000D-02  0.39062500000000D-02
            0.39062500000000D-02  0.39062500000000D-02  0.39062500000000D-02
            0.39062500000000D-02  0.39062500000000D-02  0.39062500000000D-02
            0.39062500000000D-02  0.39062500000000D-02  0.39062500000000D-02
            0.39062500000000D-02  0.39062500000000D-02  0.39062500000000D-02
            0.39062500000000D-02  0.39062500000000D-02  0.39062500000000D-02
            0.39062500000000D-02  0.39062500000000D-02  0.39062500000000D-02
            0.39062500000000D-02  0.39062500000000D-02  0.39062500000000D-02
            0.39062500000000D-02  0.39062500000000D-02  0.39062500000000D-02
            0.39062500000000D-02  0.39062500000000D-02  0.39062500000000D-02
            0.39062500000000D-02  0.39062500000000D-02  0.39062500000000D-02
            0.39062500000000D-02  0.39062500000000D-02  0.39062500000000D-02
            0.39062500000000D-02  0.39062500000000D-02  0.39062500000000D-02
            0.39062500000000D-02  0.39062500000000D-02  0.39062500000000D-02
            0.39062500000000D-02  0.39062500000000D-02  0.39062500000000D-02
            0.39062500000000D-02  0.39062500000000D-02  0.39062500000000D-02
            0.39062500000000D-02  0.39062500000000D-02  0.39062500000000D-02
            0.39062500000000D-02  0.39062500000000D-02  0.39062500000000D-02
            0.39062500000000D-02  0.39062500000000D-02  0.39062500000000D-02
            0.39062500000000D-02  0.39062500000000D-02  0.39062500000000D-02
            0.39062500000000D-02  0.39062500000000D-02  0.39062500000000D-02
            0.39062500000000D-02  0.39062500000000D-02  0.39062500000000D-02
            0.39062500000000D-02  0.39062500000000D-02  0.39062500000000D-02
            0.39062500000000D-02  0.39062500000000D-02  0.39062500000000D-02
            0.39062500000000D-02  0.39062500000000D-02  0.39062500000000D-02
            0.39062500000000D-02  0.39062500000000D-02  0.39062500000000D-02
            0.39062500000000D-02  0.39062500000000D-02  0.39062500000000D-02
            0.39062500000000D-02  0.39062500000000D-02  0.39062500000000D-02
            0.39062500000000D-02  0.39062500000000D-02  0.39062500000000D-02
            0.39062500000000D-02  0.39062500000000D-02  0.39062500000000D-02
            0.39062500000000D-02  0.39062500000000D-02  0.39062500000000D-02
            0.39062500000000D-02  0.39062500000000D-02  0.39062500000000D-02
            0.39062500000000D-02  0.39062500000000D-02  0.39062500000000D-02
            0.39062500000000D-02  0.39062500000000D-02  0.39062500000000D-02
            0.39062500000000D-02  0.39062500000000D-02  0.39062500000000D-02
            0.39062500000000D-02  0.39062500000000D-02  0.39062500000000D-02
            0.39062500000000D-02  0.39062500000000D-02  0.39062500000000D-02
            0.39062500000000D-02  0.39062500000000D-02  0.39062500000000D-02
            0.39062500000000D-02  0.39062500000000D-02  0.39062500000000D-02
            0.39062500000000D-02  0.39062500000000D-02  0.39062500000000D-02
            0.39062500000000D-02  0.39062500000000D-02  0.39062500000000D-02
            0.39062500000000D-02  0.39062500000000D-02  0.39062500000000D-02
            0.39062500000000D-02  0.39062500000000D-02  0.39062500000000D-02
            0.39062500000000D-02  0.39062500000000D-02  0.39062500000000D-02
            0.39062500000000D-02  0.39062500000000D-02  0.39062500000000D-02
            0.39062500000000D-02  0.39062500000000D-02  0.39062500000000D-02
            0.39062500000000D-02  0.39062500000000D-02  0.39062500000000D-02
            0.39062500000000D-02  0.39062500000000D-02  0.39062500000000D-02
            0.39062500000000D-02  0.39062500000000D-02  0.39062500000000D-02
            0.39062500000000D-02  0.39062500000000D-02  0.39062500000000D-02
            0.39062500000000D-02  0.39062500000000D-02  0.39062500000000D-02
            0.39062500000000D-02  0.39062500000000D-02  0.39062500000000D-02
            0.39062500000000D-02  0.39062500000000D-02  0.39062500000000D-02
            0.39062500000000D-02  0.39062500000000D-02  0.39062500000000D-02
            0.39062500000000D-02  0.39062500000000D-02  0.39062500000000D-02
            0.39062500000000D-02  0.39062500000000D-02  0.39062500000000D-02
            0.39062500000000D-02  0.39062500000000D-02  0.39062500000000D-02
            0.39062500000000D-02  0.39062500000000D-02  0.39062500000000D-02
            0.39062500000000D-02
      xred  0.25000000000000D+00  0.25000000000000D+00  0.25000000000000D+00
            0.75000000000000D+00  0.75000000000000D+00  0.75000000000000D+00
            0.25831899723000D+00  0.25831899723000D+00  0.74168100277000D+00
            0.74168100277000D+00  0.74168100277000D+00  0.25831899723000D+00
            0.25831899723000D+00  0.74168100277000D+00  0.74168100277000D+00
            0.74168100277000D+00  0.25831899723000D+00  0.74168100277000D+00
            0.25831899723000D+00  0.74168100277000D+00  0.25831899723000D+00
            0.74168100277000D+00  0.25831899723000D+00  0.25831899723000D+00
            0.33207867522000D-18 -0.71219514066998D-21 -0.27373808425000D-18
     znucl  0.55000000000000D+02  0.53000000000000D+02  0.40000000000000D+02
      zion  0.90000000000000D+01  0.70000000000000D+01  0.12000000000000D+02
 
  Description of the PAW dataset(s)
  vrsio8 (for pseudopotentials)=100401
  usepaw =  1
  Atom type=   1 basis_size=  6   lmn_size=   18
    Basis functions= 0 0 1 1 2 2
    r_PAW=  2.207 shape_type=  2  r_shape=  2.004
    Dij0=     (only the  27 values different from zero)
       i    j     Dij0        i    j     Dij0        i    j     Dij0        i    j     Dij0
       1    1  4.86699E-02    1    2 -1.19907E-02    2    2 -1.05555E-03    3    3  3.25734E-02
       4    4  3.25734E-02    5    5  3.25734E-02    3    6 -3.13059E-01    6    6  4.43300E-01
       4    7 -3.13059E-01    7    7  4.43300E-01    5    8 -3.13059E-01    8    8  4.43300E-01
       9    9  2.15685E-02   10   10  2.15685E-02   11   11  2.15685E-02   12   12  2.15685E-02
      13   13  2.15685E-02    9   14  2.69892E-01   14   14  2.63737E+00   10   15  2.69892E-01
      15   15  2.63737E+00   11   16  2.69892E-01   16   16  2.63737E+00   12   17  2.69892E-01
      17   17  2.63737E+00   13   18  2.69892E-01   18   18  2.63737E+00
  Atom type=   2 basis_size=  4   lmn_size=    8
    Basis functions= 0 0 1 1
    r_PAW=  2.300 shape_type=  2  r_shape=  2.109
    Dij0=     (only the  12 values different from zero)
       i    j     Dij0        i    j     Dij0        i    j     Dij0        i    j     Dij0
       1    1 -5.71520E-01    1    2  1.28145E+00    2    2 -4.38625E+00    3    3 -1.99658E-01
       4    4 -1.99658E-01    5    5 -1.99658E-01    3    6  7.83058E-01    6    6 -4.13016E+00
       4    7  7.83058E-01    7    7 -4.13016E+00    5    8  7.83058E-01    8    8 -4.13016E+00
  Atom type=   3 basis_size=  6   lmn_size=   18
    Basis functions= 0 0 1 1 2 2
    r_PAW=  2.210 shape_type=  3  r_shape=  2.210
    Dij0=     (only the  27 values different from zero)
       i    j     Dij0        i    j     Dij0        i    j     Dij0        i    j     Dij0
       1    1  1.93880E+00    1    2 -5.39888E-01    2    2  1.53755E-01    3    3  1.08172E+00
       4    4  1.08172E+00    5    5  1.08172E+00    3    6 -2.40205E-01    6    6  5.50430E-02
       4    7 -2.40205E-01    7    7  5.50430E-02    5    8 -2.40205E-01    8    8  5.50430E-02
       9    9  7.47981E-01   10   10  7.47981E-01   11   11  7.47981E-01   12   12  7.47981E-01
      13   13  7.47981E-01    9   14  2.05614E+00   14   14  5.65244E+00   10   15  2.05614E+00
      15   15  5.65244E+00   11   16  2.05614E+00   16   16  5.65244E+00   12   17  2.05614E+00
      17   17  5.65244E+00   13   18  2.05614E+00   18   18  5.65244E+00
 
 **** Database of total energy derivatives ****
 Number of data blocks=    8
  
 2nd derivatives (non-stat.)  - # elements :     906
 qpt  0.00000000E+00  0.00000000E+00  0.00000000E+00   1.0
   1   1   1   1  0.42199684842517D+01  0.00000000000000D+00
   2   1   1   1  0.21099842421256D+01  0.00000000000000D+00
   3   1   1   1  0.21099842421263D+01  0.00000000000000D+00
   1   2   1   1 -0.12792630870168D+00  0.00000000000000D+00
   2   2   1   1 -0.63963154350845D-01  0.00000000000000D+00
   3   2   1   1 -0.63963154350853D-01  0.00000000000000D+00
   1   3   1   1 -0.47308625558314D+00  0.24015014568392D-17
   2   3   1   1 -0.53692729168267D+00 -0.27181960767325D-18
   3   3   1   1 -0.10845353841428D+01 -0.95303621427995D-18
   1   4   1   1 -0.47308625558315D+00  0.20890728853144D-17
   2   4   1   1  0.61144912855957D+00 -0.75403820275936D-17
   3   4   1   1  0.63841036099559D-01  0.78616041337152D-18
   1   5   1   1  0.12768207219912D+00  0.20639847591500D-17
   2   5   1   1  0.63841036099557D-01  0.24277420923406D-17
   3   5   1   1  0.63841036099543D-01 -0.53062243044808D-18
   1   6   1   1 -0.47308625558314D+00 -0.62678916987165D-17
   2   6   1   1  0.63841036099546D-01  0.11357156608741D-17
   3   6   1   1  0.61144912855960D+00 -0.43982124886300D-17
   1   7   1   1 -0.47308625558314D+00  0.17462355060381D-17
   2   7   1   1 -0.10845353841428D+01 -0.50697286780563D-19
   3   7   1   1 -0.53692729168268D+00 -0.10129765586519D-17
   1   8   1   1 -0.21690707682856D+01 -0.10316781558179D-17
   2   8   1   1 -0.10845353841428D+01 -0.13329804024774D-17
   3   8   1   1 -0.10845353841428D+01  0.50267661761376D-18
   1   9   1   1 -0.25547613777773D+00 -0.12118979867835D-16
   2   9   1   1 -0.12773806888884D+00 -0.51333858399735D-17
   3   9   1   1 -0.12773806888887D+00 -0.40387688075892D-16
   1  11   1   1 -0.47720564660827D+02  0.00000000000000D+00
   2  11   1   1 -0.66023862459531D-05  0.00000000000000D+00
   3  11   1   1 -0.77387854029567D-05  0.00000000000000D+00
   1   1   2   1  0.21099842421249D+01  0.00000000000000D+00
   2   1   2   1  0.42199684842526D+01  0.00000000000000D+00
   3   1   2   1  0.21099842421261D+01  0.00000000000000D+00
   1   2   2   1 -0.63963154350839D-01  0.00000000000000D+00
   2   2   2   1 -0.12792630870166D+00  0.00000000000000D+00
   3   2   2   1 -0.63963154350850D-01  0.00000000000000D+00
   1   3   2   1 -0.53692729168267D+00 -0.27181960767325D-18
   2   3   2   1 -0.47308625558314D+00  0.18015033371441D-17
   3   3   2   1 -0.10845353841428D+01 -0.23718060048735D-17
   1   4   2   1  0.61144912855959D+00 -0.75403820275936D-17
   2   4   2   1 -0.47308625558313D+00  0.34766292553280D-17
   3   4   2   1  0.63841036099564D-01  0.29740023224857D-19
   1   5   2   1  0.63841036099559D-01  0.24277420923406D-17
   2   5   2   1 -0.47308625558313D+00  0.24697511475603D-17
   3   5   2   1  0.61144912855961D+00  0.42929908128299D-17
   1   6   2   1  0.63841036099546D-01  0.11357156608741D-17
   2   6   2   1  0.12768207219910D+00  0.13297633036216D-17
   3   6   2   1  0.63841036099549D-01  0.17738593504425D-17
   1   7   2   1 -0.10845353841428D+01 -0.50697286780563D-19
   2   7   2   1 -0.21690707682855D+01  0.47409322344599D-18
   3   7   2   1 -0.10845353841428D+01  0.11479403420939D-17
   1   8   2   1 -0.10845353841428D+01 -0.13329804024774D-17
   2   8   2   1 -0.47308625558313D+00  0.15013438444818D-17
   3   8   2   1 -0.53692729168270D+00 -0.27624783287720D-18
   1   9   2   1 -0.12773806888886D+00 -0.51333858399735D-17
   2   9   2   1 -0.25547613777776D+00 -0.44806044349320D-16
   3   9   2   1 -0.12773806888887D+00 -0.56744537009813D-16
   1  11   2   1 -0.43575839210949D-05  0.00000000000000D+00
   2  11   2   1 -0.47720572230869D+02  0.00000000000000D+00
   3  11   2   1 -0.45537029746311D-05  0.00000000000000D+00
   1   1   3   1  0.21099842421263D+01  0.00000000000000D+00
   2   1   3   1  0.21099842421265D+01  0.00000000000000D+00
   3   1   3   1  0.42199684842517D+01  0.00000000000000D+00
   1   2   3   1 -0.63963154350860D-01  0.00000000000000D+00
   2   2   3   1 -0.63963154350857D-01  0.00000000000000D+00
   3   2   3   1 -0.12792630870169D+00  0.00000000000000D+00
   1   3   3   1 -0.10845353841428D+01 -0.95303621427995D-18
   2   3   3   1 -0.10845353841428D+01 -0.23718060048735D-17
   3   3   3   1 -0.21690707682855D+01  0.22564625371007D-17
   1   4   3   1  0.63841036099557D-01  0.78616041337152D-18
   2   4   3   1  0.63841036099556D-01  0.29740023224857D-19
   3   4   3   1  0.12768207219913D+00 -0.74456760887361D-18
   1   5   3   1  0.63841036099554D-01 -0.53062243044808D-18
   2   5   3   1  0.61144912855964D+00  0.42929908128299D-17
   3   5   3   1 -0.47308625558313D+00  0.73339600428142D-17
   1   6   3   1  0.61144912855963D+00 -0.43982124886300D-17
   2   6   3   1  0.63841036099563D-01  0.17738593504425D-17
   3   6   3   1 -0.47308625558314D+00  0.76606666123050D-17
   1   7   3   1 -0.53692729168266D+00 -0.10129765586519D-17
   2   7   3   1 -0.10845353841428D+01  0.11479403420939D-17
   3   7   3   1 -0.47308625558314D+00  0.20775192078780D-17
   1   8   3   1 -0.10845353841428D+01  0.50267661761376D-18
   2   8   3   1 -0.53692729168267D+00 -0.27624783287720D-18
   3   8   3   1 -0.47308625558314D+00  0.49850932060199D-18
   1   9   3   1 -0.12773806888886D+00 -0.40387688075892D-16
   2   9   3   1 -0.12773806888885D+00 -0.56744537009813D-16
   3   9   3   1 -0.25547613777782D+00 -0.46440846736355D-16
   1  11   3   1  0.87784942807226D-06  0.00000000000000D+00
   2  11   3   1  0.24863114400279D-05  0.00000000000000D+00
   3  11   3   1 -0.47720586856643D+02  0.00000000000000D+00
   1   1   1   2 -0.12792630870168D+00  0.00000000000000D+00
   2   1   1   2 -0.63963154350845D-01  0.00000000000000D+00
   3   1   1   2 -0.63963154350853D-01  0.00000000000000D+00
   1   2   1   2  0.42199684842517D+01  0.00000000000000D+00
   2   2   1   2  0.21099842421258D+01  0.00000000000000D+00
   3   2   1   2  0.21099842421263D+01  0.00000000000000D+00
   1   3   1   2 -0.47308625558314D+00 -0.20860875796797D-17
   2   3   1   2  0.61144912855961D+00  0.75403820275936D-17
   3   3   1   2  0.63841036099570D-01 -0.78026836277677D-18
   1   4   1   2 -0.47308625558315D+00 -0.24044867624756D-17
   2   4   1   2 -0.53692729168270D+00  0.27181960767145D-18
   3   4   1   2 -0.10845353841428D+01  0.94714416368340D-18
   1   5   1   2 -0.21690707682856D+01  0.71994951280548D-18
   2   5   1   2 -0.10845353841427D+01  0.10212517415717D-17
   3   5   1   2 -0.10845353841427D+01 -0.11261339904191D-17
   1   6   1   2 -0.47308625558313D+00 -0.20579641656591D-17
   2   6   1   2 -0.10845353841427D+01 -0.26103136213824D-18
   3   6   1   2 -0.53692729168268D+00  0.38951917276358D-18
   1   7   1   2 -0.47308625558315D+00  0.80509651017459D-18
   2   7   1   2  0.63841036099546D-01 -0.14474445255596D-17
   3   7   1   2  0.61144912855959D+00 -0.13788254295006D-17
   1   8   1   2  0.12768207219915D+00 -0.23757136191267D-17
   2   8   1   2  0.63841036099554D-01  0.24090814037537D-17
   3   8   1   2  0.63841036099550D-01 -0.92835221057257D-19
   1   9   1   2 -0.25547613777771D+00  0.13906012057547D-16
   2   9   1   2 -0.12773806888882D+00  0.66273642592959D-17
   3   9   1   2 -0.12773806888883D+00  0.41877356881115D-16
   1  11   1   2 -0.47720580813993D+02  0.00000000000000D+00
   2  11   1   2  0.97995251617905D-05  0.00000000000000D+00
   3  11   1   2  0.45416543256787D-05  0.00000000000000D+00
   1   1   2   2 -0.63963154350839D-01  0.00000000000000D+00
   2   1   2   2 -0.12792630870166D+00  0.00000000000000D+00
   3   1   2   2 -0.63963154350850D-01  0.00000000000000D+00
   1   2   2   2  0.21099842421247D+01  0.00000000000000D+00
   2   2   2   2  0.42199684842521D+01  0.00000000000000D+00
   3   2   2   2  0.21099842421261D+01  0.00000000000000D+00
   1   3   2   2  0.61144912855962D+00  0.75403820275936D-17
   2   3   2   2 -0.47308625558312D+00 -0.34736439496933D-17
   3   3   2   2  0.63841036099568D-01 -0.23847972630105D-19
   1   4   2   2 -0.53692729168270D+00  0.27181960767145D-18
   2   4   2   2 -0.47308625558314D+00 -0.18044886427806D-17
   3   4   2   2 -0.10845353841427D+01  0.23659139542769D-17
   1   5   2   2 -0.10845353841427D+01  0.10212517415717D-17
   2   5   2   2 -0.47308625558314D+00 -0.17879331193994D-17
   3   5   2   2 -0.53692729168268D+00 -0.32709804069282D-18
   1   6   2   2 -0.10845353841427D+01 -0.26103136213824D-18
   2   6   2   2 -0.21690707682855D+01 -0.78833580085493D-18
   3   6   2   2 -0.10845353841427D+01 -0.17764255872866D-17
   1   7   2   2  0.63841036099546D-01 -0.14474445255596D-17
   2   7   2   2  0.12768207219911D+00 -0.16389782172158D-17
   3   7   2   2  0.63841036099567D-01 -0.23922891103825D-17
   1   8   2   2  0.63841036099555D-01  0.24090814037537D-17
   2   8   2   2 -0.47308625558316D+00  0.23444468419711D-17
   3   8   2   2  0.61144912855959D+00  0.21702022305054D-18
   1   9   2   2 -0.12773806888883D+00  0.66273642592959D-17
   2   9   2   2 -0.25547613777774D+00  0.46599540927376D-16
   3   9   2   2 -0.12773806888884D+00  0.58234205815037D-16
   1  11   2   2  0.10687894381756D-04  0.00000000000000D+00
   2  11   2   2 -0.47720576377114D+02  0.00000000000000D+00
   3  11   2   2 -0.17766074719864D-05  0.00000000000000D+00
   1   1   3   2 -0.63963154350860D-01  0.00000000000000D+00
   2   1   3   2 -0.63963154350857D-01  0.00000000000000D+00
   3   1   3   2 -0.12792630870169D+00  0.00000000000000D+00
   1   2   3   2  0.21099842421261D+01  0.00000000000000D+00
   2   2   3   2  0.21099842421265D+01  0.00000000000000D+00
   3   2   3   2  0.42199684842517D+01  0.00000000000000D+00
   1   3   3   2  0.63841036099568D-01 -0.78026836277677D-18
   2   3   3   2  0.63841036099560D-01 -0.23847972630105D-19
   3   3   3   2  0.12768207219908D+00  0.76499338426875D-18
   1   4   3   2 -0.10845353841428D+01  0.94714416368340D-18
   2   4   3   2 -0.10845353841427D+01  0.23659139542769D-17
   3   4   3   2 -0.21690707682853D+01 -0.22825446804692D-17
   1   5   3   2 -0.10845353841427D+01 -0.11261339904191D-17
   2   5   3   2 -0.53692729168266D+00 -0.32709804069282D-18
   3   5   3   2 -0.47308625558313D+00 -0.17253126931394D-17
   1   6   3   2 -0.53692729168265D+00  0.38951917276358D-18
   2   6   3   2 -0.10845353841428D+01 -0.17764255872866D-17
   3   6   3   2 -0.47308625558313D+00  0.18140625076889D-17
   1   7   3   2  0.61144912855963D+00 -0.13788254295006D-17
   2   7   3   2  0.63841036099581D-01 -0.23922891103825D-17
   3   7   3   2 -0.47308625558312D+00  0.65380753325496D-17
   1   8   3   2  0.63841036099563D-01 -0.92835221057257D-19
   2   8   3   2  0.61144912855962D+00  0.21702022305054D-18
   3   8   3   2 -0.47308625558314D+00 -0.34423786218279D-17
   1   9   3   2 -0.12773806888882D+00  0.41877356881115D-16
   2   9   3   2 -0.12773806888884D+00  0.58234205815037D-16
   3   9   3   2 -0.25547613777774D+00  0.48225724028656D-16
   1  11   3   2  0.22553221150594D-05  0.00000000000000D+00
   2  11   3   2 -0.56194908096568D-05  0.00000000000000D+00
   3  11   3   2 -0.47720564948464D+02  0.00000000000000D+00
   1   1   1   3 -0.47308860531239D+00 -0.24015014568392D-17
   2   1   1   3 -0.53692909009293D+00  0.27181960767325D-18
   3   1   1   3 -0.10845319547836D+01  0.95303621427995D-18
   1   2   1   3 -0.47308860531238D+00  0.20860875796797D-17
   2   2   1   3  0.61144334947115D+00 -0.75403820275936D-17
   3   2   1   3  0.63840484780595D-01  0.78026836277677D-18
   1   3   1   3  0.12101802667468D+02  0.00000000000000D+00
   2   3   1   3  0.96836951183862D+01  0.00000000000000D+00
   3   3   1   3  0.24181075490820D+01  0.00000000000000D+00
   1   4   1   3 -0.73526828603137D+00 -0.73001406922075D-18
   2   4   1   3 -0.58477096502621D+00 -0.30886717911450D-17
   3   4   1   3 -0.15049732100516D+00  0.13592106428828D-17
   1   5   1   3 -0.73617263901925D+00 -0.11477168217657D-17
   2   5   1   3 -0.21831146191057D+01  0.31426936140379D-17
   3   5   1   3 -0.10345872133613D+01 -0.36809430766354D-18
   1   6   1   3 -0.42859722731936D+01  0.35737324456291D-17
   2   6   1   3 -0.21028443954705D+01 -0.38754692756333D-17
   3   6   1   3 -0.21831278777233D+01  0.21192090029519D-17
   1   7   1   3  0.51654566643131D+00  0.11746538733910D-18
   2   7   1   3  0.21814435070684D+00  0.26726052208480D-18
   3   7   1   3  0.29840131572450D+00 -0.17243004265746D-18
   1   8   1   3 -0.73617263901927D+00  0.10403770596976D-17
   2   8   1   3  0.29841457434204D+00 -0.31968076667819D-19
   3   8   1   3  0.14469419800865D+01  0.00000000000000D+00
   1   9   1   3 -0.52409737299511D+01  0.94750022711597D-16
   2   9   1   3 -0.54435807796868D+01  0.33710105949898D-16
   3   9   1   3  0.20260704973574D+00  0.12850397081059D-16
   1  11   1   3 -0.54944702343399D+02  0.00000000000000D+00
   2  11   1   3 -0.46701198357350D+01  0.00000000000000D+00
   3  11   1   3  0.46701254950983D+01  0.00000000000000D+00
   1   1   2   3 -0.53692909009293D+00  0.27181960767325D-18
   2   1   2   3 -0.47308860531239D+00 -0.18015033371441D-17
   3   1   2   3 -0.10845319547836D+01  0.23718060048735D-17
   1   2   2   3  0.61144334947118D+00 -0.75403820275936D-17
   2   2   2   3 -0.47308860531238D+00  0.34736439496933D-17
   3   2   2   3  0.63840484780599D-01  0.23847972630105D-19
   1   3   2   3  0.96836951183862D+01  0.00000000000000D+00
   2   3   2   3  0.12101802667468D+02  0.00000000000000D+00
   3   3   2   3  0.24181075490820D+01  0.00000000000000D+00
   1   4   2   3 -0.58477096502621D+00 -0.30886717911450D-17
   2   4   2   3 -0.73526828603137D+00  0.98764456320801D-17
   3   4   2   3 -0.15049732100517D+00 -0.16905644455527D-17
   1   5   2   3 -0.21028443954705D+01  0.31426936140379D-17
   2   5   2   3 -0.42859722731937D+01 -0.11601816436948D-16
   3   5   2   3 -0.21831278777233D+01  0.18109612419152D-17
   1   6   2   3 -0.21831146191057D+01 -0.38754692756333D-17
   2   6   2   3 -0.73617263901925D+00  0.29544353549012D-17
   3   6   2   3 -0.10345872133613D+01 -0.32710950902145D-17
   1   7   2   3  0.29841457434205D+00  0.26726052208480D-18
   2   7   2   3 -0.73617263901926D+00 -0.79430752885676D-18
   3   7   2   3  0.14469419800865D+01  0.00000000000000D+00
   1   8   2   3  0.21814435070682D+00 -0.31968076667819D-19
   2   8   2   3  0.51654566643126D+00 -0.47669495807992D-18
   3   8   2   3  0.29840131572450D+00  0.23448425899229D-18
   1   9   2   3 -0.54435807796869D+01  0.33710105949898D-16
   2   9   2   3 -0.52409737299511D+01  0.41970071974234D-16
   3   9   2   3  0.20260704973574D+00  0.46306068862190D-16
   1  11   2   3 -0.46701245525923D+01  0.00000000000000D+00
   2  11   2   3 -0.54944693873199D+02  0.00000000000000D+00
   3  11   2   3  0.46701278553089D+01  0.00000000000000D+00
   1   1   3   3 -0.10845319547836D+01  0.95303621427995D-18
   2   1   3   3 -0.10845319547836D+01  0.23718060048735D-17
   3   1   3   3 -0.21690639095671D+01 -0.22564625371007D-17
   1   2   3   3  0.63840484780594D-01  0.78026836277677D-18
   2   2   3   3  0.63840484780587D-01  0.23847972630105D-19
   3   2   3   3  0.12768096956115D+00 -0.76499338426875D-18
   1   3   3   3  0.24181075490818D+01  0.00000000000000D+00
   2   3   3   3  0.24181075490818D+01  0.00000000000000D+00
   3   3   3   3  0.48362150981641D+01  0.00000000000000D+00
   1   4   3   3 -0.15049732100516D+00  0.13592106428828D-17
   2   4   3   3 -0.15049732100517D+00 -0.16905644455527D-17
   3   4   3   3 -0.30099464201031D+00  0.14173581531972D-17
   1   5   3   3 -0.95431698972609D+00 -0.36809430766354D-18
   2   5   3   3 -0.21028576540881D+01  0.18109612419152D-17
   3   5   3   3 -0.73618589763680D+00  0.30262163622227D-17
   1   6   3   3 -0.21028576540881D+01  0.21192090029519D-17
   2   6   3   3 -0.95431698972610D+00 -0.32710950902145D-17
   3   6   3   3 -0.73618589763680D+00  0.38285437166374D-17
   1   7   3   3  0.21813109208927D+00 -0.17243004265746D-18
   2   7   3   3  0.13666717564513D+01  0.00000000000000D+00
   3   7   3   3 -0.73618589763678D+00  0.36930996163335D-17
   1   8   3   3  0.13666717564513D+01  0.00000000000000D+00
   2   8   3   3  0.21813109208927D+00  0.23448425899229D-18
   3   8   3   3 -0.73618589763678D+00 -0.48268616429061D-18
   1   9   3   3  0.20260704973574D+00  0.12850397081059D-16
   2   9   3   3  0.20260704973574D+00  0.46306068862190D-16
   3   9   3   3  0.40521409947141D+00 -0.46160310629794D-16
   1  11   3   3 -0.66352045876641D-05  0.00000000000000D+00
   2  11   3   3  0.26317804471589D-05  0.00000000000000D+00
   3  11   3   3 -0.50274564126980D+02  0.00000000000000D+00
   1   1   1   4 -0.47308860531239D+00 -0.20890728853144D-17
   2   1   1   4  0.61144334947112D+00  0.75403820275936D-17
   3   1   1   4  0.63840484780585D-01 -0.78616041337152D-18
   1   2   1   4 -0.47308860531239D+00  0.24044867624756D-17
   2   2   1   4 -0.53692909009296D+00 -0.27181960767145D-18
   3   2   1   4 -0.10845319547836D+01 -0.94714416368340D-18
   1   3   1   4 -0.73526828603137D+00  0.73001406922075D-18
   2   3   1   4 -0.58477096502621D+00  0.30886717911450D-17
   3   3   1   4 -0.15049732100516D+00 -0.13592106428828D-17
   1   4   1   4  0.12101802667468D+02  0.00000000000000D+00
   2   4   1   4  0.96836951183864D+01  0.00000000000000D+00
   3   4   1   4  0.24181075490822D+01  0.00000000000000D+00
   1   5   1   4 -0.73617263901923D+00  0.10811102170061D-17
   2   5   1   4  0.29841457434202D+00 -0.21635358046709D-18
   3   5   1   4  0.14469419800865D+01  0.00000000000000D+00
   1   6   1   4  0.51654566643129D+00 -0.36578705246740D-18
   2   6   1   4  0.21814435070680D+00 -0.51362689038570D-18
   3   6   1   4  0.29840131572450D+00 -0.31639205082431D-18
   1   7   1   4 -0.42859722731936D+01 -0.19839772404287D-16
   2   7   1   4 -0.21028443954705D+01  0.36291030830772D-17
   3   7   1   4 -0.21831278777233D+01 -0.26158520170511D-17
   1   8   1   4 -0.73617263901926D+00  0.90330590505603D-18
   2   8   1   4 -0.21831146191058D+01 -0.33890598149875D-17
   3   8   1   4 -0.10345872133613D+01 -0.12072757526345D-18
   1   9   1   4 -0.52409737299511D+01  0.14159111890426D-16
   2   9   1   4 -0.54435807796868D+01 -0.34405891600526D-16
   3   9   1   4  0.20260704973566D+00 -0.13083617495683D-16
   1  11   1   4 -0.54944710478446D+02  0.00000000000000D+00
   2  11   1   4 -0.46701246696043D+01  0.00000000000000D+00
   3  11   1   4  0.46701190102370D+01  0.00000000000000D+00
   1   1   2   4  0.61144334947115D+00  0.75403820275936D-17
   2   1   2   4 -0.47308860531239D+00 -0.34766292553280D-17
   3   1   2   4  0.63840484780594D-01 -0.29740023224857D-19
   1   2   2   4 -0.53692909009297D+00 -0.27181960767145D-18
   2   2   2   4 -0.47308860531239D+00  0.18044886427806D-17
   3   2   2   4 -0.10845319547835D+01 -0.23659139542769D-17
   1   3   2   4 -0.58477096502621D+00  0.30886717911450D-17
   2   3   2   4 -0.73526828603137D+00 -0.98764456320801D-17
   3   3   2   4 -0.15049732100517D+00  0.16905644455527D-17
   1   4   2   4  0.96836951183864D+01  0.00000000000000D+00
   2   4   2   4  0.12101802667468D+02  0.00000000000000D+00
   3   4   2   4  0.24181075490820D+01  0.00000000000000D+00
   1   5   2   4  0.21814435070681D+00 -0.21635358046709D-18
   2   5   2   4  0.51654566643125D+00  0.22446271714986D-18
   3   5   2   4  0.29840131572451D+00 -0.72330635247417D-18
   1   6   2   4  0.29841457434202D+00 -0.51362689038570D-18
   2   6   2   4 -0.73617263901924D+00  0.27730587887835D-17
   3   6   2   4  0.14469419800865D+01  0.00000000000000D+00
   1   7   2   4 -0.21831146191058D+01  0.36291030830772D-17
   2   7   2   4 -0.73617263901925D+00 -0.31968909790491D-17
   3   7   2   4 -0.10345872133613D+01  0.27861837905492D-17
   1   8   2   4 -0.21028443954706D+01 -0.33890598149875D-17
   2   8   2   4 -0.42859722731938D+01  0.33407251210445D-17
   3   8   2   4 -0.21831278777233D+01 -0.23115148467342D-17
   1   9   2   4 -0.54435807796868D+01 -0.34405891600526D-16
   2   9   2   4 -0.52409737299511D+01 -0.15273208623549D-15
   3   9   2   4  0.20260704973565D+00 -0.46538451321859D-16
   1  11   2   4 -0.46701243427084D+01  0.00000000000000D+00
   2  11   2   4 -0.54944714558688D+02  0.00000000000000D+00
   3  11   2   4  0.46701210399902D+01  0.00000000000000D+00
   1   1   3   4  0.63840484780584D-01 -0.78616041337152D-18
   2   1   3   4  0.63840484780582D-01 -0.29740023224857D-19
   3   1   3   4  0.12768096956120D+00  0.74456760887361D-18
   1   2   3   4 -0.10845319547836D+01 -0.94714416368340D-18
   2   2   3   4 -0.10845319547835D+01 -0.23659139542769D-17
   3   2   3   4 -0.21690639095669D+01  0.22825446804692D-17
   1   3   3   4 -0.15049732100516D+00 -0.13592106428828D-17
   2   3   3   4 -0.15049732100517D+00  0.16905644455527D-17
   3   3   3   4 -0.30099464201031D+00 -0.14173581531972D-17
   1   4   3   4  0.24181075490819D+01  0.00000000000000D+00
   2   4   3   4  0.24181075490819D+01  0.00000000000000D+00
   3   4   3   4  0.48362150981640D+01  0.00000000000000D+00
   1   5   3   4  0.13666717564513D+01  0.00000000000000D+00
   2   5   3   4  0.21813109208928D+00 -0.72330635247417D-18
   3   5   3   4 -0.73618589763678D+00 -0.49495790663294D-18
   1   6   3   4  0.21813109208928D+00 -0.31639205082431D-18
   2   6   3   4  0.13666717564512D+01  0.00000000000000D+00
   3   6   3   4 -0.73618589763678D+00  0.33224732523314D-17
   1   7   3   4 -0.21028576540880D+01 -0.26158520170511D-17
   2   7   3   4 -0.95431698972608D+00  0.27861837905492D-17
   3   7   3   4 -0.73618589763679D+00  0.32026716795772D-17
   1   8   3   4 -0.95431698972609D+00 -0.12072757526345D-18
   2   8   3   4 -0.21028576540881D+01 -0.23115148467342D-17
   3   8   3   4 -0.73618589763679D+00  0.39815355679932D-17
   1   9   3   4  0.20260704973565D+00 -0.13083617495683D-16
   2   9   3   4  0.20260704973565D+00 -0.46538451321859D-16
   3   9   3   4  0.40521409947139D+00  0.46611720302554D-16
   1  11   3   4  0.22452443858081D-05  0.00000000000000D+00
   2  11   3   4  0.17581833307347D-05  0.00000000000000D+00
   3  11   3   4 -0.50274599799576D+02  0.00000000000000D+00
   1   1   1   5  0.12768096956117D+00 -0.20639847591500D-17
   2   1   1   5  0.63840484780590D-01 -0.24277420923406D-17
   3   1   1   5  0.63840484780577D-01  0.53062243044808D-18
   1   2   1   5 -0.21690639095672D+01 -0.71994951280548D-18
   2   2   1   5 -0.10845319547835D+01 -0.10212517415717D-17
   3   2   1   5 -0.10845319547836D+01  0.11261339904191D-17
   1   3   1   5 -0.73618589763679D+00  0.11477168217657D-17
   2   3   1   5 -0.21028576540880D+01 -0.31426936140379D-17
   3   3   1   5 -0.95431698972608D+00  0.36809430766354D-18
   1   4   1   5 -0.73618589763677D+00 -0.10811102170061D-17
   2   4   1   5  0.21813109208927D+00  0.21635358046709D-18
   3   4   1   5  0.13666717564513D+01  0.00000000000000D+00
   1   5   1   5  0.48362150981644D+01  0.00000000000000D+00
   2   5   1   5  0.24181075490819D+01  0.00000000000000D+00
   3   5   1   5  0.24181075490819D+01  0.00000000000000D+00
   1   6   1   5 -0.73618589763677D+00 -0.18983848501668D-17
   2   6   1   5  0.13666717564513D+01  0.00000000000000D+00
   3   6   1   5  0.21813109208929D+00  0.17285226403125D-18
   1   7   1   5 -0.73618589763677D+00 -0.24784373948195D-17
   2   7   1   5 -0.95431698972609D+00  0.20569327992606D-17
   3   7   1   5 -0.21028576540881D+01 -0.39119070697747D-17
   1   8   1   5 -0.30099464201033D+00  0.84977545544645D-18
   2   8   1   5 -0.15049732100518D+00 -0.14964878799316D-17
   3   8   1   5 -0.15049732100517D+00 -0.24347533870214D-17
   1   9   1   5  0.40521409947139D+00  0.50596582057824D-17
   2   9   1   5  0.20260704973569D+00 -0.97716684860591D-17
   3   9   1   5  0.20260704973568D+00  0.33257836174738D-16
   1  11   1   5 -0.50274556882745D+02  0.00000000000000D+00
   2  11   1   5  0.10883777092519D-04  0.00000000000000D+00
   3  11   1   5  0.13911935264162D-05  0.00000000000000D+00
   1   1   2   5  0.63840484780580D-01 -0.24277420923406D-17
   2   1   2   5 -0.47308860531238D+00 -0.24697511475603D-17
   3   1   2   5  0.61144334947117D+00 -0.42929908128299D-17
   1   2   2   5 -0.10845319547835D+01 -0.10212517415717D-17
   2   2   2   5 -0.47308860531238D+00  0.17879331193994D-17
   3   2   2   5 -0.53692909009295D+00  0.32709804069282D-18
   1   3   2   5 -0.21831278777232D+01 -0.31426936140379D-17
   2   3   2   5 -0.42859722731936D+01  0.11601816436948D-16
   3   3   2   5 -0.21028443954706D+01 -0.18109612419152D-17
   1   4   2   5  0.29840131572448D+00  0.21635358046709D-18
   2   4   2   5  0.51654566643128D+00 -0.22446271714986D-18
   3   4   2   5  0.21814435070682D+00  0.72330635247417D-18
   1   5   2   5  0.24181075490820D+01  0.00000000000000D+00
   2   5   2   5  0.12101802667468D+02  0.00000000000000D+00
   3   5   2   5  0.96836951183864D+01  0.00000000000000D+00
   1   6   2   5  0.14469419800865D+01  0.00000000000000D+00
   2   6   2   5 -0.73617263901924D+00 -0.29731591833185D-17
   3   6   2   5  0.29841457434203D+00  0.60119735883012D-18
   1   7   2   5 -0.10345872133613D+01  0.20569327992606D-17
   2   7   2   5 -0.73617263901925D+00 -0.96701321697043D-18
   3   7   2   5 -0.21831146191058D+01 -0.17640543363249D-17
   1   8   2   5 -0.15049732100517D+00 -0.14964878799316D-17
   2   8   2   5 -0.73526828603138D+00 -0.25727990236333D-17
   3   8   2   5 -0.58477096502621D+00 -0.17241460835488D-17
   1   9   2   5  0.20260704973570D+00 -0.97716684860591D-17
   2   9   2   5 -0.52409737299512D+01  0.61913260884814D-16
   3   9   2   5 -0.54435807796869D+01 -0.15756771458506D-17
   1  11   2   5  0.46701513198315D+01  0.00000000000000D+00
   2  11   2   5 -0.54944687417536D+02  0.00000000000000D+00
   3  11   2   5 -0.46701512885828D+01  0.00000000000000D+00
   1   1   3   5  0.63840484780587D-01  0.53062243044808D-18
   2   1   3   5  0.61144334947114D+00 -0.42929908128299D-17
   3   1   3   5 -0.47308860531237D+00 -0.73339600428142D-17
   1   2   3   5 -0.10845319547835D+01  0.11261339904191D-17
   2   2   3   5 -0.53692909009295D+00  0.32709804069282D-18
   3   2   3   5 -0.47308860531238D+00  0.17253126931394D-17
   1   3   3   5 -0.10345872133613D+01  0.36809430766354D-18
   2   3   3   5 -0.21831146191058D+01 -0.18109612419152D-17
   3   3   3   5 -0.73617263901926D+00 -0.30262163622227D-17
   1   4   3   5  0.14469419800865D+01  0.00000000000000D+00
   2   4   3   5  0.29841457434204D+00  0.72330635247417D-18
   3   4   3   5 -0.73617263901925D+00  0.49495790663294D-18
   1   5   3   5  0.24181075490819D+01  0.00000000000000D+00
   2   5   3   5  0.96836951183862D+01  0.00000000000000D+00
   3   5   3   5  0.12101802667468D+02  0.00000000000000D+00
   1   6   3   5  0.29840131572451D+00  0.17285226403125D-18
   2   6   3   5  0.21814435070681D+00  0.60119735883012D-18
   3   6   3   5  0.51654566643131D+00 -0.13366483056785D-18
   1   7   3   5 -0.21831278777233D+01 -0.39119070697747D-17
   2   7   3   5 -0.21028443954706D+01 -0.17640543363249D-17
   3   7   3   5 -0.42859722731938D+01  0.81924506407140D-17
   1   8   3   5 -0.15049732100516D+00 -0.24347533870214D-17
   2   8   3   5 -0.58477096502621D+00 -0.17241460835488D-17
   3   8   3   5 -0.73526828603137D+00 -0.40222914343049D-17
   1   9   3   5  0.20260704973570D+00  0.33257836174738D-16
   2   9   3   5 -0.54435807796869D+01 -0.15756771458506D-17
   3   9   3   5 -0.52409737299512D+01  0.41556854606202D-17
   1  11   3   5  0.46701524485065D+01  0.00000000000000D+00
   2  11   3   5 -0.46701445127858D+01  0.00000000000000D+00
   3  11   3   5 -0.54944706145769D+02  0.00000000000000D+00
   1   1   1   6 -0.47308860531238D+00  0.62678916987165D-17
   2   1   1   6  0.63840484780572D-01 -0.11357156608741D-17
   3   1   1   6  0.61144334947115D+00  0.43982124886300D-17
   1   2   1   6 -0.47308860531237D+00  0.20579641656591D-17
   2   2   1   6 -0.10845319547835D+01  0.26103136213824D-18
   3   2   1   6 -0.53692909009296D+00 -0.38951917276358D-18
   1   3   1   6 -0.42859722731936D+01 -0.35737324456291D-17
   2   3   1   6 -0.21831278777232D+01  0.38754692756333D-17
   3   3   1   6 -0.21028443954706D+01 -0.21192090029519D-17
   1   4   1   6  0.51654566643131D+00  0.36578705246740D-18
   2   4   1   6  0.29840131572449D+00  0.51362689038570D-18
   3   4   1   6  0.21814435070682D+00  0.31639205082431D-18
   1   5   1   6 -0.73617263901924D+00  0.18983848501668D-17
   2   5   1   6  0.14469419800865D+01  0.00000000000000D+00
   3   5   1   6  0.29841457434204D+00 -0.17285226403125D-18
   1   6   1   6  0.12101802667468D+02  0.00000000000000D+00
   2   6   1   6  0.24181075490820D+01  0.00000000000000D+00
   3   6   1   6  0.96836951183863D+01  0.00000000000000D+00
   1   7   1   6 -0.73526828603137D+00  0.58755205627524D-17
   2   7   1   6 -0.15049732100516D+00 -0.34939746480206D-17
   3   7   1   6 -0.58477096502621D+00 -0.16752449760979D-17
   1   8   1   6 -0.73617263901926D+00 -0.23018504748700D-17
   2   8   1   6 -0.10345872133613D+01  0.20569328123122D-17
   3   8   1   6 -0.21831146191058D+01 -0.38593587018215D-17
   1   9   1   6 -0.52409737299512D+01 -0.10292272916824D-15
   2   9   1   6  0.20260704973566D+00 -0.52720644432934D-16
   3   9   1   6 -0.54435807796869D+01  0.46281374191003D-16
   1  11   1   6 -0.54944703937754D+02  0.00000000000000D+00
   2  11   1   6  0.46701271992824D+01  0.00000000000000D+00
   3  11   1   6 -0.46701271047799D+01  0.00000000000000D+00
   1   1   2   6  0.63840484780569D-01 -0.11357156608741D-17
   2   1   2   6  0.12768096956116D+00 -0.13297633036216D-17
   3   1   2   6  0.63840484780581D-01 -0.17738593504425D-17
   1   2   2   6 -0.10845319547835D+01  0.26103136213824D-18
   2   2   2   6 -0.21690639095671D+01  0.78833580085493D-18
   3   2   2   6 -0.10845319547836D+01  0.17764255872866D-17
   1   3   2   6 -0.21028576540880D+01  0.38754692756333D-17
   2   3   2   6 -0.73618589763678D+00 -0.29544353549012D-17
   3   3   2   6 -0.95431698972610D+00  0.32710950902145D-17
   1   4   2   6  0.21813109208926D+00  0.51362689038570D-18
   2   4   2   6 -0.73618589763677D+00 -0.27730587887835D-17
   3   4   2   6  0.13666717564513D+01  0.00000000000000D+00
   1   5   2   6  0.13666717564513D+01  0.00000000000000D+00
   2   5   2   6 -0.73618589763678D+00  0.29731591833185D-17
   3   5   2   6  0.21813109208927D+00 -0.60119735883012D-18
   1   6   2   6  0.24181075490819D+01  0.00000000000000D+00
   2   6   2   6  0.48362150981642D+01  0.00000000000000D+00
   3   6   2   6  0.24181075490819D+01  0.00000000000000D+00
   1   7   2   6 -0.15049732100516D+00 -0.34939746480206D-17
   2   7   2   6 -0.30099464201031D+00  0.25423780297644D-17
   3   7   2   6 -0.15049732100517D+00 -0.36520773451257D-18
   1   8   2   6 -0.95431698972609D+00  0.20569328123122D-17
   2   8   2   6 -0.73618589763678D+00 -0.11630307731457D-17
   3   8   2   6 -0.21028576540881D+01 -0.18320005629377D-17
   1   9   2   6  0.20260704973569D+00 -0.52720644432934D-16
   2   9   2   6  0.40521409947136D+00  0.66356631803624D-19
   3   9   2   6  0.20260704973567D+00 -0.38233453405447D-16
   1  11   2   6 -0.99139180453391D-05  0.00000000000000D+00
   2  11   2   6 -0.50274573250415D+02  0.00000000000000D+00
   3  11   2   6  0.17401297019976D-04  0.00000000000000D+00
   1   1   3   6  0.61144334947111D+00  0.43982124886300D-17
   2   1   3   6  0.63840484780580D-01 -0.17738593504425D-17
   3   1   3   6 -0.47308860531238D+00 -0.76606666123050D-17
   1   2   3   6 -0.53692909009296D+00 -0.38951917276358D-18
   2   2   3   6 -0.10845319547836D+01  0.17764255872866D-17
   3   2   3   6 -0.47308860531237D+00 -0.18140625076889D-17
   1   3   3   6 -0.21831146191058D+01 -0.21192090029519D-17
   2   3   3   6 -0.10345872133613D+01  0.32710950902145D-17
   3   3   3   6 -0.73617263901927D+00 -0.38285437166374D-17
   1   4   3   6  0.29841457434204D+00  0.31639205082431D-18
   2   4   3   6  0.14469419800865D+01  0.00000000000000D+00
   3   4   3   6 -0.73617263901925D+00 -0.33224732523314D-17
   1   5   3   6  0.21814435070682D+00 -0.17285226403125D-18
   2   5   3   6  0.29840131572450D+00 -0.60119735883012D-18
   3   5   3   6  0.51654566643129D+00  0.13366483056785D-18
   1   6   3   6  0.96836951183863D+01  0.00000000000000D+00
   2   6   3   6  0.24181075490820D+01  0.00000000000000D+00
   3   6   3   6  0.12101802667468D+02  0.00000000000000D+00
   1   7   3   6 -0.58477096502621D+00 -0.16752449760979D-17
   2   7   3   6 -0.15049732100516D+00 -0.36520773451257D-18
   3   7   3   6 -0.73526828603137D+00 -0.83221997466456D-17
   1   8   3   6 -0.21028443954706D+01 -0.38593587018215D-17
   2   8   3   6 -0.21831278777233D+01 -0.18320005629377D-17
   3   8   3   6 -0.42859722731938D+01  0.81924506630894D-17
   1   9   3   6 -0.54435807796869D+01  0.46281374191003D-16
   2   9   3   6  0.20260704973569D+00 -0.38233453405447D-16
   3   9   3   6 -0.52409737299512D+01 -0.39022929205259D-16
   1  11   3   6 -0.46701380195675D+01  0.00000000000000D+00
   2  11   3   6  0.46701452364279D+01  0.00000000000000D+00
   3  11   3   6 -0.54944702351559D+02  0.00000000000000D+00
   1   1   1   7 -0.47308860531239D+00 -0.17462355060381D-17
   2   1   1   7 -0.10845319547836D+01  0.50697286780563D-19
   3   1   1   7 -0.53692909009296D+00  0.10129765586519D-17
   1   2   1   7 -0.47308860531239D+00 -0.80509651017459D-18
   2   2   1   7  0.63840484780572D-01  0.14474445255596D-17
   3   2   1   7  0.61144334947114D+00  0.13788254295006D-17
   1   3   1   7  0.51654566643132D+00 -0.11746538733910D-18
   2   3   1   7  0.29840131572452D+00 -0.26726052208480D-18
   3   3   1   7  0.21814435070681D+00  0.17243004265746D-18
   1   4   1   7 -0.42859722731936D+01  0.19839772404287D-16
   2   4   1   7 -0.21831278777233D+01 -0.36291030830772D-17
   3   4   1   7 -0.21028443954706D+01  0.26158520170511D-17
   1   5   1   7 -0.73617263901925D+00  0.24784373948195D-17
   2   5   1   7 -0.10345872133613D+01 -0.20569327992606D-17
   3   5   1   7 -0.21831146191058D+01  0.39119070697747D-17
   1   6   1   7 -0.73526828603137D+00 -0.58755205627524D-17
   2   6   1   7 -0.15049732100516D+00  0.34939746480206D-17
   3   6   1   7 -0.58477096502621D+00  0.16752449760979D-17
   1   7   1   7  0.12101802667468D+02  0.00000000000000D+00
   2   7   1   7  0.24181075490822D+01  0.00000000000000D+00
   3   7   1   7  0.96836951183863D+01  0.00000000000000D+00
   1   8   1   7 -0.73617263901926D+00  0.45978112814797D-17
   2   8   1   7  0.14469419800865D+01  0.00000000000000D+00
   3   8   1   7  0.29841457434205D+00  0.96898706374131D-18
   1   9   1   7 -0.52409737299511D+01  0.10241842201745D-15
   2   9   1   7  0.20260704973553D+00  0.52905576267330D-16
   3   9   1   7 -0.54435807796868D+01 -0.46149235117181D-16
   1  11   1   7 -0.54944717358504D+02  0.00000000000000D+00
   2  11   1   7  0.46701265700760D+01  0.00000000000000D+00
   3  11   1   7 -0.46701266645810D+01  0.00000000000000D+00
   1   1   2   7 -0.10845319547836D+01  0.50697286780563D-19
   2   1   2   7 -0.21690639095671D+01 -0.47409322344599D-18
   3   1   2   7 -0.10845319547836D+01 -0.11479403420939D-17
   1   2   2   7  0.63840484780569D-01  0.14474445255596D-17
   2   2   2   7  0.12768096956117D+00  0.16389782172158D-17
   3   2   2   7  0.63840484780598D-01  0.23922891103825D-17
   1   3   2   7  0.21813109208929D+00 -0.26726052208480D-18
   2   3   2   7 -0.73618589763679D+00  0.79430752885676D-18
   3   3   2   7  0.13666717564513D+01  0.00000000000000D+00
   1   4   2   7 -0.21028576540881D+01 -0.36291030830772D-17
   2   4   2   7 -0.73618589763678D+00  0.31968909790491D-17
   3   4   2   7 -0.95431698972608D+00 -0.27861837905492D-17
   1   5   2   7 -0.95431698972610D+00 -0.20569327992606D-17
   2   5   2   7 -0.73618589763678D+00  0.96701321697043D-18
   3   5   2   7 -0.21028576540881D+01  0.17640543363249D-17
   1   6   2   7 -0.15049732100516D+00  0.34939746480206D-17
   2   6   2   7 -0.30099464201031D+00 -0.25423780297644D-17
   3   6   2   7 -0.15049732100517D+00  0.36520773451257D-18
   1   7   2   7  0.24181075490822D+01  0.00000000000000D+00
   2   7   2   7  0.48362150981644D+01  0.00000000000000D+00
   3   7   2   7  0.24181075490820D+01  0.00000000000000D+00
   1   8   2   7  0.13666717564514D+01  0.00000000000000D+00
   2   8   2   7 -0.73618589763677D+00  0.15433079823476D-17
   3   8   2   7  0.21813109208929D+00 -0.60191915296723D-18
   1   9   2   7  0.20260704973555D+00  0.52905576267330D-16
   2   9   2   7  0.40521409947120D+00  0.81409905452655D-18
   3   9   2   7  0.20260704973557D+00  0.38847431283525D-16
   1  11   2   7 -0.23987230933572D-04  0.00000000000000D+00
   2  11   2   7 -0.50274560375338D+02  0.00000000000000D+00
   3  11   2   7  0.16499851950303D-04  0.00000000000000D+00
   1   1   3   7 -0.53692909009297D+00  0.10129765586519D-17
   2   1   3   7 -0.10845319547836D+01 -0.11479403420939D-17
   3   1   3   7 -0.47308860531239D+00 -0.20775192078780D-17
   1   2   3   7  0.61144334947110D+00  0.13788254295006D-17
   2   2   3   7  0.63840484780597D-01  0.23922891103825D-17
   3   2   3   7 -0.47308860531236D+00 -0.65380753325496D-17
   1   3   3   7  0.29841457434204D+00  0.17243004265746D-18
   2   3   3   7  0.14469419800865D+01  0.00000000000000D+00
   3   3   3   7 -0.73617263901925D+00 -0.36930996163335D-17
   1   4   3   7 -0.21831146191057D+01  0.26158520170511D-17
   2   4   3   7 -0.10345872133613D+01 -0.27861837905492D-17
   3   4   3   7 -0.73617263901925D+00 -0.32026716795772D-17
   1   5   3   7 -0.21028443954706D+01  0.39119070697747D-17
   2   5   3   7 -0.21831278777233D+01  0.17640543363249D-17
   3   5   3   7 -0.42859722731938D+01 -0.81924506407140D-17
   1   6   3   7 -0.58477096502621D+00  0.16752449760979D-17
   2   6   3   7 -0.15049732100516D+00  0.36520773451257D-18
   3   6   3   7 -0.73526828603137D+00  0.83221997466456D-17
   1   7   3   7  0.96836951183862D+01  0.00000000000000D+00
   2   7   3   7  0.24181075490822D+01  0.00000000000000D+00
   3   7   3   7  0.12101802667468D+02  0.00000000000000D+00
   1   8   3   7  0.21814435070682D+00  0.96898706374131D-18
   2   8   3   7  0.29840131572452D+00 -0.60191915296723D-18
   3   8   3   7  0.51654566643132D+00 -0.90478485277182D-18
   1   9   3   7 -0.54435807796869D+01 -0.46149235117181D-16
   2   9   3   7  0.20260704973555D+00  0.38847431283525D-16
   3   9   3   7 -0.52409737299512D+01  0.39770983920002D-16
   1  11   3   7 -0.46701496509410D+01  0.00000000000000D+00
   2  11   3   7  0.46701424340831D+01  0.00000000000000D+00
   3  11   3   7 -0.54944685043560D+02  0.00000000000000D+00
   1   1   1   8 -0.21690639095672D+01  0.10316781558179D-17
   2   1   1   8 -0.10845319547837D+01  0.13329804024774D-17
   3   1   1   8 -0.10845319547836D+01 -0.50267661761376D-18
   1   2   1   8  0.12768096956119D+00  0.23757136191267D-17
   2   2   1   8  0.63840484780587D-01 -0.24090814037537D-17
   3   2   1   8  0.63840484780583D-01  0.92835221057257D-19
   1   3   1   8 -0.73618589763680D+00 -0.10403770596976D-17
   2   3   1   8  0.21813109208928D+00  0.31968076667819D-19
   3   3   1   8  0.13666717564513D+01  0.00000000000000D+00
   1   4   1   8 -0.73618589763680D+00 -0.90330590505603D-18
   2   4   1   8 -0.21028576540881D+01  0.33890598149875D-17
   3   4   1   8 -0.95431698972608D+00  0.12072757526345D-18
   1   5   1   8 -0.30099464201033D+00 -0.84977545544645D-18
   2   5   1   8 -0.15049732100518D+00  0.14964878799316D-17
   3   5   1   8 -0.15049732100517D+00  0.24347533870214D-17
   1   6   1   8 -0.73618589763678D+00  0.23018504748700D-17
   2   6   1   8 -0.95431698972608D+00 -0.20569328123122D-17
   3   6   1   8 -0.21028576540881D+01  0.38593587018215D-17
   1   7   1   8 -0.73618589763679D+00 -0.45978112814797D-17
   2   7   1   8  0.13666717564514D+01  0.00000000000000D+00
   3   7   1   8  0.21813109208930D+00 -0.96898706374131D-18
   1   8   1   8  0.48362150981646D+01  0.00000000000000D+00
   2   8   1   8  0.24181075490820D+01  0.00000000000000D+00
   3   8   1   8  0.24181075490819D+01  0.00000000000000D+00
   1   9   1   8  0.40521409947113D+00 -0.41838114443295D-17
   2   9   1   8  0.20260704973556D+00  0.99507344503563D-17
   3   9   1   8  0.20260704973555D+00 -0.32656428030171D-16
   1  11   1   8 -0.50274547021103D+02  0.00000000000000D+00
   2  11   1   8 -0.15306426407637D-04  0.00000000000000D+00
   3  11   1   8  0.30314522117296D-05  0.00000000000000D+00
[...]
   1   5   1   6 -0.44117384320384D+00  0.27234005931362D+00
   2   5   1   6  0.77102307151753D+00 -0.69268621811975D+00
   3   5   1   6  0.22188245053714D+00 -0.19170653339925D+00
   1   6   1   6  0.12705543132303D+02  0.10197052658792D-05
   2   6   1   6  0.26297717935569D+01  0.10197052655544D-05
   3   6   1   6  0.10075771338747D+02  0.63583258199076D-16
   1   7   1   6  0.83259565767837D+00 -0.14076883851004D-01
   2   7   1   6  0.11219182328993D+00 -0.14076883851023D-01
   3   7   1   6  0.72040383438845D+00 -0.20305721505937D-14
   1   8   1   6 -0.44117384320384D+00  0.27234005931361D+00
   2   8   1   6 -0.66305629374100D+00  0.46404659271286D+00
   3   8   1   6 -0.12121969147214D+01  0.96502627743337D+00
   1   9   1   6 -0.56480898381513D+01 -0.17785299677666D+00
   2   9   1   6 -0.46005764229854D-01 -0.17793123529434D+00
   3   9   1   6 -0.56020840739215D+01  0.78238517663046D-04
   1   1   2   6  0.75678151738585D-01 -0.33773376066681D-05
   2   1   2   6 -0.53984068246584D-15 -0.13433423203276D-13
   3   1   2   6  0.75678151738581D-01 -0.33773376053790D-05
   1   2   2   6 -0.16008394727004D+00 -0.37725483951983D-05
   2   2   2   6 -0.60754911429509D-13 -0.13069987997859D-13
   3   2   2   6 -0.16008394727004D+00 -0.37725483976950D-05
   1   3   2   6 -0.10553566894699D+01 -0.10000803315252D+01
   2   3   2   6 -0.44555783317199D+00 -0.27364778769179D+00
   3   3   2   6 -0.50182908771930D+00 -0.49776821148184D+00
   1   4   2   6  0.56271254547298D-01  0.22412042379005D+00
   2   4   2   6 -0.44555783317199D+00 -0.27364778769179D+00
   3   4   2   6  0.60979885629797D+00  0.72643254383335D+00
   1   5   2   6  0.60979265689443D+00 -0.72641144202995D+00
   2   5   2   6 -0.44555246679647D+00  0.27368083734071D+00
   3   5   2   6  0.56273412321409D-01 -0.22409097928236D+00
   1   6   2   6  0.26297717935568D+01  0.10197052655544D-05
   2   6   2   6  0.52595435871126D+01  0.17914893388211D-16
   3   6   2   6  0.26297717935562D+01 -0.10197052656390D-05
   1   7   2   6  0.11219182328993D+00 -0.14076883851021D-01
   2   7   2   6  0.22438364657986D+00  0.33072455751912D-14
   3   7   2   6  0.11219182328993D+00  0.14076883851001D-01
   1   8   2   6 -0.50182587911790D+00  0.49777181662306D+00
   2   8   2   6 -0.44555246679645D+00  0.27368083734071D+00
   3   8   2   6 -0.10553451236909D+01  0.10000922793707D+01
   1   9   2   6 -0.46005764229854D-01 -0.17793123529434D+00
   2   9   2   6 -0.92001143001589D-01  0.64099683181857D-05
   3   9   2   6 -0.45995378771746D-01  0.17793764526263D+00
   1   1   3   6  0.13075777923424D+00 -0.76661784361202D-01
   2   1   3   6  0.18583926018856D+00  0.61012105124002D-06
   3   1   3   6  0.13075586014453D+00  0.23674296441464D+00
   1   2   3   6 -0.23674235429359D+00 -0.55083400044033D-01
   2   2   3   6 -0.31340474877585D+00 -0.19190896982339D-05
   3   2   3   6 -0.23674296441462D+00  0.13075586014453D+00
   1   3   3   6 -0.12121976950932D+01 -0.96501708804172D+00
   2   3   3   6 -0.66305707411275D+00 -0.46403740332124D+00
   3   3   3   6 -0.44117085240173D+00 -0.27231535236899D+00
   1   4   3   6  0.22188622171103D+00  0.19172205095224D+00
   2   4   3   6  0.77102684269141D+00  0.69270173567276D+00
   3   4   3   6 -0.44117085240172D+00 -0.27231535236901D+00
   1   5   3   6  0.60652035914040D-01 -0.22543175730946D+00
   2   5   3   6  0.21750382694451D+00 -0.19036575537216D+00
   3   5   3   6  0.27815586285856D+00 -0.41579751268161D+00
   1   6   3   6  0.10075771338746D+02  0.63583258199076D-16
   2   6   3   6  0.26297717935564D+01 -0.10197052656390D-05
   3   6   3   6  0.12705543132303D+02 -0.10197052657800D-05
   1   7   3   6  0.72040383438845D+00 -0.20305721505937D-14
   2   7   3   6  0.11219182328993D+00  0.14076883851009D-01
   3   7   3   6  0.83259565767838D+00  0.14076883851030D-01
   1   8   3   6 -0.10509665000984D+01  0.99875150134357D+00
   2   8   3   6 -0.12165755383140D+01  0.96636705546048D+00
   3   8   3   6 -0.22675420384124D+01  0.19651185568041D+01
   1   9   3   6 -0.56020840739215D+01  0.78238517662900D-04
   2   9   3   6 -0.45995378771746D-01  0.17793764526264D+00
   3   9   3   6 -0.56480794526932D+01  0.17801588378028D+00
   1   1   1   7 -0.23674296441467D+00  0.13075586014453D+00
   2   1   1   7 -0.31340474877583D+00 -0.19190896902906D-05
   3   1   1   7 -0.23674235429361D+00 -0.55083400044033D-01
   1   2   1   7  0.13075586014453D+00  0.23674296441469D+00
   2   2   1   7  0.18583926018857D+00  0.61012107861504D-06
   3   2   1   7  0.13075777923425D+00 -0.76661784361213D-01
   1   3   1   7  0.27815586285859D+00 -0.41579751268160D+00
   2   3   1   7  0.21750382694454D+00 -0.19036575537215D+00
   3   3   1   7  0.60652035914067D-01 -0.22543175730945D+00
   1   4   1   7 -0.22675420384124D+01  0.19651185568040D+01
   2   4   1   7 -0.12165755383140D+01  0.96636705546044D+00
   3   4   1   7 -0.10509665000983D+01  0.99875150134355D+00
   1   5   1   7 -0.44117085240171D+00 -0.27231535236901D+00
   2   5   1   7 -0.66305707411275D+00 -0.46403740332125D+00
   3   5   1   7 -0.12121976950932D+01 -0.96501708804175D+00
   1   6   1   7  0.83259565767838D+00  0.14076883850999D-01
   2   6   1   7  0.11219182328993D+00  0.14076883851022D-01
   3   6   1   7  0.72040383438845D+00  0.20305721505937D-14
   1   7   1   7  0.12705543132302D+02 -0.10197052666456D-05
   2   7   1   7  0.26297717935566D+01 -0.10197052670214D-05
   3   7   1   7  0.10075771338746D+02 -0.17033511866959D-14
   1   8   1   7 -0.44117085240171D+00 -0.27231535236901D+00
   2   8   1   7  0.77102684269148D+00  0.69270173567272D+00
   3   8   1   7  0.22188622171104D+00  0.19172205095224D+00
   1   9   1   7  0.56480794526932D+01 -0.17801588378028D+00
   2   9   1   7  0.45995378771831D-01 -0.17793764526266D+00
   3   9   1   7  0.56020840739214D+01 -0.78238517655747D-04
   1   1   2   7 -0.16008394727001D+00 -0.37725483897762D-05
   2   1   2   7  0.51081605530032D-13  0.10542268473952D-13
   3   1   2   7 -0.16008394727002D+00 -0.37725483881949D-05
   1   2   2   7  0.75678151738582D-01 -0.33773375780474D-05
   2   2   2   7  0.94895126401883D-15 -0.25001000557853D-13
   3   2   2   7  0.75678151738582D-01 -0.33773376356451D-05
   1   3   2   7  0.56273412321432D-01 -0.22409097928236D+00
   2   3   2   7 -0.44555246679646D+00  0.27368083734070D+00
   3   3   2   7  0.60979265689451D+00 -0.72641144202995D+00
   1   4   2   7 -0.10553451236909D+01  0.10000922793706D+01
   2   4   2   7 -0.44555246679646D+00  0.27368083734070D+00
   3   4   2   7 -0.50182587911788D+00  0.49777181662308D+00
   1   5   2   7 -0.50182908771930D+00 -0.49776821148185D+00
   2   5   2   7 -0.44555783317198D+00 -0.27364778769179D+00
   3   5   2   7 -0.10553566894700D+01 -0.10000803315252D+01
   1   6   2   7  0.11219182328993D+00  0.14076883851025D-01
   2   6   2   7  0.22438364657986D+00 -0.15308887357910D-14
   3   6   2   7  0.11219182328993D+00 -0.14076883851009D-01
   1   7   2   7  0.26297717935564D+01 -0.10197052670214D-05
   2   7   2   7  0.52595435871128D+01 -0.11065281203555D-14
   3   7   2   7  0.26297717935569D+01  0.10197052634421D-05
   1   8   2   7  0.60979885629802D+00  0.72643254383332D+00
   2   8   2   7 -0.44555783317198D+00 -0.27364778769178D+00
   3   8   2   7  0.56271254547327D-01  0.22412042379005D+00
   1   9   2   7  0.45995378771817D-01 -0.17793764526266D+00
   2   9   2   7  0.92001143001696D-01 -0.64099683402733D-05
   3   9   2   7  0.46005764229950D-01  0.17793123529429D+00
   1   1   3   7 -0.23674634175227D+00  0.55077708405951D-01
   2   1   3   7 -0.31340474877584D+00 -0.19190896886848D-05
   3   1   3   7 -0.23674573163123D+00 -0.13076155178263D+00
   1   2   3   7  0.13075963269294D+00  0.76659017144601D-01
   2   2   3   7  0.18583926018857D+00  0.61012102093233D-06
   3   2   3   7  0.13076155178261D+00 -0.23674573163123D+00
   1   3   3   7  0.22188245053717D+00 -0.19170653339924D+00
   2   3   3   7  0.77102307151761D+00 -0.69268621811975D+00
   3   3   3   7 -0.44117384320381D+00  0.27234005931364D+00
   1   4   3   7 -0.12121969147214D+01  0.96502627743336D+00
   2   4   3   7 -0.66305629374098D+00  0.46404659271288D+00
   3   4   3   7 -0.44117384320382D+00  0.27234005931363D+00
   1   5   3   7 -0.10509697086997D+01 -0.99874789620236D+00
   2   5   3   7 -0.12165846758634D+01 -0.96634952336456D+00
   3   5   3   7 -0.22675543845631D+01 -0.19650974195669D+01
   1   6   3   7  0.72040383438845D+00  0.20305721505937D-14
   2   6   3   7  0.11219182328993D+00 -0.14076883851008D-01
   3   6   3   7  0.83259565767838D+00 -0.14076883851030D-01
   1   7   3   7  0.10075771338746D+02 -0.17033511866959D-14
   2   7   3   7  0.26297717935570D+01  0.10197052634421D-05
   3   7   3   7  0.12705543132303D+02  0.10197052615350D-05
   1   8   3   7  0.60658235317597D-01  0.22545285911283D+00
   2   8   3   7  0.21749924094078D+00  0.19038961562944D+00
   3   8   3   7  0.27815747625837D+00  0.41584247474229D+00
   1   9   3   7  0.56020840739214D+01 -0.78238517655602D-04
   2   9   3   7  0.46005764229967D-01  0.17793123529429D+00
   3   9   3   7  0.56480898381513D+01  0.17785299677663D+00
   1   1   1   8 -0.96443875295424D+00 -0.96443741053235D+00
   2   1   1   8 -0.54947269302575D+00 -0.39875251047002D+00
   3   1   1   8 -0.56568205277243D+00 -0.41496187021667D+00
   1   2   1   8  0.30883466391553D-01 -0.30883466391542D-01
   2   2   1   8  0.19698951896063D-02 -0.46446617513247D-01
   3   2   1   8 -0.15563151121696D-01 -0.28913571201941D-01
   1   3   1   8 -0.20038186284803D+00 -0.17267129719744D-01
   2   3   1   8 -0.20712382721346D+00 -0.17267129719740D-01
   3   3   1   8 -0.12372759935321D+00 -0.70144211868461D-02
   1   4   1   8 -0.20038186284804D+00  0.17267129719743D-01
   2   4   1   8 -0.76654263494768D-01  0.10252708532892D-01
   3   4   1   8  0.67419643654341D-02 -0.10112738373037D-15
   1   5   1   8 -0.22701877229798D+00  0.74818814864408D-15
   2   5   1   8 -0.99668181636129D-01  0.38613523441665D-02
   3   5   1   8 -0.12735092171979D+00  0.38613523441720D-02
   1   6   1   8 -0.44116875501130D+00 -0.27238191436471D+00
   2   6   1   8 -0.50182059200627D+00 -0.49781922064698D+00
   3   6   1   8 -0.10509612129867D+01 -0.99879890536749D+00
   1   7   1   8 -0.44116576420917D+00  0.27235720742011D+00
   2   7   1   8  0.60979865737894D+00 -0.72643809280614D+00
   3   7   1   8  0.60658036398507D-01 -0.22545840808566D+00
   1   8   1   8  0.53050566552685D+01 -0.28671264247605D-15
   2   8   1   8  0.27094371810563D+01 -0.23578898157971D-01
   3   8   1   8  0.25956194742139D+01 -0.23578898157972D-01
   1   9   1   8  0.89898918869230D-05 -0.30444215323998D+00
   2   9   1   8 -0.17468433669926D-01 -0.25892911119932D+00
   3   9   1   8 -0.17478826788520D-01 -0.45532806549515D-01
   1   1   2   8 -0.63412702878917D+00 -0.34783846871549D+00
   2   1   2   8 -0.40287045692068D+00 -0.26739251951226D+00
   3   1   2   8 -0.45631551553232D+00 -0.19927335425573D+00
   1   2   2   8 -0.53445058611665D-01 -0.68119165256534D-01
   2   2   2   8  0.40288032104552D+00 -0.26739180443822D+00
   3   2   2   8 -0.23125166708265D+00  0.80452966038143D-01
   1   3   2   8 -0.79510996973273D-01 -0.17267129719740D-01
   2   3   2   8 -0.28663482418670D+00 -0.37568125374447D-15
   3   3   2   8 -0.20712382721343D+00 -0.17267129719743D-01
   1   4   2   8 -0.20426709373495D+00 -0.10252708532895D-01
   2   4   2   8 -0.28092135722970D+00 -0.77051781285837D-14
   3   4   2   8 -0.76654263494750D-01 -0.10252708532900D-01
   1   5   2   8 -0.99667850578212D-01  0.38615377102760D-02
   2   5   2   8 -0.92093531089515D+00 -0.19334568022657D-14
   3   5   2   8 -0.82126712925902D+00  0.38615377102825D-02
   1   6   2   8 -0.66305167425520D+00 -0.46409746940768D+00
   2   6   2   8 -0.44554599557972D+00 -0.27376213190617D+00
   3   6   2   8 -0.12165695358041D+01 -0.96645737166967D+00
   1   7   2   8  0.77102731139821D+00 -0.69271075731645D+00
   2   7   2   8 -0.44555136195524D+00  0.27372908225723D+00
   3   7   2   8  0.21750109267171D+00 -0.19035919775881D+00
   1   8   2   8  0.27094371810564D+01  0.23665584267565D-01
   2   8   2   8  0.12997899571913D+02 -0.25618094304832D-15
   3   8   2   8  0.10288462390858D+02  0.23665584267565D-01
   1   9   2   8  0.48162741495534D+00 -0.25893653646058D+00
   2   9   2   8 -0.10431521495901D-03 -0.59027263850214D+01
   3   9   2   8  0.48150371672991D+00 -0.56438244635923D+01
   1   1   3   8 -0.61659398247789D+00 -0.33030542240415D+00
   2   1   3   8 -0.40090056173105D+00 -0.22094590199902D+00
   3   1   3   8 -0.48522908673427D+00 -0.18371020313404D+00
   1   2   3   8 -0.37235698864982D-01 -0.84328525003214D-01
   2   2   3   8 -0.14659521927013D+00  0.13136489574359D+00
   3   2   3   8  0.18371020313403D+00 -0.48522908673427D+00
   1   3   3   8  0.38852308869730D-02 -0.27519838252636D-01
   2   3   3   8 -0.79510996973243D-01 -0.17267129719739D-01
   3   3   3   8 -0.20038186284801D+00 -0.17267129719740D-01
   1   4   3   8 -0.12087086587475D+00  0.98949187321439D-17
   2   4   3   8 -0.20426709373493D+00  0.10252708532887D-01
   3   4   3   8 -0.20038186284802D+00 -0.17267129719744D-01
   1   5   3   8 -0.12735059066186D+00  0.38615377102816D-02
   2   5   3   8 -0.82126746031696D+00  0.38613523441729D-02
   3   5   3   8 -0.94861805097883D+00  0.77228900544500D-02
   1   6   3   8 -0.12121922952356D+01 -0.96507715412819D+00
   2   6   3   8 -0.10553384535551D+01 -0.10001791229090D+01
   3   6   3   8 -0.22675307487907D+01 -0.19652562770372D+01
   1   7   3   8  0.22188669041779D+00 -0.19173107259596D+00
   2   7   3   8  0.56272438652436D-01 -0.22408653324850D+00
   3   7   3   8  0.27815912907023D+00 -0.41581760584447D+00
   1   8   3   8  0.25956194742141D+01  0.23665584267565D-01
   2   8   3   8  0.10288462390858D+02 -0.23578898157972D-01
   3   8   3   8  0.12884081865072D+02  0.86686109592406D-04
   1   9   3   8  0.48161702183675D+00 -0.45540231810788D-01
   2   9   3   8 -0.17592131895367D-01 -0.56438170383310D+01
   3   9   3   8  0.46402488994137D+00 -0.56893572701419D+01
   1   1   1   9 -0.89507511367387D+00  0.89507299603020D+00
   2   1   1   9 -0.95671223274079D+00 -0.75294006523686D-06
   3   1   1   9 -0.89507436073378D+00 -0.61639236710603D-01
   1   2   1   9  0.89507299603018D+00  0.89507511367387D+00
   2   2   1   9  0.95671223274077D+00  0.75294005827474D-06
   3   2   1   9  0.89507374897016D+00 -0.61637119066898D-01
   1   3   1   9  0.46425614063645D+00 -0.56895762050955D+01
   2   3   1   9  0.48173435693372D+00 -0.56440125579177D+01
   3   3   1   9 -0.17478216297245D-01 -0.45563647177651D-01
   1   4   1   9 -0.46402495624972D+00 -0.56895699316392D+01
   2   4   1   9 -0.48150328557018D+00 -0.56440163704529D+01
   3   4   1   9  0.17478329320454D-01 -0.45553561186290D-01
   1   5   1   9  0.10280095372371D-04  0.30451351301377D+00
   2   5   1   9 -0.48160848464497D+00  0.25895300256418D+00
   3   5   1   9 -0.48161887776357D+00  0.45556697914405D-01
   1   6   1   9 -0.56481048890592D+01  0.17785613491485D+00
   2   6   1   9 -0.46022030044035D-01  0.17793719094062D+00
   3   6   1   9 -0.56020828590152D+01 -0.81056025748664D-04
   1   7   1   9  0.56480770228805D+01  0.17802151879646D+00
   2   7   1   9  0.45994163865508D-01  0.17794046277074D+00
   3   7   1   9  0.56020828590150D+01  0.81056025741365D-04
   1   8   1   9  0.10280095400616D-04  0.30451351301394D+00
   2   8   1   9  0.48162915785894D+00  0.25895681509945D+00
   3   8   1   9  0.48161876474035D+00  0.45560510449626D-01
   1   9   1   9  0.21391928803308D+02 -0.55300754408583D-03
   2   9   1   9  0.10685586967428D+02 -0.18433584802851D-03
   3   9   1   9  0.10706341835878D+02 -0.36867169605659D-03
   1   1   2   9 -0.83343587696328D+00 -0.13647036278202D-05
   2   1   2   9  0.31853075234652D-15  0.12334387373609D-13
   3   1   2   9 -0.83343587696331D+00 -0.13647036321141D-05
   1   2   2   9  0.83343587696328D+00  0.13647036193038D-05
   2   2   2   9  0.28496341902336D-13  0.27981497935102D-14
   3   2   2   9  0.83343587696325D+00  0.13647036478566D-05
   1   3   2   9 -0.17362737127089D-01 -0.56440195071810D+01
   2   3   2   9  0.10519907477903D-03 -0.59029693730171D+01
   3   3   2   9 -0.17488609415850D-01 -0.25895995182743D+00
   1   4   2   9  0.17593808490628D-01 -0.56440094211896D+01
   2   4   2   9  0.10519907477272D-03 -0.59029693730171D+01
   3   4   2   9  0.17467936201868D-01 -0.25894986583606D+00
   1   5   2   9  0.17488609415838D-01  0.25895995182745D+00
   2   5   2   9 -0.10519907476256D-03  0.59029693730171D+01
   3   5   2   9  0.17362737127120D-01  0.56440195071810D+01
   1   6   2   9 -0.46022030044067D-01  0.17793719094062D+00
   2   6   2   9 -0.92016193909430D-01 -0.32718301214402D-05
   3   6   2   9 -0.45994163865394D-01 -0.17794046277072D+00
   1   7   2   9  0.45994163865476D-01  0.17794046277074D+00
   2   7   2   9  0.92016193909565D-01  0.32718301430838D-05
   3   7   2   9  0.46022030044153D-01 -0.17793719094058D+00
   1   8   2   9 -0.17467936201871D-01  0.25894986583616D+00
   2   8   2   9 -0.10519907478984D-03  0.59029693730170D+01
   3   8   2   9 -0.17593808490656D-01  0.56440094211895D+01
   1   9   2   9  0.10685586967428D+02 -0.18433584802851D-03
   2   9   2   9  0.21371173934853D+02 -0.36867169605673D-03
   3   9   2   9  0.10685586967427D+02 -0.18433584802902D-03
   1   1   3   9 -0.89507374897024D+00  0.61637119066906D-01
   2   1   3   9 -0.95671223274083D+00 -0.75294006978659D-06
   3   1   3   9 -0.89507299603015D+00 -0.89507511367395D+00
   1   2   3   9  0.89507436073374D+00  0.61639236710610D-01
   2   2   3   9  0.95671223274075D+00  0.75294008648494D-06
   3   2   3   9  0.89507511367390D+00 -0.89507299603015D+00
   1   3   3   9  0.48161887776357D+00 -0.45556697914362D-01
   2   3   3   9  0.48160848464496D+00 -0.25895300256416D+00
   3   3   3   9 -0.10280095388237D-04 -0.30451351301382D+00
   1   4   3   9 -0.48161876474035D+00 -0.45560510449571D-01
   2   4   3   9 -0.48162915785894D+00 -0.25895681509935D+00
   3   4   3   9 -0.10280095389916D-04 -0.30451351301381D+00
   1   5   3   9  0.17478216297241D-01  0.45563647177692D-01
   2   5   3   9 -0.48173435693369D+00  0.56440125579177D+01
   3   5   3   9 -0.46425614063645D+00  0.56895762050956D+01
   1   6   3   9 -0.56020828590152D+01 -0.81056025748518D-04
   2   6   3   9 -0.45994163865391D-01 -0.17794046277072D+00
   3   6   3   9 -0.56480770228805D+01 -0.17802151879645D+00
   1   7   3   9  0.56020828590150D+01  0.81056025741219D-04
   2   7   3   9  0.46022030044160D-01 -0.17793719094058D+00
   3   7   3   9  0.56481048890592D+01 -0.17785613491483D+00
   1   8   3   9 -0.17478329320465D-01  0.45553561186345D-01
   2   8   3   9  0.48150328557016D+00  0.56440163704528D+01
   3   8   3   9  0.46402495624967D+00  0.56895699316391D+01
   1   9   3   9  0.10706341835878D+02 -0.36867169605659D-03
   2   9   3   9  0.10685586967427D+02 -0.18433584802902D-03
   3   9   3   9  0.21391928803304D+02 -0.55300754408521D-03

 List of bloks and their characteristics 
  
 2nd derivatives (non-stat.)  - # elements :     906
 qpt  0.00000000E+00  0.00000000E+00  0.00000000E+00   1.0
  
 2nd derivatives (non-stat.)  - # elements :     729
 qpt  2.50000000E-01  0.00000000E+00  0.00000000E+00   1.0
  
 2nd derivatives (non-stat.)  - # elements :     729
 qpt  5.00000000E-01  0.00000000E+00  0.00000000E+00   1.0
  
 2nd derivatives (non-stat.)  - # elements :     729
 qpt  2.50000000E-01  2.50000000E-01  0.00000000E+00   1.0
  
 2nd derivatives (non-stat.)  - # elements :     729
 qpt  5.00000000E-01  2.50000000E-01  0.00000000E+00   1.0
  
 2nd derivatives (non-stat.)  - # elements :     729
 qpt -2.50000000E-01  2.50000000E-01  0.00000000E+00   1.0
  
 2nd derivatives (non-stat.)  - # elements :     729
 qpt  5.00000000E-01  5.00000000E-01  0.00000000E+00   1.0
  
 2nd derivatives (non-stat.)  - # elements :     729
 qpt -2.50000000E-01  5.00000000E-01  2.50000000E-01   1.0
