
.Version 9.2.2 of ABINIT 
.(MPI version, prepared for a x86_64_linux_gnu9.3 computer) 

.Copyright (C) 1998-2020 ABINIT group . 
 ABINIT comes with ABSOLUTELY NO WARRANTY.
 It is free software, and you are welcome to redistribute it
 under certain conditions (GNU General Public License,
 see ~abinit/COPYING or http://www.gnu.org/copyleft/gpl.txt).

 ABINIT is a project of the Universite Catholique de Louvain,
 Corning Inc. and other collaborators, see ~abinit/doc/developers/contributors.txt .
 Please read https://docs.abinit.org/theory/acknowledgments for suggested
 acknowledgments of the ABINIT effort.
 For more information, see https://www.abinit.org .

.Starting date : Wed  9 Nov 2022.
- ( at 16h13 )
  
- input  file    -> Cs2TiI6.in
- output file    -> Cs2TiI6.out
- root for input  files -> Cs2TiI6i
- root for output files -> Cs2TiI6o

- inpspheads : Reading pseudopotential header in XML form from 
-   ../../../Psps_for_tests/ATOMICDATA/Cs.GGA_PBE-JTH.xml
- inpspheads : Reading pseudopotential header in XML form from 
-   ../../../Psps_for_tests/ATOMICDATA/I.GGA_PBE-JTH.xml
- inpspheads : Reading pseudopotential header in XML form from 
-   ../../../Psps_for_tests/ATOMICDATA/Hf.GGA_PBE-JTH.xml
- inpspheads : Reading pseudopotential header in XML form from 
-   ../../../Psps_for_tests/ATOMICDATA/Br.GGA_PBE-JTH.xml

 DATASET    1 : space group I4 m m (#107); Bravais tI (body-center tetrag.)
================================================================================
 Values of the parameters that define the memory need for DATASET  1.
     intxc =       0    ionmov =       0      iscf =      17    lmnmax =      18
     lnmax =       6     mgfft =      60  mpssoang =       3    mqgrid =    3475
     natom =       9  nloc_mem =       2    nspden =       1   nspinor =       1
    nsppol =       1      nsym =       8    n1xccc =       1    ntypat =       4
    occopt =       1   xclevel =       2
-    mband =          42        mffmem =           1         mkmem =          28
       mpw =        7258          nfft =      216000          nkpt =         163
Pmy_natom=         2
 PAW method is used; the additional fine FFT grid is defined by:
   mgfftf=        90    nfftf =    729000
================================================================================
P This job should need less than                     357.559 Mbytes of memory.
  Rough estimation (10% accuracy) of disk space for files :
_ WF disk file :    758.185 Mbytes ; DEN or POT disk file :      5.564 Mbytes.
================================================================================


 DATASET    2 : space group I4 m m (#107); Bravais tI (body-center tetrag.)
================================================================================
 Values of the parameters that define the memory need for DATASET  2.
     intxc =       0    ionmov =       0      iscf =      17    lmnmax =      18
     lnmax =       6     mgfft =      60  mpssoang =       3    mqgrid =    3472
     natom =       9  nloc_mem =       2    nspden =       1   nspinor =       1
    nsppol =       1      nsym =       8    n1xccc =       1    ntypat =       4
    occopt =       1   xclevel =       2
-    mband =          42        mffmem =           1         mkmem =          28
       mpw =        7243          nfft =      216000          nkpt =         163
Pmy_natom=         2
 PAW method is used; the additional fine FFT grid is defined by:
   mgfftf=        90    nfftf =    729000
================================================================================
P This job should need less than                     357.268 Mbytes of memory.
  Rough estimation (10% accuracy) of disk space for files :
_ WF disk file :    756.618 Mbytes ; DEN or POT disk file :      5.564 Mbytes.
================================================================================


 DATASET    3 : space group I4 m m (#107); Bravais tI (body-center tetrag.)
================================================================================
 Values of the parameters that define the memory need for DATASET  3.
     intxc =       0    ionmov =       0      iscf =      17    lmnmax =      18
     lnmax =       6     mgfft =      60  mpssoang =       3    mqgrid =    3468
     natom =       9  nloc_mem =       2    nspden =       1   nspinor =       1
    nsppol =       1      nsym =       8    n1xccc =       1    ntypat =       4
    occopt =       1   xclevel =       2
-    mband =          42        mffmem =           1         mkmem =          28
       mpw =        7223          nfft =      216000          nkpt =         163
Pmy_natom=         2
 PAW method is used; the additional fine FFT grid is defined by:
   mgfftf=        90    nfftf =    729000
================================================================================
P This job should need less than                     356.876 Mbytes of memory.
  Rough estimation (10% accuracy) of disk space for files :
_ WF disk file :    754.529 Mbytes ; DEN or POT disk file :      5.564 Mbytes.
================================================================================


 DATASET    4 : space group I4 m m (#107); Bravais tI (body-center tetrag.)
================================================================================
 Values of the parameters that define the memory need for DATASET  4.
     intxc =       0    ionmov =       0      iscf =      17    lmnmax =      18
     lnmax =       6     mgfft =      60  mpssoang =       3    mqgrid =    3465
     natom =       9  nloc_mem =       2    nspden =       1   nspinor =       1
    nsppol =       1      nsym =       8    n1xccc =       1    ntypat =       4
    occopt =       1   xclevel =       2
-    mband =          42        mffmem =           1         mkmem =          28
       mpw =        7199          nfft =      216000          nkpt =         163
Pmy_natom=         2
 PAW method is used; the additional fine FFT grid is defined by:
   mgfftf=        90    nfftf =    729000
================================================================================
P This job should need less than                     356.403 Mbytes of memory.
  Rough estimation (10% accuracy) of disk space for files :
_ WF disk file :    752.022 Mbytes ; DEN or POT disk file :      5.564 Mbytes.
================================================================================


 DATASET    5 : space group I4 m m (#107); Bravais tI (body-center tetrag.)
================================================================================
 Values of the parameters that define the memory need for DATASET  5.
     intxc =       0    ionmov =       0      iscf =      17    lmnmax =      18
     lnmax =       6     mgfft =      54  mpssoang =       3    mqgrid =    3461
     natom =       9  nloc_mem =       2    nspden =       1   nspinor =       1
    nsppol =       1      nsym =       8    n1xccc =       1    ntypat =       4
    occopt =       1   xclevel =       2
-    mband =          42        mffmem =           1         mkmem =          28
       mpw =        7183          nfft =      157464          nkpt =         163
Pmy_natom=         2
 PAW method is used; the additional fine FFT grid is defined by:
   mgfftf=        90    nfftf =    729000
================================================================================
P This job should need less than                     347.378 Mbytes of memory.
  Rough estimation (10% accuracy) of disk space for files :
_ WF disk file :    750.350 Mbytes ; DEN or POT disk file :      5.564 Mbytes.
================================================================================


 DATASET    6 : space group I4 m m (#107); Bravais tI (body-center tetrag.)
================================================================================
 Values of the parameters that define the memory need for DATASET  6.
     intxc =       0    ionmov =       0      iscf =      17    lmnmax =      18
     lnmax =       6     mgfft =      54  mpssoang =       3    mqgrid =    3458
     natom =       9  nloc_mem =       2    nspden =       1   nspinor =       1
    nsppol =       1      nsym =       8    n1xccc =       1    ntypat =       4
    occopt =       1   xclevel =       2
-    mband =          42        mffmem =           1         mkmem =          28
       mpw =        7147          nfft =      157464          nkpt =         163
Pmy_natom=         2
 PAW method is used; the additional fine FFT grid is defined by:
   mgfftf=        90    nfftf =    729000
================================================================================
P This job should need less than                     346.663 Mbytes of memory.
  Rough estimation (10% accuracy) of disk space for files :
_ WF disk file :    746.590 Mbytes ; DEN or POT disk file :      5.564 Mbytes.
================================================================================


 DATASET    7 : space group I4 m m (#107); Bravais tI (body-center tetrag.)
================================================================================
 Values of the parameters that define the memory need for DATASET  7.
     intxc =       0    ionmov =       0      iscf =      17    lmnmax =      18
     lnmax =       6     mgfft =      54  mpssoang =       3    mqgrid =    3454
     natom =       9  nloc_mem =       2    nspden =       1   nspinor =       1
    nsppol =       1      nsym =       8    n1xccc =       1    ntypat =       4
    occopt =       1   xclevel =       2
-    mband =          42        mffmem =           1         mkmem =          28
       mpw =        7119          nfft =      157464          nkpt =         163
Pmy_natom=         2
 PAW method is used; the additional fine FFT grid is defined by:
   mgfftf=        90    nfftf =    729000
================================================================================
P This job should need less than                     346.109 Mbytes of memory.
  Rough estimation (10% accuracy) of disk space for files :
_ WF disk file :    743.665 Mbytes ; DEN or POT disk file :      5.564 Mbytes.
================================================================================


 DATASET    8 : space group I4 m m (#107); Bravais tI (body-center tetrag.)
================================================================================
 Values of the parameters that define the memory need for DATASET  8.
     intxc =       0    ionmov =       0      iscf =      17    lmnmax =      18
     lnmax =       6     mgfft =      54  mpssoang =       3    mqgrid =    3451
     natom =       9  nloc_mem =       2    nspden =       1   nspinor =       1
    nsppol =       1      nsym =       8    n1xccc =       1    ntypat =       4
    occopt =       1   xclevel =       2
-    mband =          42        mffmem =           1         mkmem =          28
       mpw =        7099          nfft =      157464          nkpt =         163
Pmy_natom=         2
 PAW method is used; the additional fine FFT grid is defined by:
   mgfftf=        90    nfftf =    729000
================================================================================
P This job should need less than                     345.718 Mbytes of memory.
  Rough estimation (10% accuracy) of disk space for files :
_ WF disk file :    741.575 Mbytes ; DEN or POT disk file :      5.564 Mbytes.
================================================================================


 DATASET    9 : space group I4 m m (#107); Bravais tI (body-center tetrag.)
================================================================================
 Values of the parameters that define the memory need for DATASET  9.
     intxc =       0    ionmov =       0      iscf =      17    lmnmax =      18
     lnmax =       6     mgfft =      54  mpssoang =       3    mqgrid =    3447
     natom =       9  nloc_mem =       2    nspden =       1   nspinor =       1
    nsppol =       1      nsym =       8    n1xccc =       1    ntypat =       4
    occopt =       1   xclevel =       2
-    mband =          42        mffmem =           1         mkmem =          28
       mpw =        7078          nfft =      157464          nkpt =         163
Pmy_natom=         2
 PAW method is used; the additional fine FFT grid is defined by:
   mgfftf=        90    nfftf =    729000
================================================================================
P This job should need less than                     345.305 Mbytes of memory.
  Rough estimation (10% accuracy) of disk space for files :
_ WF disk file :    739.382 Mbytes ; DEN or POT disk file :      5.564 Mbytes.
================================================================================


 DATASET   10 : space group I4 m m (#107); Bravais tI (body-center tetrag.)
================================================================================
 Values of the parameters that define the memory need for DATASET 10.
     intxc =       0    ionmov =       0      iscf =      17    lmnmax =      18
     lnmax =       6     mgfft =      54  mpssoang =       3    mqgrid =    3444
     natom =       9  nloc_mem =       2    nspden =       1   nspinor =       1
    nsppol =       1      nsym =       8    n1xccc =       1    ntypat =       4
    occopt =       1   xclevel =       2
-    mband =          42        mffmem =           1         mkmem =          28
       mpw =        7057          nfft =      157464          nkpt =         163
Pmy_natom=         2
 PAW method is used; the additional fine FFT grid is defined by:
   mgfftf=        90    nfftf =    729000
================================================================================
P This job should need less than                     344.894 Mbytes of memory.
  Rough estimation (10% accuracy) of disk space for files :
_ WF disk file :    737.188 Mbytes ; DEN or POT disk file :      5.564 Mbytes.
================================================================================

--------------------------------------------------------------------------------
------------- Echo of variables that govern the present computation ------------
--------------------------------------------------------------------------------
-
- outvars: echo of selected default values                                      
-   iomode0 =  0 , fftalg0 =112 , wfoptalg0 = 10
-
- outvars: echo of global parameters not present in the input file              
-  max_nthreads =    0
-
 -outvars: echo values of preprocessed input variables --------
            acell1     1.4900887330E+01  1.5045529276E+01  1.4900887330E+01 Bohr
            acell2     1.4885954599E+01  1.5030504996E+01  1.4885954599E+01 Bohr
            acell3     1.4870684189E+01  1.5016205252E+01  1.4870684189E+01 Bohr
            acell4     1.4855053973E+01  1.5002678802E+01  1.4855053973E+01 Bohr
            acell5     1.4839927689E+01  1.4988070535E+01  1.4839927689E+01 Bohr
            acell6     1.4824941959E+01  1.4973160254E+01  1.4824941959E+01 Bohr
            acell7     1.4809879038E+01  1.4958415949E+01  1.4809879038E+01 Bohr
            acell8     1.4794733672E+01  1.4943849036E+01  1.4794733672E+01 Bohr
            acell9     1.4779621832E+01  1.4929210171E+01  1.4779621832E+01 Bohr
            acell10    1.4764225413E+01  1.4915184063E+01  1.4764225413E+01 Bohr
              amu      1.32905430E+02  1.26904470E+02  1.78490000E+02
                       7.99040000E+01
           diemac      1.20000000E+01
             ecut      1.60000000E+01 Hartree
-          fftalg         112
           istwfk        2    0    0    0    0    0    3    0    0    0
                         0    0    0    0    0    0    0    0    0    0
                         0    0    0    0    0    0    0    0    0    0
                         0    0    0    0    0    0    0    0    0    0
                         0    0    7    0    0    0    0    0    0    0
                       outvar_i_n : Printing only first  50 k-points.
              ixc     -101130
           jdtset        1    2    3    4    5    6    7    8    9   10
              kpt      0.00000000E+00  0.00000000E+00  0.00000000E+00
                       8.33333333E-02  0.00000000E+00  0.00000000E+00
                       1.66666667E-01  0.00000000E+00  0.00000000E+00
                       2.50000000E-01  0.00000000E+00  0.00000000E+00
                       3.33333333E-01  0.00000000E+00  0.00000000E+00
                       4.16666667E-01  0.00000000E+00  0.00000000E+00
                       5.00000000E-01  0.00000000E+00  0.00000000E+00
                       8.33333333E-02  8.33333333E-02  0.00000000E+00
                       1.66666667E-01  8.33333333E-02  0.00000000E+00
                       2.50000000E-01  8.33333333E-02  0.00000000E+00
                       3.33333333E-01  8.33333333E-02  0.00000000E+00
                       4.16666667E-01  8.33333333E-02  0.00000000E+00
                       5.00000000E-01  8.33333333E-02  0.00000000E+00
                      -4.16666667E-01  8.33333333E-02  0.00000000E+00
                      -3.33333333E-01  8.33333333E-02  0.00000000E+00
                      -2.50000000E-01  8.33333333E-02  0.00000000E+00
                      -1.66666667E-01  8.33333333E-02  0.00000000E+00
                      -8.33333333E-02  8.33333333E-02  0.00000000E+00
                       1.66666667E-01  1.66666667E-01  0.00000000E+00
                       2.50000000E-01  1.66666667E-01  0.00000000E+00
                       3.33333333E-01  1.66666667E-01  0.00000000E+00
                       4.16666667E-01  1.66666667E-01  0.00000000E+00
                       5.00000000E-01  1.66666667E-01  0.00000000E+00
                      -4.16666667E-01  1.66666667E-01  0.00000000E+00
                      -3.33333333E-01  1.66666667E-01  0.00000000E+00
                      -2.50000000E-01  1.66666667E-01  0.00000000E+00
                      -1.66666667E-01  1.66666667E-01  0.00000000E+00
                       2.50000000E-01  2.50000000E-01  0.00000000E+00
                       3.33333333E-01  2.50000000E-01  0.00000000E+00
                       4.16666667E-01  2.50000000E-01  0.00000000E+00
                       5.00000000E-01  2.50000000E-01  0.00000000E+00
                      -4.16666667E-01  2.50000000E-01  0.00000000E+00
                      -3.33333333E-01  2.50000000E-01  0.00000000E+00
                      -2.50000000E-01  2.50000000E-01  0.00000000E+00
                       3.33333333E-01  3.33333333E-01  0.00000000E+00
                       4.16666667E-01  3.33333333E-01  0.00000000E+00
                       5.00000000E-01  3.33333333E-01  0.00000000E+00
                      -4.16666667E-01  3.33333333E-01  0.00000000E+00
                      -3.33333333E-01  3.33333333E-01  0.00000000E+00
                       4.16666667E-01  4.16666667E-01  0.00000000E+00
                       5.00000000E-01  4.16666667E-01  0.00000000E+00
                      -4.16666667E-01  4.16666667E-01  0.00000000E+00
                       5.00000000E-01  5.00000000E-01  0.00000000E+00
                       8.33333333E-02  0.00000000E+00  8.33333333E-02
                       1.66666667E-01  0.00000000E+00  8.33333333E-02
                       2.50000000E-01  0.00000000E+00  8.33333333E-02
                       3.33333333E-01  0.00000000E+00  8.33333333E-02
                       4.16666667E-01  0.00000000E+00  8.33333333E-02
                       5.00000000E-01  0.00000000E+00  8.33333333E-02
                      -4.16666667E-01  0.00000000E+00  8.33333333E-02
                       outvar_i_n : Printing only first  50 k-points.
         kptrlatt       12    0    0      0   12    0      0    0   12
          kptrlen1     1.78810648E+02
          kptrlen2     1.78631455E+02
          kptrlen3     1.78448210E+02
          kptrlen4     1.78260648E+02
          kptrlen5     1.78079132E+02
          kptrlen6     1.77899304E+02
          kptrlen7     1.77718548E+02
          kptrlen8     1.77536804E+02
          kptrlen9     1.77355462E+02
          kptrlen10    1.77170705E+02
P           mkmem          28
            natom           9
            nband          42
           ndtset          10
            ngfft1         60      60      60
            ngfft2         60      60      60
            ngfft3         60      60      60
            ngfft4         60      60      60
            ngfft5         54      54      54
            ngfft6         54      54      54
            ngfft7         54      54      54
            ngfft8         54      54      54
            ngfft9         54      54      54
            ngfft10        54      54      54
          ngfftdg          90      90      90
             nkpt         163
            nstep        2500
             nsym           8
           ntypat           4
              occ      2.000000  2.000000  2.000000  2.000000  2.000000  2.000000
                       2.000000  2.000000  2.000000  2.000000  2.000000  2.000000
                       2.000000  2.000000  2.000000  2.000000  2.000000  2.000000
                       2.000000  2.000000  2.000000  2.000000  2.000000  2.000000
                       2.000000  2.000000  2.000000  2.000000  2.000000  2.000000
                       2.000000  2.000000  2.000000  2.000000  2.000000  2.000000
                       0.000000  0.000000  0.000000  0.000000  0.000000  0.000000
        pawecutdg      4.00000000E+01 Hartree
            prtwf           0
            rprim1     0.0000000000E+00  7.0017565844E-01  7.1397062077E-01
                       7.0710678119E-01  0.0000000000E+00  7.0710678119E-01
                       7.1397062077E-01  7.0017565844E-01  0.0000000000E+00
            rprim2     0.0000000000E+00  7.0017307178E-01  7.1397315745E-01
                       7.0710678119E-01  0.0000000000E+00  7.0710678119E-01
                       7.1397315745E-01  7.0017307178E-01  0.0000000000E+00
            rprim3     0.0000000000E+00  7.0011881250E-01  7.1402636393E-01
                       7.0710678119E-01  0.0000000000E+00  7.0710678119E-01
                       7.1402636393E-01  7.0011881250E-01  0.0000000000E+00
            rprim4     0.0000000000E+00  7.0000924098E-01  7.1413378476E-01
                       7.0710678119E-01  0.0000000000E+00  7.0710678119E-01
                       7.1413378476E-01  7.0000924098E-01  0.0000000000E+00
            rprim5     0.0000000000E+00  6.9997675137E-01  7.1416563033E-01
                       7.0710678119E-01  0.0000000000E+00  7.0710678119E-01
                       7.1416563033E-01  6.9997675137E-01  0.0000000000E+00
            rprim6     0.0000000000E+00  6.9996579955E-01  7.1417636440E-01
                       7.0710678119E-01  0.0000000000E+00  7.0710678119E-01
                       7.1417636440E-01  6.9996579955E-01  0.0000000000E+00
            rprim7     0.0000000000E+00  6.9994294106E-01  7.1419876733E-01
                       7.0710678119E-01  0.0000000000E+00  7.0710678119E-01
                       7.1419876733E-01  6.9994294106E-01  0.0000000000E+00
            rprim8     0.0000000000E+00  6.9990732141E-01  7.1423367425E-01
                       7.0710678119E-01  0.0000000000E+00  7.0710678119E-01
                       7.1423367425E-01  6.9990732141E-01  0.0000000000E+00
            rprim9     0.0000000000E+00  6.9987679196E-01  7.1426359005E-01
                       7.0710678119E-01  0.0000000000E+00  7.0710678119E-01
                       7.1426359005E-01  6.9987679196E-01  0.0000000000E+00
            rprim10    0.0000000000E+00  6.9980218976E-01  7.1433668197E-01
                       7.0710678119E-01  0.0000000000E+00  7.0710678119E-01
                       7.1433668197E-01  6.9980218976E-01  0.0000000000E+00
          spgroup         107
           symrel      1  0  0   0  1  0   0  0  1       0  0  1   0  1  0   1  0  0
                       0 -1  1   0 -1  0   1 -1  0       1 -1  0   0 -1  0   0 -1  1
                       0 -1  1  -1  0  1   0  0  1       0  0  1  -1  0  1   0 -1  1
                       1  0  0   1  0 -1   1 -1  0       1 -1  0   1  0 -1   1  0  0
           toldfe      1.00000000E-08 Hartree
            typat      1  1  4  2  2  2  2  2  3
           useylm           1
              wtk        0.00058    0.00463    0.00463    0.00463    0.00463    0.00463
                         0.00231    0.00231    0.00926    0.00926    0.00926    0.00926
                         0.00926    0.00926    0.00926    0.00926    0.00926    0.00463
                         0.00231    0.00926    0.00926    0.00926    0.00926    0.00926
                         0.00926    0.00926    0.00463    0.00231    0.00926    0.00926
                         0.00926    0.00926    0.00926    0.00463    0.00231    0.00926
                         0.00926    0.00926    0.00463    0.00231    0.00926    0.00463
                         0.00116    0.00116    0.00463    0.00463    0.00463    0.00463
                         0.00463    0.00463
                       outvars : Printing only first  50 k-points.
           xangst1     2.8149041261E+00  2.7494287052E+00  2.8149041261E+00
                       8.4447123783E+00  8.2704607828E+00  8.4447123783E+00
                       5.6298082521E+00  8.3888569527E+00  5.6298082521E+00
                       5.6298082521E+00  5.5163308705E+00  2.8324008542E+00
                       5.6298082523E+00  5.5163308705E+00  8.4272156503E+00
                       5.6298082523E+00  2.7629686589E+00  5.6298082523E+00
                       8.4272156503E+00  5.5163308705E+00  5.6298082523E+00
                       2.8324008542E+00  5.5163308705E+00  5.6298082521E+00
                       2.0701475182E-12 -6.8746625890E-02  2.0701475182E-12
           xangst2     2.8120931976E+00  2.7469421863E+00  2.8120931976E+00
                       8.4362795927E+00  8.2624210573E+00  8.4362795927E+00
                       5.6241863950E+00  8.3777465424E+00  5.6241863950E+00
                       5.6241863950E+00  5.5110681661E+00  2.8314788707E+00
                       5.6241863952E+00  5.5110681661E+00  8.4168939195E+00
                       5.6241863952E+00  2.7616517803E+00  5.6241863952E+00
                       8.4168939195E+00  5.5110681661E+00  5.6241863952E+00
                       2.8314788707E+00  5.5110681661E+00  5.6241863950E+00
                       2.2443661645E-12 -6.9167963887E-02  2.2443661645E-12
           xangst3     2.8094178242E+00  2.7448182883E+00  2.8094178242E+00
                       8.4282534725E+00  8.2542122551E+00  8.4282534725E+00
                       5.6188356482E+00  8.3651421794E+00  5.6188356482E+00
                       5.6188356482E+00  5.5052529173E+00  2.8305047275E+00
                       5.6188356484E+00  5.5052529173E+00  8.4071665691E+00
                       5.6188356484E+00  2.7600744268E+00  5.6188356484E+00
                       8.4071665691E+00  5.5052529173E+00  5.6188356484E+00
                       2.8305047275E+00  5.5052529173E+00  5.6188356482E+00
                       2.7159875097E-12 -7.0071824596E-02  2.7159875097E-12
           xangst4     2.8068871283E+00  2.7415357666E+00  2.8068871283E+00
                       8.4206613848E+00  8.2442776060E+00  8.4206613848E+00
                       5.6137742565E+00  8.3521497965E+00  5.6137742565E+00
                       5.6137742565E+00  5.4988569068E+00  2.8296109535E+00
                       5.6137742566E+00  5.4988569068E+00  8.3979375596E+00
                       5.6137742566E+00  2.7587867028E+00  5.6137742566E+00
                       8.3979375596E+00  5.4988569068E+00  5.6137742566E+00
                       2.8296109535E+00  5.4988569068E+00  5.6137742565E+00
                       1.2054961785E-12 -7.0207567086E-02  1.2054961785E-12
           xangst5     2.8041540326E+00  2.7387830267E+00  2.8041540326E+00
                       8.4124620979E+00  8.2356665134E+00  8.4124620979E+00
                       5.6083080652E+00  8.3404971129E+00  5.6083080652E+00
                       5.6083080652E+00  5.4932920885E+00  2.8286554738E+00
                       5.6083080653E+00  5.4932920885E+00  8.3879606566E+00
                       5.6083080653E+00  2.7575162584E+00  5.6083080653E+00
                       8.3879606566E+00  5.4932920885E+00  5.6083080653E+00
                       2.8286554738E+00  5.4932920885E+00  5.6083080652E+00
                       6.3221359515E-13 -7.0528191569E-02  6.3221359515E-13
           xangst6     2.8013644323E+00  2.7357846173E+00  2.8013644323E+00
                       8.4040932970E+00  8.2270312964E+00  8.4040932970E+00
                       5.6027288646E+00  8.3295004675E+00  5.6027288646E+00
                       5.6027288646E+00  5.4879940930E+00  2.8276661235E+00
                       5.6027288648E+00  5.4879940930E+00  8.3777916059E+00
                       5.6027288648E+00  2.7563874184E+00  5.6027288648E+00
                       8.3777916059E+00  5.4879940930E+00  5.6027288648E+00
                       2.8276661235E+00  5.4879940930E+00  5.6027288646E+00
                       2.4801912658E-12 -7.0671595007E-02  2.4801912658E-12
           xangst7     2.7986058851E+00  2.7334754181E+00  2.7986058851E+00
                       8.3958176552E+00  8.2189635585E+00  8.3958176552E+00
                       5.5972117701E+00  8.3178298313E+00  5.5972117701E+00
                       5.5972117701E+00  5.4825284813E+00  2.8266795180E+00
                       5.5972117702E+00  5.4825284813E+00  8.3677440223E+00
                       5.5972117702E+00  2.7548740701E+00  5.5972117702E+00
                       8.3677440223E+00  5.4825284813E+00  5.5972117702E+00
                       2.8266795180E+00  5.4825284813E+00  5.5972117701E+00
                       5.2472637953E-13 -7.1316572845E-02  5.2472637953E-13
           xangst8     2.7958805264E+00  2.7304740234E+00  2.7958805264E+00
                       8.3876415792E+00  8.2100735458E+00  8.3876415792E+00
                       5.5917610527E+00  8.3062543916E+00  5.5917610527E+00
                       5.5917610527E+00  5.4769848361E+00  2.8256851022E+00
                       5.5917610528E+00  5.4769848361E+00  8.3578370033E+00
                       5.5917610528E+00  2.7536820360E+00  5.5917610528E+00
                       8.3578370033E+00  5.4769848361E+00  5.5917610528E+00
                       2.8256851022E+00  5.4769848361E+00  5.5917610527E+00
                       1.1494003642E-12 -7.1592092444E-02  1.1494003642E-12
           xangst9     2.7931417060E+00  2.7284100952E+00  2.7931417060E+00
                       8.3794251181E+00  8.2021737979E+00  8.3794251181E+00
                       5.5862834120E+00  8.2942065906E+00  5.5862834120E+00
                       5.5862834120E+00  5.4714137998E+00  2.8246762488E+00
                       5.5862834121E+00  5.4714137998E+00  8.3478905754E+00
                       5.5862834121E+00  2.7520567382E+00  5.5862834121E+00
                       8.3478905754E+00  5.4714137998E+00  5.5862834121E+00
                       2.8246762488E+00  5.4714137998E+00  5.5862834120E+00
                       1.4659945903E-12 -7.2357767981E-02  1.4659945903E-12
           xangst10    2.7905175279E+00  2.7251828027E+00  2.7905175279E+00
                       8.3715525837E+00  8.1926614464E+00  8.3715525837E+00
                       5.5810350558E+00  8.2818137498E+00  5.5810350558E+00
                       5.5810350558E+00  5.4654951226E+00  2.8236727957E+00
                       5.5810350558E+00  5.4654951226E+00  8.3383973159E+00
                       5.5810350558E+00  2.7508017039E+00  5.5810350558E+00
                       8.3383973159E+00  5.4654951226E+00  5.5810350558E+00
                       2.8236727957E+00  5.4654951226E+00  5.5810350558E+00
                       9.2983452334E-13 -7.2576051280E-02  9.2983452334E-13
            xcart1     5.3193978887E+00  5.1956672747E+00  5.3193978887E+00
                       1.5958193666E+01  1.5628905872E+01  1.5958193666E+01
                       1.0638795777E+01  1.5852642209E+01  1.0638795777E+01
                       1.0638795777E+01  1.0424354604E+01  5.3524619129E+00
                       1.0638795777E+01  1.0424354604E+01  1.5925129642E+01
                       1.0638795777E+01  5.2212540791E+00  1.0638795777E+01
                       1.5925129642E+01  1.0424354604E+01  1.0638795777E+01
                       5.3524619129E+00  1.0424354604E+01  1.0638795777E+01
                       3.9120118641E-12 -1.2991229549E-01  3.9120118641E-12
            xcart2     5.3140860035E+00  5.1909684349E+00  5.3140860035E+00
                       1.5942258011E+01  1.5613712993E+01  1.5942258011E+01
                       1.0628172007E+01  1.5831646576E+01  1.0628172007E+01
                       1.0628172007E+01  1.0414409534E+01  5.3507196167E+00
                       1.0628172007E+01  1.0414409534E+01  1.5905624397E+01
                       1.0628172007E+01  5.2187655392E+00  1.0628172007E+01
                       1.5905624397E+01  1.0414409534E+01  1.0628172007E+01
                       5.3507196167E+00  1.0414409534E+01  1.0628172007E+01
                       4.2412373929E-12 -1.3070850892E-01  4.2412373929E-12
            xcart3     5.3090302805E+00  5.1869548494E+00  5.3090302805E+00
                       1.5927090842E+01  1.5598200605E+01  1.5927090842E+01
                       1.0618060561E+01  1.5807827782E+01  1.0618060561E+01
                       1.0618060561E+01  1.0403420306E+01  5.3488787528E+00
                       1.0618060561E+01  1.0403420306E+01  1.5887242369E+01
                       1.0618060561E+01  5.2157847731E+00  1.0618060561E+01
                       1.5887242369E+01  1.0403420306E+01  1.0618060561E+01
                       5.3488787528E+00  1.0403420306E+01  1.0618060561E+01
                       5.1324725736E-12 -1.3241655812E-01  5.1324725736E-12
            xcart4     5.3042479584E+00  5.1807517824E+00  5.3042479584E+00
                       1.5912743875E+01  1.5579426839E+01  1.5912743875E+01
                       1.0608495917E+01  1.5783275736E+01  1.0608495917E+01
                       1.0608495917E+01  1.0391333598E+01  5.3471897648E+00
                       1.0608495917E+01  1.0391333598E+01  1.5869802069E+01
                       1.0608495917E+01  5.2133513274E+00  1.0608495917E+01
                       1.5869802069E+01  1.0391333598E+01  1.0608495917E+01
                       5.3471897648E+00  1.0391333598E+01  1.0608495917E+01
                       2.2780576316E-12 -1.3267307425E-01  2.2780576316E-12
            xcart5     5.2990831561E+00  5.1755498578E+00  5.2990831561E+00
                       1.5897249468E+01  1.5563154232E+01  1.5897249468E+01
                       1.0598166312E+01  1.5761255356E+01  1.0598166312E+01
                       1.0598166312E+01  1.0380817615E+01  5.3453841699E+00
                       1.0598166312E+01  1.0380817615E+01  1.5850948454E+01
                       1.0598166312E+01  5.2109505354E+00  1.0598166312E+01
                       1.5850948454E+01  1.0380817615E+01  1.0598166312E+01
                       5.3453841699E+00  1.0380817615E+01  1.0598166312E+01
                       1.1947105523E-12 -1.3327896671E-01  1.1947105523E-12
            xcart6     5.2938115755E+00  5.1698836853E+00  5.2938115755E+00
                       1.5881434727E+01  1.5546836037E+01  1.5881434727E+01
                       1.0587623151E+01  1.5740474707E+01  1.0587623151E+01
                       1.0587623151E+01  1.0370805855E+01  5.3435145687E+00
                       1.0587623151E+01  1.0370805855E+01  1.5831731733E+01
                       1.0587623151E+01  5.2088173368E+00  1.0587623151E+01
                       1.5831731733E+01  1.0370805855E+01  1.0587623151E+01
                       5.3435145687E+00  1.0370805855E+01  1.0587623151E+01
                       4.6868822495E-12 -1.3354995994E-01  4.6868822495E-12
            xcart7     5.2885986767E+00  5.1655199312E+00  5.2885986767E+00
                       1.5865796030E+01  1.5531590222E+01  1.5865796030E+01
                       1.0577197353E+01  1.5718420401E+01  1.0577197353E+01
                       1.0577197353E+01  1.0360477345E+01  5.3416501545E+00
                       1.0577197353E+01  1.0360477345E+01  1.5812744552E+01
                       1.0577197353E+01  5.2059575231E+00  1.0577197353E+01
                       1.5812744552E+01  1.0360477345E+01  1.0577197353E+01
                       5.3416501545E+00  1.0360477345E+01  1.0577197353E+01
                       9.9158915202E-13 -1.3476879141E-01  9.9158915202E-13
            xcart8     5.2834484951E+00  5.1598481171E+00  5.2834484951E+00
                       1.5850345485E+01  1.5514790532E+01  1.5850345485E+01
                       1.0566896990E+01  1.5696545990E+01  1.0566896990E+01
                       1.0566896990E+01  1.0350001374E+01  5.3397709810E+00
                       1.0566896990E+01  1.0350001374E+01  1.5794023000E+01
                       1.0566896990E+01  5.2037049051E+00  1.0566896990E+01
                       1.5794023000E+01  1.0350001374E+01  1.0566896990E+01
                       5.3397709810E+00  1.0350001374E+01  1.0566896990E+01
                       2.1720519054E-12 -1.3528944800E-01  2.1720519054E-12
            xcart9     5.2782728748E+00  5.1559478581E+00  5.2782728748E+00
                       1.5834818624E+01  1.5499862172E+01  1.5834818624E+01
                       1.0556545749E+01  1.5673778946E+01  1.0556545749E+01
                       1.0556545749E+01  1.0339473641E+01  5.3378645242E+00
                       1.0556545750E+01  1.0339473641E+01  1.5775226975E+01
                       1.0556545750E+01  5.2006335374E+00  1.0556545750E+01
                       1.5775226975E+01  1.0339473641E+01  1.0556545750E+01
                       5.3378645242E+00  1.0339473641E+01  1.0556545749E+01
                       2.7703282879E-12 -1.3673636507E-01  2.7703282879E-12
            xcart10    5.2733138968E+00  5.1498491591E+00  5.2733138968E+00
                       1.5819941690E+01  1.5481886433E+01  1.5819941690E+01
                       1.0546627793E+01  1.5650359871E+01  1.0546627793E+01
                       1.0546627793E+01  1.0328288962E+01  5.3359682727E+00
                       1.0546627794E+01  1.0328288962E+01  1.5757287314E+01
                       1.0546627794E+01  5.1982618663E+00  1.0546627794E+01
                       1.5757287314E+01  1.0328288962E+01  1.0546627794E+01
                       5.3359682727E+00  1.0328288962E+01  1.0546627793E+01
                       1.7571325980E-12 -1.3714886073E-01  1.7571325980E-12
             xred1     2.4899590027E-01  2.5100409973E-01  2.4899590027E-01
                       7.4899590027E-01  7.5100409973E-01  7.4899590027E-01
                       7.5971818627E-01  2.4028181373E-01  7.5971818627E-01
                       2.5112818203E-01  2.5197969079E-01  7.4802030921E-01
                       7.4802030921E-01  7.4887181797E-01  2.5112818203E-01
                       2.5022211609E-01  7.4977788391E-01  2.5022211609E-01
                       2.5112818203E-01  7.4887181797E-01  7.4802030921E-01
                       7.4802030921E-01  2.5197969079E-01  2.5112818203E-01
                      -6.2258853891E-03  6.2258853891E-03 -6.2258853891E-03
             xred2     2.4902118660E-01  2.5097881340E-01  2.4902118660E-01
                       7.4902118660E-01  7.5097881340E-01  7.4902118660E-01
                       7.5947589849E-01  2.4052410151E-01  7.5947589849E-01
                       2.5132357236E-01  2.5212326809E-01  7.4787673191E-01
                       7.4787673191E-01  7.4867642764E-01  2.5132357236E-01
                       2.5035466955E-01  7.4964533045E-01  2.5035466955E-01
                       2.5132357236E-01  7.4867642764E-01  7.4787673191E-01
                       7.4787673191E-01  2.5212326809E-01  2.5132357236E-01
                      -6.2703498195E-03  6.2703498195E-03 -6.2703498195E-03
             xred3     2.4910346808E-01  2.5089653192E-01  2.4910346808E-01
                       7.4910346808E-01  7.5089653192E-01  7.4910346808E-01
                       7.5917081169E-01  2.4082918831E-01  7.5917081169E-01
                       2.5150063063E-01  2.5225226493E-01  7.4774773507E-01
                       7.4774773507E-01  7.4849936937E-01  2.5150063063E-01
                       2.5048802495E-01  7.4951197505E-01  2.5048802495E-01
                       2.5150063063E-01  7.4849936937E-01  7.4774773507E-01
                       7.4774773507E-01  2.5225226493E-01  2.5150063063E-01
                      -6.3593042191E-03  6.3593042191E-03 -6.3593042191E-03
             xred4     2.4910634068E-01  2.5089365932E-01  2.4910634068E-01
                       7.4910634068E-01  7.5089365932E-01  7.4910634068E-01
                       7.5890801716E-01  2.4109198284E-01  7.5890801716E-01
                       2.5167093501E-01  2.5237693443E-01  7.4762306557E-01
                       7.4762306557E-01  7.4832906499E-01  2.5167093501E-01
                       2.5067382619E-01  7.4932617381E-01  2.5067382619E-01
                       2.5167093501E-01  7.4832906499E-01  7.4762306557E-01
                       7.4762306557E-01  2.5237693443E-01  2.5167093501E-01
                      -6.3793259011E-03  6.3793259011E-03 -6.3793259011E-03
             xred5     2.4912143702E-01  2.5087856298E-01  2.4912143702E-01
                       7.4912143702E-01  7.5087856298E-01  7.4912143702E-01
                       7.5865689468E-01  2.4134310532E-01  7.5865689468E-01
                       2.5185771210E-01  2.5251106382E-01  7.4748893618E-01
                       7.4748893618E-01  7.4814228790E-01  2.5185771210E-01
                       2.5082542363E-01  7.4917457637E-01  2.5082542363E-01
                       2.5185771210E-01  7.4814228790E-01  7.4748893618E-01
                       7.4748893618E-01  2.5251106382E-01  2.5185771210E-01
                      -6.4152889305E-03  6.4152889305E-03 -6.4152889305E-03
             xred6     2.4910414494E-01  2.5089585506E-01  2.4910414494E-01
                       7.4910414494E-01  7.5089585506E-01  7.4910414494E-01
                       7.5843437331E-01  2.4156562669E-01  7.5843437331E-01
                       2.5205106050E-01  2.5264338248E-01  7.4735661752E-01
                       7.4735661752E-01  7.4794893950E-01  2.5205106050E-01
                       2.5098011248E-01  7.4901988752E-01  2.5098011248E-01
                       2.5205106050E-01  7.4794893950E-01  7.4735661752E-01
                       7.4735661752E-01  2.5264338248E-01  2.5205106050E-01
                      -6.4349317320E-03  6.4349317320E-03 -6.4349317320E-03
             xred7     2.4915516615E-01  2.5084483385E-01  2.4915516615E-01
                       7.4915516615E-01  7.5084483385E-01  7.4915516615E-01
                       7.5816678647E-01  2.4183321353E-01  7.5816678647E-01
                       2.5223805129E-01  2.5277759473E-01  7.4722240527E-01
                       7.4722240527E-01  7.4776194871E-01  2.5223805129E-01
                       2.5110564453E-01  7.4889435547E-01  2.5110564453E-01
                       2.5223805129E-01  7.4776194871E-01  7.4722240527E-01
                       7.4722240527E-01  2.5277759473E-01  2.5223805129E-01
                      -6.5004764407E-03  6.5004764407E-03 -6.5004764407E-03
             xred8     2.4914904932E-01  2.5085095068E-01  2.4914904932E-01
                       7.4914904932E-01  7.5085095068E-01  7.4914904932E-01
                       7.5792531530E-01  2.4207468470E-01  7.5792531530E-01
                       2.5242646006E-01  2.5290362747E-01  7.4709637253E-01
                       7.4709637253E-01  7.4757353994E-01  2.5242646006E-01
                       2.5126672348E-01  7.4873327652E-01  2.5126672348E-01
                       2.5242646006E-01  7.4757353994E-01  7.4709637253E-01
                       7.4709637253E-01  2.5290362747E-01  2.5242646006E-01
                      -6.5326026246E-03  6.5326026246E-03 -6.5326026246E-03
             xred9     2.4922614890E-01  2.5077385110E-01  2.4922614890E-01
                       7.4922614890E-01  7.5077385110E-01  7.4922614890E-01
                       7.5763286846E-01  2.4236713154E-01  7.5763286846E-01
                       2.5260784610E-01  2.5303714904E-01  7.4696285096E-01
                       7.4696285096E-01  7.4739215390E-01  2.5260784610E-01
                       2.5138614742E-01  7.4861385258E-01  2.5138614742E-01
                       2.5260784610E-01  7.4739215390E-01  7.4696285096E-01
                       7.4696285096E-01  2.5303714904E-01  2.5260784610E-01
                      -6.6095078187E-03  6.6095078187E-03 -6.6095078187E-03
             xred10    2.4921750776E-01  2.5078249224E-01  2.4921750776E-01
                       7.4921750776E-01  7.5078249224E-01  7.4921750776E-01
                       7.5737047087E-01  2.4262952913E-01  7.5737047087E-01
                       2.5278895847E-01  2.5315174383E-01  7.4684825617E-01
                       7.4684825617E-01  7.4721104153E-01  2.5278895847E-01
                       2.5156035196E-01  7.4843964804E-01  2.5156035196E-01
                       2.5278895847E-01  7.4721104153E-01  7.4684825617E-01
                       7.4684825617E-01  2.5315174383E-01  2.5278895847E-01
                      -6.6370676512E-03  6.6370676512E-03 -6.6370676512E-03
            znucl       55.00000   53.00000   72.00000   35.00000

================================================================================

 chkinp: Checking input parameters for consistency, jdtset=   1.

 chkinp: Checking input parameters for consistency, jdtset=   2.

 chkinp: Checking input parameters for consistency, jdtset=   3.

 chkinp: Checking input parameters for consistency, jdtset=   4.

 chkinp: Checking input parameters for consistency, jdtset=   5.

 chkinp: Checking input parameters for consistency, jdtset=   6.

 chkinp: Checking input parameters for consistency, jdtset=   7.

 chkinp: Checking input parameters for consistency, jdtset=   8.

 chkinp: Checking input parameters for consistency, jdtset=   9.

 chkinp: Checking input parameters for consistency, jdtset=  10.

================================================================================
== DATASET  1 ==================================================================
-   mpi_nproc: 6, omp_nthreads: -1 (-1 if OMP is not activated)


--- !DatasetInfo
iteration_state: {dtset: 1, }
dimensions: {natom: 9, nkpt: 163, mband: 42, nsppol: 1, nspinor: 1, nspden: 1, mpw: 7258, }
cutoff_energies: {ecut:  16.0, pawecutdg:  40.0, }
electrons: {nelect:   7.20000000E+01, charge:   0.00000000E+00, occopt:   1.00000000E+00, tsmear:   1.00000000E-02, }
meta: {optdriver: 0, ionmov: 0, optcell: 0, iscf: 17, paral_kgb: 0, }
...

 Real(R)+Recip(G) space primitive vectors, cartesian coordinates (Bohr,Bohr^-1):
 R(1)=  0.0000000 10.4332386 10.6387958  G(1)= -0.0469978  0.0479238  0.0469978
 R(2)= 10.6387958  0.0000000 10.6387958  G(2)=  0.0469978 -0.0479238  0.0469978
 R(3)= 10.6387958 10.4332386  0.0000000  G(3)=  0.0469978  0.0479238 -0.0469978
 Unit cell volume ucvol=  2.3617508E+03 bohr^3
 Angles (23,13,12)=  5.96783743E+01  6.06432514E+01  5.96783743E+01 degrees

 Coarse grid specifications (used for wave-functions):

 getcut: wavevector=  0.0000  0.0000  0.0000  ngfft=  60  60  60
         ecut(hartree)=     16.000   => boxcut(ratio)=   2.21472

 getcut : COMMENT -
  Note that boxcut > 2.2 ; recall that boxcut=Gcut(box)/Gcut(sphere) = 2
  is sufficient for exact treatment of convolution.
  Such a large boxcut is a waste : you could raise ecut
  e.g. ecut=   19.619924 Hartrees makes boxcut=2


 Fine grid specifications (used for densities):

 getcut: wavevector=  0.0000  0.0000  0.0000  ngfft=  90  90  90
         ecut(hartree)=     40.000   => boxcut(ratio)=   2.10134

--- Pseudopotential description ------------------------------------------------
- pspini: atom type   1  psp file is ../../../Psps_for_tests/ATOMICDATA/Cs.GGA_PBE-JTH.xml
- pspatm: opening atomic psp file    ../../../Psps_for_tests/ATOMICDATA/Cs.GGA_PBE-JTH.xml
- pspatm : Reading pseudopotential header in XML form from ../../../Psps_for_tests/ATOMICDATA/Cs.GGA_PBE-JTH.xml
 Pseudopotential format is: paw10
 basis_size (lnmax)=  6 (lmn_size= 18), orbitals=   0   0   1   1   2   2
 Spheres core radius: rc_sph= 2.20660278
 1 radial meshes are used:
  - mesh 1: r(i)=AA*[exp(BB*(i-1))-1], size=1500 , AA= 0.15922E-03 BB= 0.87573E-02
 Shapefunction is SIN type: shapef(r)=[sin(pi*r/rshp)/(pi*r/rshp)]**2
 Radius for shape functions =  2.00394208
 mmax= 1500
 Radial grid used for partial waves is grid 1
 Radial grid used for projectors is grid 1
 Radial grid used for (t)core density is grid 1
 Radial grid used for Vloc is grid 1
 Radial grid used for pseudo valence density is grid 1
 Mesh size for Vloc has been set to 1341 to avoid numerical noise.
 Compensation charge density is not taken into account in XC energy/potential
 pspatm: atomic psp has been read  and splines computed

- pspini: atom type   2  psp file is ../../../Psps_for_tests/ATOMICDATA/I.GGA_PBE-JTH.xml
- pspatm: opening atomic psp file    ../../../Psps_for_tests/ATOMICDATA/I.GGA_PBE-JTH.xml
- pspatm : Reading pseudopotential header in XML form from ../../../Psps_for_tests/ATOMICDATA/I.GGA_PBE-JTH.xml
 Pseudopotential format is: paw10
 basis_size (lnmax)=  4 (lmn_size=  8), orbitals=   0   0   1   1
 Spheres core radius: rc_sph= 2.30022271
 1 radial meshes are used:
  - mesh 1: r(i)=AA*[exp(BB*(i-1))-1], size=2000 , AA= 0.12610E-03 BB= 0.66836E-02
 Shapefunction is SIN type: shapef(r)=[sin(pi*r/rshp)/(pi*r/rshp)]**2
 Radius for shape functions =  2.10879093
 mmax= 2000
 Radial grid used for partial waves is grid 1
 Radial grid used for projectors is grid 1
 Radial grid used for (t)core density is grid 1
 Radial grid used for Vloc is grid 1
 Radial grid used for pseudo valence density is grid 1
 Mesh size for Vloc has been set to 1792 to avoid numerical noise.
 Compensation charge density is not taken into account in XC energy/potential
 pspatm: atomic psp has been read  and splines computed

- pspini: atom type   3  psp file is ../../../Psps_for_tests/ATOMICDATA/Hf.GGA_PBE-JTH.xml
- pspatm: opening atomic psp file    ../../../Psps_for_tests/ATOMICDATA/Hf.GGA_PBE-JTH.xml
- pspatm : Reading pseudopotential header in XML form from ../../../Psps_for_tests/ATOMICDATA/Hf.GGA_PBE-JTH.xml
 Pseudopotential format is: paw10
 basis_size (lnmax)=  6 (lmn_size= 18), orbitals=   0   0   1   1   2   2
 Spheres core radius: rc_sph= 2.41000000
 1 radial meshes are used:
  - mesh 1: r(i)=AA*[exp(BB*(i-1))-1], size= 972 , AA= 0.19796E-03 BB= 0.14253E-01
 Shapefunction is SIN type: shapef(r)=[sin(pi*r/rshp)/(pi*r/rshp)]**2
 Radius for shape functions =  2.41000000
 mmax=  972
 Radial grid used for partial waves is grid 1
 Radial grid used for projectors is grid 1
 Radial grid used for (t)core density is grid 1
 Radial grid used for Vloc is grid 1
 Radial grid used for pseudo valence density is grid 1
 Mesh size for Vloc has been set to  809 to avoid numerical noise.
 Compensation charge density is not taken into account in XC energy/potential
 pspatm: atomic psp has been read  and splines computed

- pspini: atom type   4  psp file is ../../../Psps_for_tests/ATOMICDATA/Br.GGA_PBE-JTH.xml
- pspatm: opening atomic psp file    ../../../Psps_for_tests/ATOMICDATA/Br.GGA_PBE-JTH.xml
- pspatm : Reading pseudopotential header in XML form from ../../../Psps_for_tests/ATOMICDATA/Br.GGA_PBE-JTH.xml
 Pseudopotential format is: paw10
 basis_size (lnmax)=  4 (lmn_size=  8), orbitals=   0   0   1   1
 Spheres core radius: rc_sph= 2.20000000
 1 radial meshes are used:
  - mesh 1: r(i)=AA*[exp(BB*(i-1))-1], size= 927 , AA= 0.40483E-03 BB= 0.14169E-01
 Shapefunction is BESSEL type: shapef(r,l)=aa(1,l)*jl(q(1,l)*r)+aa(2,l)*jl(q(2,l)*r)
 Radius for shape functions =  2.02066386
 mmax=  927
 Radial grid used for partial waves is grid 1
 Radial grid used for projectors is grid 1
 Radial grid used for (t)core density is grid 1
 Radial grid used for Vloc is grid 1
 Radial grid used for pseudo valence density is grid 1
 Mesh size for Vloc has been set to  763 to avoid numerical noise.
 Compensation charge density is not taken into account in XC energy/potential
 pspatm: atomic psp has been read  and splines computed

   4.62562028E+04                                ecore*ucvol(ha*bohr**3)
--------------------------------------------------------------------------------

_setup2: Arith. and geom. avg. npw (full set) are    7219.420    7219.409

================================================================================

--- !BeginCycle
iteration_state: {dtset: 1, }
solver: {iscf: 17, nstep: 2500, nline: 4, wfoptalg: 10, }
tolerances: {toldfe: 1.00E-08, }
...

     iter   Etot(hartree)      deltaE(h)  residm     nres2
 ETOT  1  -161.52342110189    -1.615E+02 8.552E+00 4.755E+00
 ETOT  2  -163.30255119959    -1.779E+00 2.719E-02 2.537E+00
 ETOT  3  -163.29029504165     1.226E-02 2.246E-02 4.495E-01
 ETOT  4  -163.29121634321    -9.213E-04 6.046E-03 1.124E-01
 ETOT  5  -163.29105069034     1.657E-04 4.476E-03 6.922E-03
 ETOT  6  -163.29112709921    -7.641E-05 3.170E-03 9.815E-04
 ETOT  7  -163.29113801492    -1.092E-05 4.477E-03 2.803E-04
 ETOT  8  -163.29114128949    -3.275E-06 2.685E-03 2.062E-05
 ETOT  9  -163.29114139199    -1.025E-07 1.244E-03 4.778E-06
 ETOT 10  -163.29114145123    -5.923E-08 1.035E-03 1.054E-06
 ETOT 11  -163.29114146174    -1.051E-08 7.389E-04 6.822E-07
 ETOT 12  -163.29114146078     9.541E-10 6.608E-04 3.431E-08
 ETOT 13  -163.29114146130    -5.164E-10 4.755E-04 6.706E-08

 At SCF step   13, etot is converged : 
  for the second time, diff in etot=  5.164E-10 < toldfe=  1.000E-08

 Cartesian components of stress tensor (hartree/bohr^3)
  sigma(1 1)= -8.10520936E-05  sigma(3 2)=  2.47277031E-13
  sigma(2 2)= -8.09575085E-05  sigma(3 1)= -4.85001483E-13
  sigma(3 3)= -8.10520936E-05  sigma(2 1)=  2.47278186E-13


--- !ResultsGS
iteration_state: {dtset: 1, }
comment   : Summary of ground state results
lattice_vectors:
- [  0.0000000,  10.4332386,  10.6387958, ]
- [ 10.6387958,   0.0000000,  10.6387958, ]
- [ 10.6387958,  10.4332386,   0.0000000, ]
lattice_lengths: [  14.90089,   15.04553,   14.90089, ]
lattice_angles: [ 59.678,  60.643,  59.678, ] # degrees, (23, 13, 12)
lattice_volume:   2.3617508E+03
convergence: {deltae: -5.164E-10, res2:  6.706E-08, residm:  4.755E-04, diffor: null, }
etotal    :  -1.63291141E+02
entropy   :   0.00000000E+00
fermie    :  -1.06788905E-01
cartesian_stress_tensor: # hartree/bohr^3
- [ -8.10520936E-05,   2.47278186E-13,  -4.85001483E-13, ]
- [  2.47278186E-13,  -8.09575085E-05,   2.47277031E-13, ]
- [ -4.85001483E-13,   2.47277031E-13,  -8.10520936E-05, ]
pressure_GPa:   2.3837E+00
xred      :
- [  2.4900E-01,   2.5100E-01,   2.4900E-01, Cs]
- [  7.4900E-01,   7.5100E-01,   7.4900E-01, Cs]
- [  7.5972E-01,   2.4028E-01,   7.5972E-01, Br]
- [  2.5113E-01,   2.5198E-01,   7.4802E-01,  I]
- [  7.4802E-01,   7.4887E-01,   2.5113E-01,  I]
- [  2.5022E-01,   7.4978E-01,   2.5022E-01,  I]
- [  2.5113E-01,   7.4887E-01,   7.4802E-01,  I]
- [  7.4802E-01,   2.5198E-01,   2.5113E-01,  I]
- [ -6.2259E-03,   6.2259E-03,  -6.2259E-03, Hf]
cartesian_forces: # hartree/bohr
- [ -7.78152618E-22,   8.40683509E-06,   5.69322785E-22, ]
- [ -3.51307634E-22,   8.40683509E-06,   1.42477801E-22, ]
- [ -1.26749374E-21,   1.08461322E-05,   1.05866391E-21, ]
- [ -5.25674242E-16,  -4.73445091E-06,   1.78009300E-05, ]
- [  5.25677557E-16,  -4.73445091E-06,  -1.78009300E-05, ]
- [ -1.54235275E-22,  -4.40578422E-06,  -5.45945578E-23, ]
- [ -1.78009300E-05,  -4.73445091E-06,   5.25675815E-16, ]
- [  1.78009300E-05,  -4.73445091E-06,  -5.25677959E-16, ]
- [ -1.69658302E-22,  -4.31621455E-06,  -3.91715312E-23, ]
force_length_stats: {min:   4.31621455E-06, max:   1.84197756E-05, mean:   1.22289893E-05, }
...

 Integrated electronic density in atomic spheres:
 ------------------------------------------------
 Atom  Sphere_radius  Integrated_density
    1        2.20660          5.37137553
    2        2.20660          5.37137553
    3        2.20000          4.93668684
    4        2.30022          4.03316002
    5        2.30022          4.03316002
    6        2.30022          4.03673655
    7        2.30022          4.03316002
    8        2.30022          4.03316002
    9        2.41000          9.30825676

 PAW TEST:
 ==== Compensation charge inside spheres ============
 The following values must be close to each other ...
 Compensation charge over spherical meshes =     -0.545229013068345
 Compensation charge over fine fft grid    =     -0.545234146613606

 ==== Results concerning PAW augmentation regions ====

 Total pseudopotential strength Dij (hartree):
 Atom #  1
   0.44488  -0.14729   0.00000   0.00000   0.00000  -0.00000   0.00000   0.00000   0.00000   0.00000   0.00000  -0.00000 ...
  -0.14729   0.04442  -0.00000   0.00000   0.00000   0.00000   0.00000   0.00000   0.00000   0.00000  -0.00000   0.00000 ...
   0.00000  -0.00000  -0.09413   0.00000   0.00000  -0.16625   0.00000   0.00000   0.00000   0.00000  -0.00000  -0.00000 ...
   0.00000   0.00000   0.00000  -0.09413  -0.00000   0.00000  -0.16625   0.00000  -0.00000   0.00000   0.00000   0.00000 ...
   0.00000   0.00000   0.00000  -0.00000  -0.09413   0.00000   0.00000  -0.16625   0.00000  -0.00000   0.00000   0.00000 ...
  -0.00000   0.00000  -0.16625   0.00000   0.00000   0.40544   0.00000   0.00000   0.00000   0.00000   0.00000   0.00000 ...
   0.00000   0.00000   0.00000  -0.16625   0.00000   0.00000   0.40544  -0.00001   0.00000  -0.00000   0.00000   0.00000 ...
   0.00000   0.00000   0.00000   0.00000  -0.16625   0.00000  -0.00001   0.40544  -0.00000   0.00000   0.00000   0.00000 ...
   0.00000   0.00000   0.00000  -0.00000   0.00000   0.00000   0.00000  -0.00000   0.00515  -0.00000   0.00000   0.00000 ...
   0.00000   0.00000   0.00000   0.00000  -0.00000   0.00000  -0.00000   0.00000  -0.00000   0.00515   0.00000   0.00000 ...
   0.00000  -0.00000  -0.00000   0.00000   0.00000   0.00000   0.00000   0.00000   0.00000   0.00000   0.00515  -0.00000 ...
  -0.00000   0.00000  -0.00000   0.00000   0.00000   0.00000   0.00000   0.00000   0.00000   0.00000  -0.00000   0.00515 ...
   ...  only 12  components have been written...
 Atom #  9
  -3.52681   0.43123  -0.00013   0.00000   0.00000   0.00003   0.00000   0.00000   0.00000   0.00000  -0.00004   0.00000 ...
   0.43123   0.00228   0.00003   0.00000   0.00000  -0.00001   0.00000   0.00000   0.00000   0.00000   0.00001   0.00000 ...
  -0.00013   0.00003  -1.46957   0.00000   0.00000   0.12612   0.00000   0.00000   0.00000   0.00000   0.00002   0.00000 ...
   0.00000   0.00000   0.00000  -1.46985   0.00000   0.00000   0.12616   0.00000   0.00000  -0.00004   0.00000   0.00000 ...
   0.00000   0.00000   0.00000   0.00000  -1.46985   0.00000   0.00000   0.12616  -0.00004   0.00000   0.00000   0.00000 ...
   0.00003  -0.00001   0.12612   0.00000   0.00000   0.01295   0.00000   0.00000   0.00000   0.00000  -0.00000   0.00000 ...
   0.00000   0.00000   0.00000   0.12616   0.00000   0.00000   0.01294   0.00000   0.00000   0.00001   0.00000   0.00000 ...
   0.00000   0.00000   0.00000   0.00000   0.12616   0.00000   0.00000   0.01294   0.00001   0.00000   0.00000   0.00000 ...
   0.00000   0.00000   0.00000   0.00000  -0.00004   0.00000   0.00000   0.00001  -0.39662   0.00000   0.00000   0.00000 ...
   0.00000   0.00000   0.00000  -0.00004   0.00000   0.00000   0.00001   0.00000   0.00000  -0.39662   0.00000   0.00000 ...
  -0.00004   0.00001   0.00002   0.00000   0.00000  -0.00000   0.00000   0.00000   0.00000   0.00000  -0.39598   0.00000 ...
   0.00000   0.00000   0.00000   0.00000   0.00000   0.00000   0.00000   0.00000   0.00000   0.00000   0.00000  -0.39667 ...
   ...  only 12  components have been written...


 Augmentation waves occupancies Rhoij:
 Atom #  1
   1.99787  -0.01425   0.00001   0.00000   0.00000   0.00000   0.00000   0.00000   0.00000   0.00000   0.00037  -0.00217 ...
  -0.01425   0.18160   0.00015   0.00000   0.00000  -0.00001   0.00000   0.00000   0.00000   0.00000  -0.00539   0.01255 ...
   0.00001   0.00015   2.00769   0.00000   0.00000  -0.00501   0.00000   0.00000   0.00000   0.00000  -0.00010  -0.00133 ...
   0.00000   0.00000   0.00000   2.00698   0.00120   0.00000  -0.00486  -0.00021  -0.00143  -0.00006   0.00000   0.00000 ...
   0.00000   0.00000   0.00000   0.00120   2.00698   0.00000  -0.00021  -0.00486  -0.00006  -0.00143   0.00000   0.00000 ...
   0.00000  -0.00001  -0.00501   0.00000   0.00000   0.00014   0.00000   0.00000   0.00000   0.00000   0.00001   0.00005 ...
   0.00000   0.00000   0.00000  -0.00486  -0.00021   0.00000   0.00013   0.00001   0.00005   0.00000   0.00000   0.00000 ...
   0.00000   0.00000   0.00000  -0.00021  -0.00486   0.00000   0.00001   0.00013   0.00000   0.00005   0.00000   0.00000 ...
   0.00000   0.00000   0.00000  -0.00143  -0.00006   0.00000   0.00005   0.00000   0.07045   0.00015   0.00000   0.00000 ...
   0.00000   0.00000   0.00000  -0.00006  -0.00143   0.00000   0.00000   0.00005   0.00015   0.07045   0.00000   0.00000 ...
   0.00037  -0.00539  -0.00010   0.00000   0.00000   0.00001   0.00000   0.00000   0.00000   0.00000   0.04539   0.00546 ...
  -0.00217   0.01255  -0.00133   0.00000   0.00000   0.00005   0.00000   0.00000   0.00000   0.00000   0.00546   0.05009 ...
   ...  only 12  components have been written...
 Atom #  9
   1.99797  -0.01988  -0.00009   0.00000   0.00000  -0.00033   0.00000   0.00000   0.00000   0.00000  -0.00015   0.00000 ...
  -0.01988   1.01294   0.00063   0.00000   0.00000  -0.01868   0.00000   0.00000   0.00000   0.00000  -0.01145   0.00000 ...
  -0.00009   0.00063   1.99307   0.00000   0.00000  -0.05936   0.00000   0.00000   0.00000   0.00000   0.00056   0.00000 ...
   0.00000   0.00000   0.00000   1.99324   0.00000   0.00000  -0.05671   0.00000   0.00000  -0.00155   0.00000   0.00000 ...
   0.00000   0.00000   0.00000   0.00000   1.99324   0.00000   0.00000  -0.05671  -0.00155   0.00000   0.00000   0.00000 ...
  -0.00033  -0.01868  -0.05936   0.00000   0.00000   1.30804   0.00000   0.00000   0.00000   0.00000   0.04275   0.00000 ...
   0.00000   0.00000   0.00000  -0.05671   0.00000   0.00000   1.20888   0.00000   0.00000   0.03058   0.00000   0.00000 ...
   0.00000   0.00000   0.00000   0.00000  -0.05671   0.00000   0.00000   1.20888   0.03058   0.00000   0.00000   0.00000 ...
   0.00000   0.00000   0.00000   0.00000  -0.00155   0.00000   0.00000   0.03058   0.48463   0.00000   0.00000   0.00000 ...
   0.00000   0.00000   0.00000  -0.00155   0.00000   0.00000   0.03058   0.00000   0.00000   0.48463   0.00000   0.00000 ...
  -0.00015  -0.01145   0.00056   0.00000   0.00000   0.04275   0.00000   0.00000   0.00000   0.00000   1.40372   0.00000 ...
   0.00000   0.00000   0.00000   0.00000   0.00000   0.00000   0.00000   0.00000   0.00000   0.00000   0.00000   0.46376 ...
   ...  only 12  components have been written...


================================================================================

 ----iterations are completed or convergence reached----

 Mean square residual over all n,k,spin=   15.275E-07; max=  47.549E-05
 reduced coordinates (array xred) for    9 atoms
       0.248995900270      0.251004099730      0.248995900270
       0.748995900270      0.751004099730      0.748995900270
       0.759718186270      0.240281813730      0.759718186270
       0.251128182030      0.251979690790      0.748020309210
       0.748020309210      0.748871817970      0.251128182030
       0.250222116090      0.749777883910      0.250222116090
       0.251128182030      0.748871817970      0.748020309210
       0.748020309210      0.251979690790      0.251128182030
      -0.006225885389      0.006225885389     -0.006225885389
 rms dE/dt=  1.1725E-04; max dE/dt=  2.3699E-04; dE/dt below (all hartree)
    1      -0.000089501350      0.000000000000     -0.000089501350
    2      -0.000089501350      0.000000000000     -0.000089501350
    3      -0.000114951119      0.000000000000     -0.000114951119
    4      -0.000141775636     -0.000189380459      0.000047604823
    5       0.000236985282      0.000189380459      0.000047604823
    6       0.000044175765      0.000000000000      0.000044175765
    7       0.000047604823      0.000189380459      0.000236985282
    8       0.000047604823     -0.000189380459     -0.000141775636
    9       0.000043241263      0.000000000000      0.000043241263

 cartesian coordinates (angstrom) at end:
    1      2.81490412610576     2.74942870518483     2.81490412610576
    2      8.44471237831661     8.27046078282841     8.44471237831661
    3      5.62980825212450     8.38885695273175     5.62980825212450
    4      5.62980825212839     5.51633087046523     2.83240085415443
    5      5.62980825229361     5.51633087046523     8.42721565026756
    6      5.62980825229391     2.76296865893750     5.62980825229391
    7      8.42721565026756     5.51633087046523     5.62980825229361
    8      2.83240085415443     5.51633087046523     5.62980825212839
    9      0.00000000000207    -0.06874662588991     0.00000000000207

 cartesian forces (hartree/bohr) at end:
    1     -0.00000000000000     0.00000840683509     0.00000000000000
    2     -0.00000000000000     0.00000840683509     0.00000000000000
    3     -0.00000000000000     0.00001084613222     0.00000000000000
    4     -0.00000000000000    -0.00000473445091     0.00001780093001
    5      0.00000000000000    -0.00000473445091    -0.00001780093001
    6     -0.00000000000000    -0.00000440578422    -0.00000000000000
    7     -0.00001780093001    -0.00000473445091     0.00000000000000
    8      0.00001780093001    -0.00000473445091    -0.00000000000000
    9     -0.00000000000000    -0.00000431621455    -0.00000000000000
 frms,max,avg= 7.8272589E-06 1.7800930E-05   0.000E+00  1.716E-07  0.000E+00 h/b

 cartesian forces (eV/Angstrom) at end:
    1     -0.00000000000000     0.00043229680506     0.00000000000000
    2     -0.00000000000000     0.00043229680506     0.00000000000000
    3     -0.00000000000000     0.00055773049628     0.00000000000000
    4     -0.00000000000003    -0.00024345523365     0.00091536054785
    5      0.00000000000003    -0.00024345523370    -0.00091536054785
    6     -0.00000000000000    -0.00022655451443    -0.00000000000000
    7     -0.00091536054785    -0.00024345523370     0.00000000000003
    8      0.00091536054785    -0.00024345523365    -0.00000000000003
    9     -0.00000000000000    -0.00022194865727    -0.00000000000000
 frms,max,avg= 4.0249380E-04 9.1536055E-04   0.000E+00  8.826E-06  0.000E+00 e/A
 length scales= 14.900887330000 15.045529276000 14.900887330000 bohr
              =  7.885209962803  7.961751184033  7.885209962803 angstroms
 prteigrs : about to open file Cs2TiI6o_DS1_EIG
 Fermi (or HOMO) energy (hartree) =  -0.10679   Average Vxc (hartree)=  -0.31124
 Eigenvalues (hartree) for nkpt= 163  k points:
 kpt#   1, nband= 42, wtk=  0.00058, kpt=  0.0000  0.0000  0.0000 (reduced coord)
  -2.40862   -1.25340   -1.25318   -1.25318   -0.85954   -0.85925   -0.62717   -0.55051
  -0.52960   -0.52960   -0.52387   -0.52282   -0.38183   -0.38062   -0.38062   -0.37762
  -0.37750   -0.37750   -0.27384   -0.21334   -0.21160   -0.21160   -0.20591   -0.20591
  -0.20115   -0.19033   -0.17901   -0.15324   -0.15324   -0.14324   -0.12215   -0.12215
  -0.12004   -0.10770   -0.10679   -0.10679   -0.03554   -0.03080   -0.03080    0.03544
   0.04502    0.05478
 prteigrs : prtvol=0 or 1, do not print more k-points.


--- !EnergyTerms
iteration_state     : {dtset: 1, }
comment             : Components of total free energy in Hartree
kinetic             :  3.78229673383076E+01
hartree             :  3.04170292851059E+01
xc                  : -6.06279313603914E+01
Ewald energy        : -1.24065918728503E+02
psp_core            :  1.95855557443818E+01
local_psp           : -5.96001632345705E+01
spherical_terms     : -6.82274556852229E+00
total_energy        : -1.63291206524192E+02
total_energy_eV     : -4.44337970169233E+03
...


--- !EnergyTermsDC
iteration_state     : {dtset: 1, }
comment             : '"Double-counting" decomposition of free energy'
band_energy         : -3.31702863108960E+01
Ewald energy        : -1.24065918728503E+02
psp_core            :  1.95855557443818E+01
xc_dc               : -5.35215600158352E+01
spherical_terms     :  2.78810678495524E+01
total_energy_dc     : -1.63291141461300E+02
total_energy_dc_eV  : -4.44337793124100E+03
...


 Cartesian components of stress tensor (hartree/bohr^3)
  sigma(1 1)= -8.10520936E-05  sigma(3 2)=  2.47277031E-13
  sigma(2 2)= -8.09575085E-05  sigma(3 1)= -4.85001483E-13
  sigma(3 3)= -8.10520936E-05  sigma(2 1)=  2.47278186E-13

-Cartesian components of stress tensor (GPa)         [Pressure=  2.3837E+00 GPa]
- sigma(1 1)= -2.38463452E+00  sigma(3 2)=  7.27514019E-09
- sigma(2 2)= -2.38185173E+00  sigma(3 1)= -1.42692339E-08
- sigma(3 3)= -2.38463452E+00  sigma(2 1)=  7.27517418E-09

================================================================================
== DATASET  2 ==================================================================
-   mpi_nproc: 6, omp_nthreads: -1 (-1 if OMP is not activated)


--- !DatasetInfo
iteration_state: {dtset: 2, }
dimensions: {natom: 9, nkpt: 163, mband: 42, nsppol: 1, nspinor: 1, nspden: 1, mpw: 7243, }
cutoff_energies: {ecut:  16.0, pawecutdg:  40.0, }
electrons: {nelect:   7.20000000E+01, charge:   0.00000000E+00, occopt:   1.00000000E+00, tsmear:   1.00000000E-02, }
meta: {optdriver: 0, ionmov: 0, optcell: 0, iscf: 17, paral_kgb: 0, }
...

 Real(R)+Recip(G) space primitive vectors, cartesian coordinates (Bohr,Bohr^-1):
 R(1)=  0.0000000 10.4227446 10.6281720  G(1)= -0.0470448  0.0479720  0.0470448
 R(2)= 10.6281720  0.0000000 10.6281720  G(2)=  0.0470448 -0.0479720  0.0470448
 R(3)= 10.6281720 10.4227446  0.0000000  G(3)=  0.0470448  0.0479720 -0.0470448
 Unit cell volume ucvol=  2.3546656E+03 bohr^3
 Angles (23,13,12)=  5.96782552E+01  6.06434895E+01  5.96782552E+01 degrees

 Coarse grid specifications (used for wave-functions):

 getcut: wavevector=  0.0000  0.0000  0.0000  ngfft=  60  60  60
         ecut(hartree)=     16.000   => boxcut(ratio)=   2.21693

 getcut : COMMENT -
  Note that boxcut > 2.2 ; recall that boxcut=Gcut(box)/Gcut(sphere) = 2
  is sufficient for exact treatment of convolution.
  Such a large boxcut is a waste : you could raise ecut
  e.g. ecut=   19.659167 Hartrees makes boxcut=2


 Fine grid specifications (used for densities):

 getcut: wavevector=  0.0000  0.0000  0.0000  ngfft=  90  90  90
         ecut(hartree)=     40.000   => boxcut(ratio)=   2.10344

--- Pseudopotential description ------------------------------------------------
- pspini: atom type   1  psp file is ../../../Psps_for_tests/ATOMICDATA/Cs.GGA_PBE-JTH.xml
- pspatm: opening atomic psp file    ../../../Psps_for_tests/ATOMICDATA/Cs.GGA_PBE-JTH.xml
- pspatm : Reading pseudopotential header in XML form from ../../../Psps_for_tests/ATOMICDATA/Cs.GGA_PBE-JTH.xml
 Pseudopotential format is: paw10
 basis_size (lnmax)=  6 (lmn_size= 18), orbitals=   0   0   1   1   2   2
 Spheres core radius: rc_sph= 2.20660278
 1 radial meshes are used:
  - mesh 1: r(i)=AA*[exp(BB*(i-1))-1], size=1500 , AA= 0.15922E-03 BB= 0.87573E-02
 Shapefunction is SIN type: shapef(r)=[sin(pi*r/rshp)/(pi*r/rshp)]**2
 Radius for shape functions =  2.00394208
 mmax= 1500
 Radial grid used for partial waves is grid 1
 Radial grid used for projectors is grid 1
 Radial grid used for (t)core density is grid 1
 Radial grid used for Vloc is grid 1
 Radial grid used for pseudo valence density is grid 1
 Mesh size for Vloc has been set to 1341 to avoid numerical noise.
 Compensation charge density is not taken into account in XC energy/potential
 pspatm: atomic psp has been read  and splines computed

- pspini: atom type   2  psp file is ../../../Psps_for_tests/ATOMICDATA/I.GGA_PBE-JTH.xml
- pspatm: opening atomic psp file    ../../../Psps_for_tests/ATOMICDATA/I.GGA_PBE-JTH.xml
- pspatm : Reading pseudopotential header in XML form from ../../../Psps_for_tests/ATOMICDATA/I.GGA_PBE-JTH.xml
 Pseudopotential format is: paw10
 basis_size (lnmax)=  4 (lmn_size=  8), orbitals=   0   0   1   1
 Spheres core radius: rc_sph= 2.30022271
 1 radial meshes are used:
  - mesh 1: r(i)=AA*[exp(BB*(i-1))-1], size=2000 , AA= 0.12610E-03 BB= 0.66836E-02
 Shapefunction is SIN type: shapef(r)=[sin(pi*r/rshp)/(pi*r/rshp)]**2
 Radius for shape functions =  2.10879093
 mmax= 2000
 Radial grid used for partial waves is grid 1
 Radial grid used for projectors is grid 1
 Radial grid used for (t)core density is grid 1
 Radial grid used for Vloc is grid 1
 Radial grid used for pseudo valence density is grid 1
 Mesh size for Vloc has been set to 1792 to avoid numerical noise.
 Compensation charge density is not taken into account in XC energy/potential
 pspatm: atomic psp has been read  and splines computed

- pspini: atom type   3  psp file is ../../../Psps_for_tests/ATOMICDATA/Hf.GGA_PBE-JTH.xml
- pspatm: opening atomic psp file    ../../../Psps_for_tests/ATOMICDATA/Hf.GGA_PBE-JTH.xml
- pspatm : Reading pseudopotential header in XML form from ../../../Psps_for_tests/ATOMICDATA/Hf.GGA_PBE-JTH.xml
 Pseudopotential format is: paw10
 basis_size (lnmax)=  6 (lmn_size= 18), orbitals=   0   0   1   1   2   2
 Spheres core radius: rc_sph= 2.41000000
 1 radial meshes are used:
  - mesh 1: r(i)=AA*[exp(BB*(i-1))-1], size= 972 , AA= 0.19796E-03 BB= 0.14253E-01
 Shapefunction is SIN type: shapef(r)=[sin(pi*r/rshp)/(pi*r/rshp)]**2
 Radius for shape functions =  2.41000000
 mmax=  972
 Radial grid used for partial waves is grid 1
 Radial grid used for projectors is grid 1
 Radial grid used for (t)core density is grid 1
 Radial grid used for Vloc is grid 1
 Radial grid used for pseudo valence density is grid 1
 Mesh size for Vloc has been set to  809 to avoid numerical noise.
 Compensation charge density is not taken into account in XC energy/potential
 pspatm: atomic psp has been read  and splines computed

- pspini: atom type   4  psp file is ../../../Psps_for_tests/ATOMICDATA/Br.GGA_PBE-JTH.xml
- pspatm: opening atomic psp file    ../../../Psps_for_tests/ATOMICDATA/Br.GGA_PBE-JTH.xml
- pspatm : Reading pseudopotential header in XML form from ../../../Psps_for_tests/ATOMICDATA/Br.GGA_PBE-JTH.xml
 Pseudopotential format is: paw10
 basis_size (lnmax)=  4 (lmn_size=  8), orbitals=   0   0   1   1
 Spheres core radius: rc_sph= 2.20000000
 1 radial meshes are used:
  - mesh 1: r(i)=AA*[exp(BB*(i-1))-1], size= 927 , AA= 0.40483E-03 BB= 0.14169E-01
 Shapefunction is BESSEL type: shapef(r,l)=aa(1,l)*jl(q(1,l)*r)+aa(2,l)*jl(q(2,l)*r)
 Radius for shape functions =  2.02066386
 mmax=  927
 Radial grid used for partial waves is grid 1
 Radial grid used for projectors is grid 1
 Radial grid used for (t)core density is grid 1
 Radial grid used for Vloc is grid 1
 Radial grid used for pseudo valence density is grid 1
 Mesh size for Vloc has been set to  763 to avoid numerical noise.
 Compensation charge density is not taken into account in XC energy/potential
 pspatm: atomic psp has been read  and splines computed

--------------------------------------------------------------------------------

_setup2: Arith. and geom. avg. npw (full set) are    7198.095    7198.086

================================================================================

--- !BeginCycle
iteration_state: {dtset: 2, }
solver: {iscf: 17, nstep: 2500, nline: 4, wfoptalg: 10, }
tolerances: {toldfe: 1.00E-08, }
...

     iter   Etot(hartree)      deltaE(h)  residm     nres2
 ETOT  1  -161.74258781029    -1.617E+02 8.680E+00 5.025E+00
 ETOT  2  -163.29936552940    -1.557E+00 2.600E-02 2.178E+00
 ETOT  3  -163.28956123740     9.804E-03 2.886E-02 3.879E-01
 ETOT  4  -163.29057836449    -1.017E-03 5.031E-03 9.720E-02
 ETOT  5  -163.29044390208     1.345E-04 3.961E-03 5.819E-03
 ETOT  6  -163.29051407070    -7.017E-05 3.211E-03 8.834E-04
 ETOT  7  -163.29052380308    -9.732E-06 2.680E-03 2.264E-04
 ETOT  8  -163.29052665520    -2.852E-06 1.746E-03 1.486E-05
 ETOT  9  -163.29052676502    -1.098E-07 1.027E-03 3.877E-06
 ETOT 10  -163.29052680417    -3.916E-08 1.280E-03 5.713E-07
 ETOT 11  -163.29052681615    -1.198E-08 1.617E-03 4.577E-07
 ETOT 12  -163.29052681540     7.496E-10 1.339E-03 3.349E-08
 ETOT 13  -163.29052681570    -2.962E-10 1.151E-03 4.356E-08

 At SCF step   13, etot is converged : 
  for the second time, diff in etot=  2.962E-10 < toldfe=  1.000E-08

 Cartesian components of stress tensor (hartree/bohr^3)
  sigma(1 1)= -8.32982714E-05  sigma(3 2)=  2.68006949E-13
  sigma(2 2)= -8.32480381E-05  sigma(3 1)= -5.25649906E-13
  sigma(3 3)= -8.32982714E-05  sigma(2 1)=  2.68004026E-13


--- !ResultsGS
iteration_state: {dtset: 2, }
comment   : Summary of ground state results
lattice_vectors:
- [  0.0000000,  10.4227446,  10.6281720, ]
- [ 10.6281720,   0.0000000,  10.6281720, ]
- [ 10.6281720,  10.4227446,   0.0000000, ]
lattice_lengths: [  14.88595,   15.03050,   14.88595, ]
lattice_angles: [ 59.678,  60.643,  59.678, ] # degrees, (23, 13, 12)
lattice_volume:   2.3546656E+03
convergence: {deltae: -2.962E-10, res2:  4.356E-08, residm:  1.151E-03, diffor: null, }
etotal    :  -1.63290527E+02
entropy   :   0.00000000E+00
fermie    :  -1.06328705E-01
cartesian_stress_tensor: # hartree/bohr^3
- [ -8.32982714E-05,   2.68004026E-13,  -5.25649906E-13, ]
- [  2.68004026E-13,  -8.32480381E-05,   2.68006949E-13, ]
- [ -5.25649906E-13,   2.68006949E-13,  -8.32982714E-05, ]
pressure_GPa:   2.4502E+00
xred      :
- [  2.4902E-01,   2.5098E-01,   2.4902E-01, Cs]
- [  7.4902E-01,   7.5098E-01,   7.4902E-01, Cs]
- [  7.5948E-01,   2.4052E-01,   7.5948E-01, Br]
- [  2.5132E-01,   2.5212E-01,   7.4788E-01,  I]
- [  7.4788E-01,   7.4868E-01,   2.5132E-01,  I]
- [  2.5035E-01,   7.4965E-01,   2.5035E-01,  I]
- [  2.5132E-01,   7.4868E-01,   7.4788E-01,  I]
- [  7.4788E-01,   2.5212E-01,   2.5132E-01,  I]
- [ -6.2703E-03,   6.2703E-03,  -6.2703E-03, Hf]
cartesian_forces: # hartree/bohr
- [  1.26401576E-22,   9.54266544E-06,  -1.35737871E-22, ]
- [  1.26401576E-22,   9.54266544E-06,  -1.35737871E-22, ]
- [ -2.69378505E-22,   1.06133995E-05,   2.60042209E-22, ]
- [ -5.31914556E-16,  -5.29836476E-06,   1.67158950E-05, ]
- [  5.31916265E-16,  -5.29836476E-06,  -1.67158950E-05, ]
- [  2.04377818E-22,   3.41543824E-06,  -2.13714113E-22, ]
- [ -1.67158950E-05,  -5.29836476E-06,   5.31915673E-16, ]
- [  1.67158950E-05,  -5.29836476E-06,  -5.31915707E-16, ]
- [ -8.08030182E-22,  -1.19207096E-05,   7.98693886E-22, ]
force_length_stats: {min:   3.41543824E-06, max:   1.75355015E-05, mean:   1.27974316E-05, }
...

 Integrated electronic density in atomic spheres:
 ------------------------------------------------
 Atom  Sphere_radius  Integrated_density
    1        2.20660          5.36869709
    2        2.20660          5.36869709
    3        2.20000          4.94424269
    4        2.30022          4.03401546
    5        2.30022          4.03401546
    6        2.30022          4.03590984
    7        2.30022          4.03401546
    8        2.30022          4.03401546
    9        2.41000          9.30651196

 PAW TEST:
 ==== Compensation charge inside spheres ============
 The following values must be close to each other ...
 Compensation charge over spherical meshes =     -0.545473307305009
 Compensation charge over fine fft grid    =     -0.545479716194052

 ==== Results concerning PAW augmentation regions ====

 Total pseudopotential strength Dij (hartree):
 Atom #  1
[...]
                       8.3478905754E+00  5.4714137998E+00  5.5862834121E+00
                       2.8246762488E+00  5.4714137998E+00  5.5862834120E+00
                       1.4659945903E-12 -7.2357767981E-02  1.4659945903E-12
           xangst10    2.7905175279E+00  2.7251828027E+00  2.7905175279E+00
                       8.3715525837E+00  8.1926614464E+00  8.3715525837E+00
                       5.5810350558E+00  8.2818137498E+00  5.5810350558E+00
                       5.5810350558E+00  5.4654951226E+00  2.8236727957E+00
                       5.5810350558E+00  5.4654951226E+00  8.3383973159E+00
                       5.5810350558E+00  2.7508017039E+00  5.5810350558E+00
                       8.3383973159E+00  5.4654951226E+00  5.5810350558E+00
                       2.8236727957E+00  5.4654951226E+00  5.5810350558E+00
                       9.2983452334E-13 -7.2576051280E-02  9.2983452334E-13
            xcart1     5.3193978887E+00  5.1956672747E+00  5.3193978887E+00
                       1.5958193666E+01  1.5628905872E+01  1.5958193666E+01
                       1.0638795777E+01  1.5852642209E+01  1.0638795777E+01
                       1.0638795777E+01  1.0424354604E+01  5.3524619129E+00
                       1.0638795777E+01  1.0424354604E+01  1.5925129642E+01
                       1.0638795777E+01  5.2212540791E+00  1.0638795777E+01
                       1.5925129642E+01  1.0424354604E+01  1.0638795777E+01
                       5.3524619129E+00  1.0424354604E+01  1.0638795777E+01
                       3.9120118641E-12 -1.2991229549E-01  3.9120118641E-12
            xcart2     5.3140860035E+00  5.1909684349E+00  5.3140860035E+00
                       1.5942258011E+01  1.5613712993E+01  1.5942258011E+01
                       1.0628172007E+01  1.5831646576E+01  1.0628172007E+01
                       1.0628172007E+01  1.0414409534E+01  5.3507196167E+00
                       1.0628172007E+01  1.0414409534E+01  1.5905624397E+01
                       1.0628172007E+01  5.2187655392E+00  1.0628172007E+01
                       1.5905624397E+01  1.0414409534E+01  1.0628172007E+01
                       5.3507196167E+00  1.0414409534E+01  1.0628172007E+01
                       4.2412373929E-12 -1.3070850892E-01  4.2412373929E-12
            xcart3     5.3090302805E+00  5.1869548494E+00  5.3090302805E+00
                       1.5927090842E+01  1.5598200605E+01  1.5927090842E+01
                       1.0618060561E+01  1.5807827782E+01  1.0618060561E+01
                       1.0618060561E+01  1.0403420306E+01  5.3488787528E+00
                       1.0618060561E+01  1.0403420306E+01  1.5887242369E+01
                       1.0618060561E+01  5.2157847731E+00  1.0618060561E+01
                       1.5887242369E+01  1.0403420306E+01  1.0618060561E+01
                       5.3488787528E+00  1.0403420306E+01  1.0618060561E+01
                       5.1324725736E-12 -1.3241655812E-01  5.1324725736E-12
            xcart4     5.3042479584E+00  5.1807517824E+00  5.3042479584E+00
                       1.5912743875E+01  1.5579426839E+01  1.5912743875E+01
                       1.0608495917E+01  1.5783275736E+01  1.0608495917E+01
                       1.0608495917E+01  1.0391333598E+01  5.3471897648E+00
                       1.0608495917E+01  1.0391333598E+01  1.5869802069E+01
                       1.0608495917E+01  5.2133513274E+00  1.0608495917E+01
                       1.5869802069E+01  1.0391333598E+01  1.0608495917E+01
                       5.3471897648E+00  1.0391333598E+01  1.0608495917E+01
                       2.2780576316E-12 -1.3267307425E-01  2.2780576316E-12
            xcart5     5.2990831561E+00  5.1755498578E+00  5.2990831561E+00
                       1.5897249468E+01  1.5563154232E+01  1.5897249468E+01
                       1.0598166312E+01  1.5761255356E+01  1.0598166312E+01
                       1.0598166312E+01  1.0380817615E+01  5.3453841699E+00
                       1.0598166312E+01  1.0380817615E+01  1.5850948454E+01
                       1.0598166312E+01  5.2109505354E+00  1.0598166312E+01
                       1.5850948454E+01  1.0380817615E+01  1.0598166312E+01
                       5.3453841699E+00  1.0380817615E+01  1.0598166312E+01
                       1.1947105523E-12 -1.3327896671E-01  1.1947105523E-12
            xcart6     5.2938115755E+00  5.1698836853E+00  5.2938115755E+00
                       1.5881434727E+01  1.5546836037E+01  1.5881434727E+01
                       1.0587623151E+01  1.5740474707E+01  1.0587623151E+01
                       1.0587623151E+01  1.0370805855E+01  5.3435145687E+00
                       1.0587623151E+01  1.0370805855E+01  1.5831731733E+01
                       1.0587623151E+01  5.2088173368E+00  1.0587623151E+01
                       1.5831731733E+01  1.0370805855E+01  1.0587623151E+01
                       5.3435145687E+00  1.0370805855E+01  1.0587623151E+01
                       4.6868822495E-12 -1.3354995994E-01  4.6868822495E-12
            xcart7     5.2885986767E+00  5.1655199312E+00  5.2885986767E+00
                       1.5865796030E+01  1.5531590222E+01  1.5865796030E+01
                       1.0577197353E+01  1.5718420401E+01  1.0577197353E+01
                       1.0577197353E+01  1.0360477345E+01  5.3416501545E+00
                       1.0577197353E+01  1.0360477345E+01  1.5812744552E+01
                       1.0577197353E+01  5.2059575231E+00  1.0577197353E+01
                       1.5812744552E+01  1.0360477345E+01  1.0577197353E+01
                       5.3416501545E+00  1.0360477345E+01  1.0577197353E+01
                       9.9158915202E-13 -1.3476879141E-01  9.9158915202E-13
            xcart8     5.2834484951E+00  5.1598481171E+00  5.2834484951E+00
                       1.5850345485E+01  1.5514790532E+01  1.5850345485E+01
                       1.0566896990E+01  1.5696545990E+01  1.0566896990E+01
                       1.0566896990E+01  1.0350001374E+01  5.3397709810E+00
                       1.0566896990E+01  1.0350001374E+01  1.5794023000E+01
                       1.0566896990E+01  5.2037049051E+00  1.0566896990E+01
                       1.5794023000E+01  1.0350001374E+01  1.0566896990E+01
                       5.3397709810E+00  1.0350001374E+01  1.0566896990E+01
                       2.1720519054E-12 -1.3528944800E-01  2.1720519054E-12
            xcart9     5.2782728748E+00  5.1559478581E+00  5.2782728748E+00
                       1.5834818624E+01  1.5499862172E+01  1.5834818624E+01
                       1.0556545749E+01  1.5673778946E+01  1.0556545749E+01
                       1.0556545749E+01  1.0339473641E+01  5.3378645242E+00
                       1.0556545750E+01  1.0339473641E+01  1.5775226975E+01
                       1.0556545750E+01  5.2006335374E+00  1.0556545750E+01
                       1.5775226975E+01  1.0339473641E+01  1.0556545750E+01
                       5.3378645242E+00  1.0339473641E+01  1.0556545749E+01
                       2.7703282879E-12 -1.3673636507E-01  2.7703282879E-12
            xcart10    5.2733138968E+00  5.1498491591E+00  5.2733138968E+00
                       1.5819941690E+01  1.5481886433E+01  1.5819941690E+01
                       1.0546627793E+01  1.5650359871E+01  1.0546627793E+01
                       1.0546627793E+01  1.0328288962E+01  5.3359682727E+00
                       1.0546627794E+01  1.0328288962E+01  1.5757287314E+01
                       1.0546627794E+01  5.1982618663E+00  1.0546627794E+01
                       1.5757287314E+01  1.0328288962E+01  1.0546627794E+01
                       5.3359682727E+00  1.0328288962E+01  1.0546627793E+01
                       1.7571325980E-12 -1.3714886073E-01  1.7571325980E-12
             xred1     2.4899590027E-01  2.5100409973E-01  2.4899590027E-01
                       7.4899590027E-01  7.5100409973E-01  7.4899590027E-01
                       7.5971818627E-01  2.4028181373E-01  7.5971818627E-01
                       2.5112818203E-01  2.5197969079E-01  7.4802030921E-01
                       7.4802030921E-01  7.4887181797E-01  2.5112818203E-01
                       2.5022211609E-01  7.4977788391E-01  2.5022211609E-01
                       2.5112818203E-01  7.4887181797E-01  7.4802030921E-01
                       7.4802030921E-01  2.5197969079E-01  2.5112818203E-01
                      -6.2258853891E-03  6.2258853891E-03 -6.2258853891E-03
             xred2     2.4902118660E-01  2.5097881340E-01  2.4902118660E-01
                       7.4902118660E-01  7.5097881340E-01  7.4902118660E-01
                       7.5947589849E-01  2.4052410151E-01  7.5947589849E-01
                       2.5132357236E-01  2.5212326809E-01  7.4787673191E-01
                       7.4787673191E-01  7.4867642764E-01  2.5132357236E-01
                       2.5035466955E-01  7.4964533045E-01  2.5035466955E-01
                       2.5132357236E-01  7.4867642764E-01  7.4787673191E-01
                       7.4787673191E-01  2.5212326809E-01  2.5132357236E-01
                      -6.2703498195E-03  6.2703498195E-03 -6.2703498195E-03
             xred3     2.4910346808E-01  2.5089653192E-01  2.4910346808E-01
                       7.4910346808E-01  7.5089653192E-01  7.4910346808E-01
                       7.5917081169E-01  2.4082918831E-01  7.5917081169E-01
                       2.5150063063E-01  2.5225226493E-01  7.4774773507E-01
                       7.4774773507E-01  7.4849936937E-01  2.5150063063E-01
                       2.5048802495E-01  7.4951197505E-01  2.5048802495E-01
                       2.5150063063E-01  7.4849936937E-01  7.4774773507E-01
                       7.4774773507E-01  2.5225226493E-01  2.5150063063E-01
                      -6.3593042191E-03  6.3593042191E-03 -6.3593042191E-03
             xred4     2.4910634068E-01  2.5089365932E-01  2.4910634068E-01
                       7.4910634068E-01  7.5089365932E-01  7.4910634068E-01
                       7.5890801716E-01  2.4109198284E-01  7.5890801716E-01
                       2.5167093501E-01  2.5237693443E-01  7.4762306557E-01
                       7.4762306557E-01  7.4832906499E-01  2.5167093501E-01
                       2.5067382619E-01  7.4932617381E-01  2.5067382619E-01
                       2.5167093501E-01  7.4832906499E-01  7.4762306557E-01
                       7.4762306557E-01  2.5237693443E-01  2.5167093501E-01
                      -6.3793259011E-03  6.3793259011E-03 -6.3793259011E-03
             xred5     2.4912143702E-01  2.5087856298E-01  2.4912143702E-01
                       7.4912143702E-01  7.5087856298E-01  7.4912143702E-01
                       7.5865689468E-01  2.4134310532E-01  7.5865689468E-01
                       2.5185771210E-01  2.5251106382E-01  7.4748893618E-01
                       7.4748893618E-01  7.4814228790E-01  2.5185771210E-01
                       2.5082542363E-01  7.4917457637E-01  2.5082542363E-01
                       2.5185771210E-01  7.4814228790E-01  7.4748893618E-01
                       7.4748893618E-01  2.5251106382E-01  2.5185771210E-01
                      -6.4152889305E-03  6.4152889305E-03 -6.4152889305E-03
             xred6     2.4910414494E-01  2.5089585506E-01  2.4910414494E-01
                       7.4910414494E-01  7.5089585506E-01  7.4910414494E-01
                       7.5843437331E-01  2.4156562669E-01  7.5843437331E-01
                       2.5205106050E-01  2.5264338248E-01  7.4735661752E-01
                       7.4735661752E-01  7.4794893950E-01  2.5205106050E-01
                       2.5098011248E-01  7.4901988752E-01  2.5098011248E-01
                       2.5205106050E-01  7.4794893950E-01  7.4735661752E-01
                       7.4735661752E-01  2.5264338248E-01  2.5205106050E-01
                      -6.4349317320E-03  6.4349317320E-03 -6.4349317320E-03
             xred7     2.4915516615E-01  2.5084483385E-01  2.4915516615E-01
                       7.4915516615E-01  7.5084483385E-01  7.4915516615E-01
                       7.5816678647E-01  2.4183321353E-01  7.5816678647E-01
                       2.5223805129E-01  2.5277759473E-01  7.4722240527E-01
                       7.4722240527E-01  7.4776194871E-01  2.5223805129E-01
                       2.5110564453E-01  7.4889435547E-01  2.5110564453E-01
                       2.5223805129E-01  7.4776194871E-01  7.4722240527E-01
                       7.4722240527E-01  2.5277759473E-01  2.5223805129E-01
                      -6.5004764407E-03  6.5004764407E-03 -6.5004764407E-03
             xred8     2.4914904932E-01  2.5085095068E-01  2.4914904932E-01
                       7.4914904932E-01  7.5085095068E-01  7.4914904932E-01
                       7.5792531530E-01  2.4207468470E-01  7.5792531530E-01
                       2.5242646006E-01  2.5290362747E-01  7.4709637253E-01
                       7.4709637253E-01  7.4757353994E-01  2.5242646006E-01
                       2.5126672348E-01  7.4873327652E-01  2.5126672348E-01
                       2.5242646006E-01  7.4757353994E-01  7.4709637253E-01
                       7.4709637253E-01  2.5290362747E-01  2.5242646006E-01
                      -6.5326026246E-03  6.5326026246E-03 -6.5326026246E-03
             xred9     2.4922614890E-01  2.5077385110E-01  2.4922614890E-01
                       7.4922614890E-01  7.5077385110E-01  7.4922614890E-01
                       7.5763286846E-01  2.4236713154E-01  7.5763286846E-01
                       2.5260784610E-01  2.5303714904E-01  7.4696285096E-01
                       7.4696285096E-01  7.4739215390E-01  2.5260784610E-01
                       2.5138614742E-01  7.4861385258E-01  2.5138614742E-01
                       2.5260784610E-01  7.4739215390E-01  7.4696285096E-01
                       7.4696285096E-01  2.5303714904E-01  2.5260784610E-01
                      -6.6095078187E-03  6.6095078187E-03 -6.6095078187E-03
             xred10    2.4921750776E-01  2.5078249224E-01  2.4921750776E-01
                       7.4921750776E-01  7.5078249224E-01  7.4921750776E-01
                       7.5737047087E-01  2.4262952913E-01  7.5737047087E-01
                       2.5278895847E-01  2.5315174383E-01  7.4684825617E-01
                       7.4684825617E-01  7.4721104153E-01  2.5278895847E-01
                       2.5156035196E-01  7.4843964804E-01  2.5156035196E-01
                       2.5278895847E-01  7.4721104153E-01  7.4684825617E-01
                       7.4684825617E-01  2.5315174383E-01  2.5278895847E-01
                      -6.6370676512E-03  6.6370676512E-03 -6.6370676512E-03
            znucl       55.00000   53.00000   72.00000   35.00000

================================================================================


- Timing analysis has been suppressed with timopt=0



================================================================================

 Suggested references for the acknowledgment of ABINIT usage.

 The users of ABINIT have little formal obligations with respect to the ABINIT group
 (those specified in the GNU General Public License, http://www.gnu.org/copyleft/gpl.txt).
 However, it is common practice in the scientific literature,
 to acknowledge the efforts of people that have made the research possible.
 In this spirit, please find below suggested citations of work written by ABINIT developers,
 corresponding to implementations inside of ABINIT that you have used in the present run.
 Note also that it will be of great value to readers of publications presenting these results,
 to read papers enabling them to understand the theoretical formalism and details
 of the ABINIT implementation.
 For information on why they are suggested, see also https://docs.abinit.org/theory/acknowledgments.
-
- [1] Implementation of the Projector Augmented-Wave Method in the ABINIT code.
- M. Torrent, F. Jollet, F. Bottin, G. Zerah, and X. Gonze Comput. Mat. Science 42, 337, (2008).
- Comment: PAW calculations. Strong suggestion to cite this paper.
- DOI and bibtex: see https://docs.abinit.org/theory/bibliography/#torrent2008
-
- [2] Libxc: A library of exchange and correlation functionals for density functional theory.
- M.A.L. Marques, M.J.T. Oliveira, T. Burnus, Computer Physics Communications 183, 2227 (2012).
- Comment: to be cited when LibXC is used (negative value of ixc)
- Strong suggestion to cite this paper.
- DOI and bibtex: see https://docs.abinit.org/theory/bibliography/#marques2012
-
- [3] The Abinit project: Impact, environment and recent developments.
- Computer Phys. Comm. 248, 107042 (2020).
- X.Gonze, B. Amadon, G. Antonius, F.Arnardi, L.Baguet, J.-M.Beuken,
- J.Bieder, F.Bottin, J.Bouchet, E.Bousquet, N.Brouwer, F.Bruneval,
- G.Brunin, T.Cavignac, J.-B. Charraud, Wei Chen, M.Cote, S.Cottenier,
- J.Denier, G.Geneste, Ph.Ghosez, M.Giantomassi, Y.Gillet, O.Gingras,
- D.R.Hamann, G.Hautier, Xu He, N.Helbig, N.Holzwarth, Y.Jia, F.Jollet,
- W.Lafargue-Dit-Hauret, K.Lejaeghere, M.A.L.Marques, A.Martin, C.Martins,
- H.P.C. Miranda, F.Naccarato, K. Persson, G.Petretto, V.Planes, Y.Pouillon,
- S.Prokhorenko, F.Ricci, G.-M.Rignanese, A.H.Romero, M.M.Schmitt, M.Torrent,
- M.J.van Setten, B.Van Troeye, M.J.Verstraete, G.Zerah and J.W.Zwanzig
- Comment: the fifth generic paper describing the ABINIT project.
- Note that a version of this paper, that is not formatted for Computer Phys. Comm. 
- is available at https://www.abinit.org/sites/default/files/ABINIT20.pdf .
- The licence allows the authors to put it on the Web.
- DOI and bibtex: see https://docs.abinit.org/theory/bibliography/#gonze2020
-
- [4] ABINIT: Overview, and focus on selected capabilities
- J. Chem. Phys. 152, 124102 (2020).
- A. Romero, D.C. Allan, B. Amadon, G. Antonius, T. Applencourt, L.Baguet,
- J.Bieder, F.Bottin, J.Bouchet, E.Bousquet, F.Bruneval,
- G.Brunin, D.Caliste, M.Cote,
- J.Denier, C. Dreyer, Ph.Ghosez, M.Giantomassi, Y.Gillet, O.Gingras,
- D.R.Hamann, G.Hautier, F.Jollet, G. Jomard,
- A.Martin, 
- H.P.C. Miranda, F.Naccarato, G.Petretto, N.A. Pike, V.Planes,
- S.Prokhorenko, T. Rangel, F.Ricci, G.-M.Rignanese, M.Royo, M.Stengel, M.Torrent,
- M.J.van Setten, B.Van Troeye, M.J.Verstraete, J.Wiktor, J.W.Zwanziger, and X.Gonze.
- Comment: a global overview of ABINIT, with focus on selected capabilities .
- Note that a version of this paper, that is not formatted for J. Chem. Phys 
- is available at https://www.abinit.org/sites/default/files/ABINIT20_JPC.pdf .
- The licence allows the authors to put it on the Web.
- DOI and bibtex: see https://docs.abinit.org/theory/bibliography/#romero2020
-
- [5] Recent developments in the ABINIT software package.
- Computer Phys. Comm. 205, 106 (2016).
- X.Gonze, F.Jollet, F.Abreu Araujo, D.Adams, B.Amadon, T.Applencourt,
- C.Audouze, J.-M.Beuken, J.Bieder, A.Bokhanchuk, E.Bousquet, F.Bruneval
- D.Caliste, M.Cote, F.Dahm, F.Da Pieve, M.Delaveau, M.Di Gennaro,
- B.Dorado, C.Espejo, G.Geneste, L.Genovese, A.Gerossier, M.Giantomassi,
- Y.Gillet, D.R.Hamann, L.He, G.Jomard, J.Laflamme Janssen, S.Le Roux,
- A.Levitt, A.Lherbier, F.Liu, I.Lukacevic, A.Martin, C.Martins,
- M.J.T.Oliveira, S.Ponce, Y.Pouillon, T.Rangel, G.-M.Rignanese,
- A.H.Romero, B.Rousseau, O.Rubel, A.A.Shukri, M.Stankovski, M.Torrent,
- M.J.Van Setten, B.Van Troeye, M.J.Verstraete, D.Waroquier, J.Wiktor,
- B.Xu, A.Zhou, J.W.Zwanziger.
- Comment: the fourth generic paper describing the ABINIT project.
- Note that a version of this paper, that is not formatted for Computer Phys. Comm. 
- is available at https://www.abinit.org/sites/default/files/ABINIT16.pdf .
- The licence allows the authors to put it on the Web.
- DOI and bibtex: see https://docs.abinit.org/theory/bibliography/#gonze2016
-
- Proc.   0 individual time (sec): cpu=       7430.7  wall=       7431.0

================================================================================

 Calculation completed.
.Delivered   0 WARNINGs and   4 COMMENTs to log file.
+Overall time at end (sec) : cpu=      44584.7  wall=      44585.8
