
.Version 9.2.2 of ABINIT 
.(MPI version, prepared for a x86_64_linux_gnu9.3 computer) 

.Copyright (C) 1998-2020 ABINIT group . 
 ABINIT comes with ABSOLUTELY NO WARRANTY.
 It is free software, and you are welcome to redistribute it
 under certain conditions (GNU General Public License,
 see ~abinit/COPYING or http://www.gnu.org/copyleft/gpl.txt).

 ABINIT is a project of the Universite Catholique de Louvain,
 Corning Inc. and other collaborators, see ~abinit/doc/developers/contributors.txt .
 Please read https://docs.abinit.org/theory/acknowledgments for suggested
 acknowledgments of the ABINIT effort.
 For more information, see https://www.abinit.org .

.Starting date : Wed 26 Oct 2022.
- ( at 21h34 )
  
- input  file    -> Cs2TiI6.in
- output file    -> Cs2TiI6.out
- root for input  files -> Cs2TiI6i
- root for output files -> Cs2TiI6o

- inpspheads : Reading pseudopotential header in XML form from 
-   ../../../Psps_for_tests/ATOMICDATA/Cs.GGA_PBE-JTH.xml
- inpspheads : Reading pseudopotential header in XML form from 
-   ../../../Psps_for_tests/ATOMICDATA/I.GGA_PBE-JTH.xml
- inpspheads : Reading pseudopotential header in XML form from 
-   ../../../Psps_for_tests/ATOMICDATA/Hf.GGA_PBE-JTH.xml
- inpspheads : Reading pseudopotential header in XML form from 
-   ../../../Psps_for_tests/ATOMICDATA/Br.GGA_PBE-JTH.xml

 DATASET    1 : space group I4 m m (#107); Bravais tI (body-center tetrag.)
================================================================================
 Values of the parameters that define the memory need for DATASET  1.
     intxc =       0    ionmov =       0      iscf =      17    lmnmax =      18
     lnmax =       6     mgfft =      60  mpssoang =       3    mqgrid =    3627
     natom =       9  nloc_mem =       2    nspden =       1   nspinor =       1
    nsppol =       1      nsym =       8    n1xccc =       1    ntypat =       4
    occopt =       1   xclevel =       2
-    mband =          42        mffmem =           1         mkmem =          28
       mpw =        8248          nfft =      216000          nkpt =         163
Pmy_natom=         2
 PAW method is used; the additional fine FFT grid is defined by:
   mgfftf=        90    nfftf =    729000
================================================================================
P This job should need less than                     377.082 Mbytes of memory.
  Rough estimation (10% accuracy) of disk space for files :
_ WF disk file :    861.602 Mbytes ; DEN or POT disk file :      5.564 Mbytes.
================================================================================


 DATASET    2 : space group I4/m m m (#139); Bravais tI (body-center tetrag.)
================================================================================
 Values of the parameters that define the memory need for DATASET  2.
     intxc =       0    ionmov =       0      iscf =      17    lmnmax =      18
     lnmax =       6     mgfft =      60  mpssoang =       3    mqgrid =    3591
     natom =       9  nloc_mem =       2    nspden =       1   nspinor =       1
    nsppol =       1      nsym =      16    n1xccc =       1    ntypat =       4
    occopt =       1   xclevel =       2
-    mband =          42        mffmem =           1         mkmem =          28
       mpw =        7993          nfft =      216000          nkpt =         163
Pmy_natom=         2
 PAW method is used; the additional fine FFT grid is defined by:
   mgfftf=        90    nfftf =    729000
================================================================================
P This job should need less than                     372.040 Mbytes of memory.
  Rough estimation (10% accuracy) of disk space for files :
_ WF disk file :    834.964 Mbytes ; DEN or POT disk file :      5.564 Mbytes.
================================================================================


 DATASET    3 : space group I4/m m m (#139); Bravais tI (body-center tetrag.)
================================================================================
 Values of the parameters that define the memory need for DATASET  3.
     intxc =       0    ionmov =       0      iscf =      17    lmnmax =      18
     lnmax =       6     mgfft =      60  mpssoang =       3    mqgrid =    3554
     natom =       9  nloc_mem =       2    nspden =       1   nspinor =       1
    nsppol =       1      nsym =      16    n1xccc =       1    ntypat =       4
    occopt =       1   xclevel =       2
-    mband =          42        mffmem =           1         mkmem =          28
       mpw =        7759          nfft =      216000          nkpt =         163
Pmy_natom=         2
 PAW method is used; the additional fine FFT grid is defined by:
   mgfftf=        90    nfftf =    729000
================================================================================
P This job should need less than                     367.424 Mbytes of memory.
  Rough estimation (10% accuracy) of disk space for files :
_ WF disk file :    810.520 Mbytes ; DEN or POT disk file :      5.564 Mbytes.
================================================================================


 DATASET    4 : space group I4/m m m (#139); Bravais tI (body-center tetrag.)
================================================================================
 Values of the parameters that define the memory need for DATASET  4.
     intxc =       0    ionmov =       0      iscf =      17    lmnmax =      18
     lnmax =       6     mgfft =      60  mpssoang =       3    mqgrid =    3517
     natom =       9  nloc_mem =       2    nspden =       1   nspinor =       1
    nsppol =       1      nsym =      16    n1xccc =       1    ntypat =       4
    occopt =       1   xclevel =       2
-    mband =          42        mffmem =           1         mkmem =          28
       mpw =        7539          nfft =      216000          nkpt =         163
Pmy_natom=         2
 PAW method is used; the additional fine FFT grid is defined by:
   mgfftf=        90    nfftf =    729000
================================================================================
P This job should need less than                     363.095 Mbytes of memory.
  Rough estimation (10% accuracy) of disk space for files :
_ WF disk file :    787.539 Mbytes ; DEN or POT disk file :      5.564 Mbytes.
================================================================================


 DATASET    5 : space group I4/m m m (#139); Bravais tI (body-center tetrag.)
================================================================================
 Values of the parameters that define the memory need for DATASET  5.
     intxc =       0    ionmov =       0      iscf =      17    lmnmax =      18
     lnmax =       6     mgfft =      60  mpssoang =       3    mqgrid =    3480
     natom =       9  nloc_mem =       2    nspden =       1   nspinor =       1
    nsppol =       1      nsym =      16    n1xccc =       1    ntypat =       4
    occopt =       1   xclevel =       2
-    mband =          42        mffmem =           1         mkmem =          28
       mpw =        7307          nfft =      216000          nkpt =         163
Pmy_natom=         2
 PAW method is used; the additional fine FFT grid is defined by:
   mgfftf=        90    nfftf =    729000
================================================================================
P This job should need less than                     358.529 Mbytes of memory.
  Rough estimation (10% accuracy) of disk space for files :
_ WF disk file :    763.303 Mbytes ; DEN or POT disk file :      5.564 Mbytes.
================================================================================


 DATASET    6 : space group I4/m m m (#139); Bravais tI (body-center tetrag.)
================================================================================
 Values of the parameters that define the memory need for DATASET  6.
     intxc =       0    ionmov =       0      iscf =      17    lmnmax =      18
     lnmax =       6     mgfft =      60  mpssoang =       3    mqgrid =    3444
     natom =       9  nloc_mem =       2    nspden =       1   nspinor =       1
    nsppol =       1      nsym =      16    n1xccc =       1    ntypat =       4
    occopt =       1   xclevel =       2
-    mband =          42        mffmem =           1         mkmem =          28
       mpw =        7068          nfft =      216000          nkpt =         163
Pmy_natom=         2
 PAW method is used; the additional fine FFT grid is defined by:
   mgfftf=        90    nfftf =    729000
================================================================================
P This job should need less than                     353.827 Mbytes of memory.
  Rough estimation (10% accuracy) of disk space for files :
_ WF disk file :    738.337 Mbytes ; DEN or POT disk file :      5.564 Mbytes.
================================================================================


 DATASET    7 : space group I4/m m m (#139); Bravais tI (body-center tetrag.)
================================================================================
 Values of the parameters that define the memory need for DATASET  7.
     intxc =       0    ionmov =       0      iscf =      17    lmnmax =      18
     lnmax =       6     mgfft =      54  mpssoang =       3    mqgrid =    3407
     natom =       9  nloc_mem =       2    nspden =       1   nspinor =       1
    nsppol =       1      nsym =      16    n1xccc =       1    ntypat =       4
    occopt =       1   xclevel =       2
-    mband =          42        mffmem =           1         mkmem =          28
       mpw =        6858          nfft =      157464          nkpt =         163
Pmy_natom=         2
 PAW method is used; the additional fine FFT grid is defined by:
   mgfftf=        90    nfftf =    729000
================================================================================
P This job should need less than                     341.002 Mbytes of memory.
  Rough estimation (10% accuracy) of disk space for files :
_ WF disk file :    716.400 Mbytes ; DEN or POT disk file :      5.564 Mbytes.
================================================================================


 DATASET    8 : space group I4/m m m (#139); Bravais tI (body-center tetrag.)
================================================================================
 Values of the parameters that define the memory need for DATASET  8.
     intxc =       0    ionmov =       0      iscf =      17    lmnmax =      18
     lnmax =       6     mgfft =      54  mpssoang =       3    mqgrid =    3370
     natom =       9  nloc_mem =       2    nspden =       1   nspinor =       1
    nsppol =       1      nsym =      16    n1xccc =       1    ntypat =       4
    occopt =       1   xclevel =       2
-    mband =          42        mffmem =           1         mkmem =          28
       mpw =        6630          nfft =      157464          nkpt =         163
Pmy_natom=         2
 PAW method is used; the additional fine FFT grid is defined by:
   mgfftf=        90    nfftf =    729000
================================================================================
P This job should need less than                     336.534 Mbytes of memory.
  Rough estimation (10% accuracy) of disk space for files :
_ WF disk file :    692.583 Mbytes ; DEN or POT disk file :      5.564 Mbytes.
================================================================================


 DATASET    9 : space group I4/m m m (#139); Bravais tI (body-center tetrag.)
================================================================================
 Values of the parameters that define the memory need for DATASET  9.
     intxc =       0    ionmov =       0      iscf =      17    lmnmax =      18
     lnmax =       6     mgfft =      54  mpssoang =       3    mqgrid =    3333
     natom =       9  nloc_mem =       2    nspden =       1   nspinor =       1
    nsppol =       1      nsym =      16    n1xccc =       1    ntypat =       4
    occopt =       1   xclevel =       2
-    mband =          42        mffmem =           1         mkmem =          28
       mpw =        6406          nfft =      157464          nkpt =         163
Pmy_natom=         2
 PAW method is used; the additional fine FFT grid is defined by:
   mgfftf=        90    nfftf =    729000
================================================================================
P This job should need less than                     332.153 Mbytes of memory.
  Rough estimation (10% accuracy) of disk space for files :
_ WF disk file :    669.183 Mbytes ; DEN or POT disk file :      5.564 Mbytes.
================================================================================


 DATASET   10 : space group I4/m m m (#139); Bravais tI (body-center tetrag.)
================================================================================
 Values of the parameters that define the memory need for DATASET 10.
     intxc =       0    ionmov =       0      iscf =      17    lmnmax =      18
     lnmax =       6     mgfft =      54  mpssoang =       3    mqgrid =    3296
     natom =       9  nloc_mem =       2    nspden =       1   nspinor =       1
    nsppol =       1      nsym =      16    n1xccc =       1    ntypat =       4
    occopt =       1   xclevel =       2
-    mband =          42        mffmem =           1         mkmem =          28
       mpw =        6212          nfft =      157464          nkpt =         163
Pmy_natom=         2
 PAW method is used; the additional fine FFT grid is defined by:
   mgfftf=        90    nfftf =    729000
================================================================================
P This job should need less than                     328.384 Mbytes of memory.
  Rough estimation (10% accuracy) of disk space for files :
_ WF disk file :    648.918 Mbytes ; DEN or POT disk file :      5.564 Mbytes.
================================================================================

--------------------------------------------------------------------------------
------------- Echo of variables that govern the present computation ------------
--------------------------------------------------------------------------------
-
- outvars: echo of selected default values                                      
-   iomode0 =  0 , fftalg0 =112 , wfoptalg0 = 10
-
- outvars: echo of global parameters not present in the input file              
-  max_nthreads =    0
-
 -outvars: echo values of preprocessed input variables --------
            acell1     1.5517150267E+01  1.5798698106E+01  1.5517150267E+01 Bohr
            acell2     1.5359217149E+01  1.5641849954E+01  1.5359217149E+01 Bohr
            acell3     1.5199297530E+01  1.5489578171E+01  1.5199297530E+01 Bohr
            acell4     1.5040013815E+01  1.5335874673E+01  1.5040013815E+01 Bohr
            acell5     1.4877171075E+01  1.5190504331E+01  1.4877171075E+01 Bohr
            acell6     1.4715706158E+01  1.5042040203E+01  1.4715706158E+01 Bohr
            acell7     1.4553959144E+01  1.4894354688E+01  1.4553959144E+01 Bohr
            acell8     1.4391291818E+01  1.4749014473E+01  1.4391291818E+01 Bohr
            acell9     1.4228970816E+01  1.4603012639E+01  1.4228970816E+01 Bohr
            acell10    1.4067585625E+01  1.4454874268E+01  1.4067585625E+01 Bohr
              amu      1.32905430E+02  1.26904470E+02  1.78490000E+02
                       7.99040000E+01
           diemac      1.20000000E+01
             ecut      1.60000000E+01 Hartree
-          fftalg         112
           istwfk        2    0    0    0    0    0    3    0    0    0
                         0    0    0    0    0    0    0    0    0    0
                         0    0    0    0    0    0    0    0    0    0
                         0    0    0    0    0    0    0    0    0    0
                         0    0    7    0    0    0    0    0    0    0
                       outvar_i_n : Printing only first  50 k-points.
              ixc     -101130
           jdtset        1    2    3    4    5    6    7    8    9   10
              kpt      0.00000000E+00  0.00000000E+00  0.00000000E+00
                       8.33333333E-02  0.00000000E+00  0.00000000E+00
                       1.66666667E-01  0.00000000E+00  0.00000000E+00
                       2.50000000E-01  0.00000000E+00  0.00000000E+00
                       3.33333333E-01  0.00000000E+00  0.00000000E+00
                       4.16666667E-01  0.00000000E+00  0.00000000E+00
                       5.00000000E-01  0.00000000E+00  0.00000000E+00
                       8.33333333E-02  8.33333333E-02  0.00000000E+00
                       1.66666667E-01  8.33333333E-02  0.00000000E+00
                       2.50000000E-01  8.33333333E-02  0.00000000E+00
                       3.33333333E-01  8.33333333E-02  0.00000000E+00
                       4.16666667E-01  8.33333333E-02  0.00000000E+00
                       5.00000000E-01  8.33333333E-02  0.00000000E+00
                      -4.16666667E-01  8.33333333E-02  0.00000000E+00
                      -3.33333333E-01  8.33333333E-02  0.00000000E+00
                      -2.50000000E-01  8.33333333E-02  0.00000000E+00
                      -1.66666667E-01  8.33333333E-02  0.00000000E+00
                      -8.33333333E-02  8.33333333E-02  0.00000000E+00
                       1.66666667E-01  1.66666667E-01  0.00000000E+00
                       2.50000000E-01  1.66666667E-01  0.00000000E+00
                       3.33333333E-01  1.66666667E-01  0.00000000E+00
                       4.16666667E-01  1.66666667E-01  0.00000000E+00
                       5.00000000E-01  1.66666667E-01  0.00000000E+00
                      -4.16666667E-01  1.66666667E-01  0.00000000E+00
                      -3.33333333E-01  1.66666667E-01  0.00000000E+00
                      -2.50000000E-01  1.66666667E-01  0.00000000E+00
                      -1.66666667E-01  1.66666667E-01  0.00000000E+00
                       2.50000000E-01  2.50000000E-01  0.00000000E+00
                       3.33333333E-01  2.50000000E-01  0.00000000E+00
                       4.16666667E-01  2.50000000E-01  0.00000000E+00
                       5.00000000E-01  2.50000000E-01  0.00000000E+00
                      -4.16666667E-01  2.50000000E-01  0.00000000E+00
                      -3.33333333E-01  2.50000000E-01  0.00000000E+00
                      -2.50000000E-01  2.50000000E-01  0.00000000E+00
                       3.33333333E-01  3.33333333E-01  0.00000000E+00
                       4.16666667E-01  3.33333333E-01  0.00000000E+00
                       5.00000000E-01  3.33333333E-01  0.00000000E+00
                      -4.16666667E-01  3.33333333E-01  0.00000000E+00
                      -3.33333333E-01  3.33333333E-01  0.00000000E+00
                       4.16666667E-01  4.16666667E-01  0.00000000E+00
                       5.00000000E-01  4.16666667E-01  0.00000000E+00
                      -4.16666667E-01  4.16666667E-01  0.00000000E+00
                       5.00000000E-01  5.00000000E-01  0.00000000E+00
                       8.33333333E-02  0.00000000E+00  8.33333333E-02
                       1.66666667E-01  0.00000000E+00  8.33333333E-02
                       2.50000000E-01  0.00000000E+00  8.33333333E-02
                       3.33333333E-01  0.00000000E+00  8.33333333E-02
                       4.16666667E-01  0.00000000E+00  8.33333333E-02
                       5.00000000E-01  0.00000000E+00  8.33333333E-02
                      -4.16666667E-01  0.00000000E+00  8.33333333E-02
                       outvar_i_n : Printing only first  50 k-points.
         kptrlatt       12    0    0      0   12    0      0    0   12
          kptrlen1     1.86205803E+02
          kptrlen2     1.84310606E+02
          kptrlen3     1.82391570E+02
          kptrlen4     1.80480166E+02
          kptrlen5     1.78526053E+02
          kptrlen6     1.76588474E+02
          kptrlen7     1.74647510E+02
          kptrlen8     1.72695502E+02
          kptrlen9     1.70747650E+02
          kptrlen10    1.68811028E+02
P           mkmem          28
            natom           9
            nband          42
           ndtset          10
            ngfft1         60      60      60
            ngfft2         60      60      60
            ngfft3         60      60      60
            ngfft4         60      60      60
            ngfft5         60      60      60
            ngfft6         60      60      60
            ngfft7         54      54      54
            ngfft8         54      54      54
            ngfft9         54      54      54
            ngfft10        54      54      54
          ngfftdg          90      90      90
             nkpt         163
            nstep        2500
             nsym1          8
             nsym2         16
             nsym3         16
             nsym4         16
             nsym5         16
             nsym6         16
             nsym7         16
             nsym8         16
             nsym9         16
             nsym10        16
           ntypat           4
              occ      2.000000  2.000000  2.000000  2.000000  2.000000  2.000000
                       2.000000  2.000000  2.000000  2.000000  2.000000  2.000000
                       2.000000  2.000000  2.000000  2.000000  2.000000  2.000000
                       2.000000  2.000000  2.000000  2.000000  2.000000  2.000000
                       2.000000  2.000000  2.000000  2.000000  2.000000  2.000000
                       2.000000  2.000000  2.000000  2.000000  2.000000  2.000000
                       0.000000  0.000000  0.000000  0.000000  0.000000  0.000000
        pawecutdg      4.00000000E+01 Hartree
            prtwf           0
            rprim1     0.0000000000E+00  6.9403969021E-01  7.1993673917E-01
                       7.0710678119E-01  0.0000000000E+00  7.0710678119E-01
                       7.1993673917E-01  6.9403969021E-01  0.0000000000E+00
            rprim2     0.0000000000E+00  6.9385097903E-01  7.2011861446E-01
                       7.0710678119E-01  0.0000000000E+00  7.0710678119E-01
                       7.2011861446E-01  6.9385097903E-01  0.0000000000E+00
            rprim3     0.0000000000E+00  6.9333926356E-01  7.2061131382E-01
                       7.0710678119E-01  0.0000000000E+00  7.0710678119E-01
                       7.2061131382E-01  6.9333926356E-01  0.0000000000E+00
            rprim4     0.0000000000E+00  6.9291769564E-01  7.2101668987E-01
                       7.0710678119E-01  0.0000000000E+00  7.0710678119E-01
                       7.2101668987E-01  6.9291769564E-01  0.0000000000E+00
            rprim5     0.0000000000E+00  6.9189367915E-01  7.2199940218E-01
                       7.0710678119E-01  0.0000000000E+00  7.0710678119E-01
                       7.2199940218E-01  6.9189367915E-01  0.0000000000E+00
            rprim6     0.0000000000E+00  6.9107033908E-01  7.2278751126E-01
                       7.0710678119E-01  0.0000000000E+00  7.0710678119E-01
                       7.2278751126E-01  6.9107033908E-01  0.0000000000E+00
            rprim7     0.0000000000E+00  6.9017242047E-01  7.2364496130E-01
                       7.0710678119E-01  0.0000000000E+00  7.0710678119E-01
                       7.2364496130E-01  6.9017242047E-01  0.0000000000E+00
            rprim8     0.0000000000E+00  6.8908213216E-01  7.2468325160E-01
                       7.0710678119E-01  0.0000000000E+00  7.0710678119E-01
                       7.2468325160E-01  6.8908213216E-01  0.0000000000E+00
            rprim9     0.0000000000E+00  6.8801682089E-01  7.2569473897E-01
                       7.0710678119E-01  0.0000000000E+00  7.0710678119E-01
                       7.2569473897E-01  6.8801682089E-01  0.0000000000E+00
            rprim10    0.0000000000E+00  6.8708839640E-01  7.2657383351E-01
                       7.0710678119E-01  0.0000000000E+00  7.0710678119E-01
                       7.2657383351E-01  6.8708839640E-01  0.0000000000E+00
          spgroup1        107
          spgroup2        139
          spgroup3        139
          spgroup4        139
          spgroup5        139
          spgroup6        139
          spgroup7        139
          spgroup8        139
          spgroup9        139
          spgroup10       139
           symafm1       1    1    1    1    1    1    1    1
           symafm2       1    1    1    1    1    1    1    1    1    1
                         1    1    1    1    1    1
           symafm3       1    1    1    1    1    1    1    1    1    1
                         1    1    1    1    1    1
           symafm4       1    1    1    1    1    1    1    1    1    1
                         1    1    1    1    1    1
           symafm5       1    1    1    1    1    1    1    1    1    1
                         1    1    1    1    1    1
           symafm6       1    1    1    1    1    1    1    1    1    1
                         1    1    1    1    1    1
           symafm7       1    1    1    1    1    1    1    1    1    1
                         1    1    1    1    1    1
           symafm8       1    1    1    1    1    1    1    1    1    1
                         1    1    1    1    1    1
           symafm9       1    1    1    1    1    1    1    1    1    1
                         1    1    1    1    1    1
           symafm10      1    1    1    1    1    1    1    1    1    1
                         1    1    1    1    1    1
           symrel1     1  0  0   0  1  0   0  0  1       0  0  1   0  1  0   1  0  0
                       0 -1  1   0 -1  0   1 -1  0       1 -1  0   0 -1  0   0 -1  1
                       0 -1  1  -1  0  1   0  0  1       0  0  1  -1  0  1   0 -1  1
                       1  0  0   1  0 -1   1 -1  0       1 -1  0   1  0 -1   1  0  0
           symrel2     1  0  0   0  1  0   0  0  1      -1  0  0   0 -1  0   0  0 -1
                       0  0 -1   0 -1  0  -1  0  0       0  0  1   0  1  0   1  0  0
                       0 -1  1   0 -1  0   1 -1  0       0  1 -1   0  1  0  -1  1  0
                      -1  1  0   0  1  0   0  1 -1       1 -1  0   0 -1  0   0 -1  1
                       0 -1  1  -1  0  1   0  0  1       0  1 -1   1  0 -1   0  0 -1
                       0  0 -1   1  0 -1   0  1 -1       0  0  1  -1  0  1   0 -1  1
                       1  0  0   1  0 -1   1 -1  0      -1  0  0  -1  0  1  -1  1  0
                      -1  1  0  -1  0  1  -1  0  0       1 -1  0   1  0 -1   1  0  0
           symrel3     1  0  0   0  1  0   0  0  1      -1  0  0   0 -1  0   0  0 -1
                       0  0 -1   0 -1  0  -1  0  0       0  0  1   0  1  0   1  0  0
                       0 -1  1   0 -1  0   1 -1  0       0  1 -1   0  1  0  -1  1  0
                      -1  1  0   0  1  0   0  1 -1       1 -1  0   0 -1  0   0 -1  1
                       0 -1  1  -1  0  1   0  0  1       0  1 -1   1  0 -1   0  0 -1
                       0  0 -1   1  0 -1   0  1 -1       0  0  1  -1  0  1   0 -1  1
                       1  0  0   1  0 -1   1 -1  0      -1  0  0  -1  0  1  -1  1  0
                      -1  1  0  -1  0  1  -1  0  0       1 -1  0   1  0 -1   1  0  0
           symrel4     1  0  0   0  1  0   0  0  1      -1  0  0   0 -1  0   0  0 -1
                       0  0 -1   0 -1  0  -1  0  0       0  0  1   0  1  0   1  0  0
                       0 -1  1   0 -1  0   1 -1  0       0  1 -1   0  1  0  -1  1  0
                      -1  1  0   0  1  0   0  1 -1       1 -1  0   0 -1  0   0 -1  1
                       0 -1  1  -1  0  1   0  0  1       0  1 -1   1  0 -1   0  0 -1
                       0  0 -1   1  0 -1   0  1 -1       0  0  1  -1  0  1   0 -1  1
                       1  0  0   1  0 -1   1 -1  0      -1  0  0  -1  0  1  -1  1  0
                      -1  1  0  -1  0  1  -1  0  0       1 -1  0   1  0 -1   1  0  0
           symrel5     1  0  0   0  1  0   0  0  1      -1  0  0   0 -1  0   0  0 -1
                       0  0 -1   0 -1  0  -1  0  0       0  0  1   0  1  0   1  0  0
                       0 -1  1   0 -1  0   1 -1  0       0  1 -1   0  1  0  -1  1  0
                      -1  1  0   0  1  0   0  1 -1       1 -1  0   0 -1  0   0 -1  1
                       0 -1  1  -1  0  1   0  0  1       0  1 -1   1  0 -1   0  0 -1
                       0  0 -1   1  0 -1   0  1 -1       0  0  1  -1  0  1   0 -1  1
                       1  0  0   1  0 -1   1 -1  0      -1  0  0  -1  0  1  -1  1  0
                      -1  1  0  -1  0  1  -1  0  0       1 -1  0   1  0 -1   1  0  0
           symrel6     1  0  0   0  1  0   0  0  1      -1  0  0   0 -1  0   0  0 -1
                       0  0 -1   0 -1  0  -1  0  0       0  0  1   0  1  0   1  0  0
                       0 -1  1   0 -1  0   1 -1  0       0  1 -1   0  1  0  -1  1  0
                      -1  1  0   0  1  0   0  1 -1       1 -1  0   0 -1  0   0 -1  1
                       0 -1  1  -1  0  1   0  0  1       0  1 -1   1  0 -1   0  0 -1
                       0  0 -1   1  0 -1   0  1 -1       0  0  1  -1  0  1   0 -1  1
                       1  0  0   1  0 -1   1 -1  0      -1  0  0  -1  0  1  -1  1  0
                      -1  1  0  -1  0  1  -1  0  0       1 -1  0   1  0 -1   1  0  0
           symrel7     1  0  0   0  1  0   0  0  1      -1  0  0   0 -1  0   0  0 -1
                       0  0 -1   0 -1  0  -1  0  0       0  0  1   0  1  0   1  0  0
                       0 -1  1   0 -1  0   1 -1  0       0  1 -1   0  1  0  -1  1  0
                      -1  1  0   0  1  0   0  1 -1       1 -1  0   0 -1  0   0 -1  1
                       0 -1  1  -1  0  1   0  0  1       0  1 -1   1  0 -1   0  0 -1
                       0  0 -1   1  0 -1   0  1 -1       0  0  1  -1  0  1   0 -1  1
                       1  0  0   1  0 -1   1 -1  0      -1  0  0  -1  0  1  -1  1  0
                      -1  1  0  -1  0  1  -1  0  0       1 -1  0   1  0 -1   1  0  0
           symrel8     1  0  0   0  1  0   0  0  1      -1  0  0   0 -1  0   0  0 -1
                       0  0 -1   0 -1  0  -1  0  0       0  0  1   0  1  0   1  0  0
                       0 -1  1   0 -1  0   1 -1  0       0  1 -1   0  1  0  -1  1  0
                      -1  1  0   0  1  0   0  1 -1       1 -1  0   0 -1  0   0 -1  1
                       0 -1  1  -1  0  1   0  0  1       0  1 -1   1  0 -1   0  0 -1
                       0  0 -1   1  0 -1   0  1 -1       0  0  1  -1  0  1   0 -1  1
                       1  0  0   1  0 -1   1 -1  0      -1  0  0  -1  0  1  -1  1  0
                      -1  1  0  -1  0  1  -1  0  0       1 -1  0   1  0 -1   1  0  0
           symrel9     1  0  0   0  1  0   0  0  1      -1  0  0   0 -1  0   0  0 -1
                       0  0 -1   0 -1  0  -1  0  0       0  0  1   0  1  0   1  0  0
                       0 -1  1   0 -1  0   1 -1  0       0  1 -1   0  1  0  -1  1  0
                      -1  1  0   0  1  0   0  1 -1       1 -1  0   0 -1  0   0 -1  1
                       0 -1  1  -1  0  1   0  0  1       0  1 -1   1  0 -1   0  0 -1
                       0  0 -1   1  0 -1   0  1 -1       0  0  1  -1  0  1   0 -1  1
                       1  0  0   1  0 -1   1 -1  0      -1  0  0  -1  0  1  -1  1  0
                      -1  1  0  -1  0  1  -1  0  0       1 -1  0   1  0 -1   1  0  0
           symrel10    1  0  0   0  1  0   0  0  1      -1  0  0   0 -1  0   0  0 -1
                       0  0 -1   0 -1  0  -1  0  0       0  0  1   0  1  0   1  0  0
                       0 -1  1   0 -1  0   1 -1  0       0  1 -1   0  1  0  -1  1  0
                      -1  1  0   0  1  0   0  1 -1       1 -1  0   0 -1  0   0 -1  1
                       0 -1  1  -1  0  1   0  0  1       0  1 -1   1  0 -1   0  0 -1
                       0  0 -1   1  0 -1   0  1 -1       0  0  1  -1  0  1   0 -1  1
                       1  0  0   1  0 -1   1 -1  0      -1  0  0  -1  0  1  -1  1  0
                      -1  1  0  -1  0  1  -1  0  0       1 -1  0   1  0 -1   1  0  0
            tnons1     0.0000000  0.0000000  0.0000000     0.0000000  0.0000000  0.0000000
                       0.0000000 -0.0000000  0.0000000     0.0000000 -0.0000000  0.0000000
                      -0.0000000 -0.0000000  0.0000000    -0.0000000 -0.0000000  0.0000000
                       0.0000000 -0.0000000 -0.0000000     0.0000000 -0.0000000 -0.0000000
            tnons2     0.0000000  0.0000000  0.0000000     0.0000000  0.0000000  0.0000000
                       0.0000000  0.0000000  0.0000000     0.0000000  0.0000000  0.0000000
                       0.0000000  0.0000000  0.0000000     0.0000000  0.0000000  0.0000000
                       0.0000000  0.0000000  0.0000000     0.0000000  0.0000000  0.0000000
                       0.0000000  0.0000000  0.0000000     0.0000000  0.0000000  0.0000000
                       0.0000000  0.0000000  0.0000000     0.0000000  0.0000000  0.0000000
                       0.0000000  0.0000000  0.0000000     0.0000000  0.0000000  0.0000000
                       0.0000000  0.0000000  0.0000000     0.0000000  0.0000000  0.0000000
            tnons3     0.0000000  0.0000000  0.0000000     0.0000000  0.0000000  0.0000000
                       0.0000000  0.0000000  0.0000000     0.0000000  0.0000000  0.0000000
                       0.0000000  0.0000000  0.0000000     0.0000000  0.0000000  0.0000000
                       0.0000000  0.0000000  0.0000000     0.0000000  0.0000000  0.0000000
                       0.0000000  0.0000000  0.0000000     0.0000000  0.0000000  0.0000000
                       0.0000000  0.0000000  0.0000000     0.0000000  0.0000000  0.0000000
                       0.0000000  0.0000000  0.0000000     0.0000000  0.0000000  0.0000000
                       0.0000000  0.0000000  0.0000000     0.0000000  0.0000000  0.0000000
            tnons4     0.0000000  0.0000000  0.0000000     0.0000000  0.0000000  0.0000000
                       0.0000000  0.0000000  0.0000000     0.0000000  0.0000000  0.0000000
                       0.0000000  0.0000000  0.0000000     0.0000000  0.0000000  0.0000000
                       0.0000000  0.0000000  0.0000000     0.0000000  0.0000000  0.0000000
                       0.0000000  0.0000000  0.0000000     0.0000000  0.0000000  0.0000000
                       0.0000000  0.0000000  0.0000000     0.0000000  0.0000000  0.0000000
                       0.0000000  0.0000000  0.0000000     0.0000000  0.0000000  0.0000000
                       0.0000000  0.0000000  0.0000000     0.0000000  0.0000000  0.0000000
            tnons5     0.0000000  0.0000000  0.0000000     0.0000000  0.0000000  0.0000000
                       0.0000000  0.0000000  0.0000000     0.0000000  0.0000000  0.0000000
                       0.0000000  0.0000000  0.0000000     0.0000000  0.0000000  0.0000000
                       0.0000000  0.0000000  0.0000000     0.0000000  0.0000000  0.0000000
                       0.0000000  0.0000000  0.0000000     0.0000000  0.0000000  0.0000000
                       0.0000000  0.0000000  0.0000000     0.0000000  0.0000000  0.0000000
                       0.0000000  0.0000000  0.0000000     0.0000000  0.0000000  0.0000000
                       0.0000000  0.0000000  0.0000000     0.0000000  0.0000000  0.0000000
            tnons6     0.0000000  0.0000000  0.0000000     0.0000000  0.0000000  0.0000000
                       0.0000000  0.0000000  0.0000000     0.0000000  0.0000000  0.0000000
                       0.0000000  0.0000000  0.0000000     0.0000000  0.0000000  0.0000000
                       0.0000000  0.0000000  0.0000000     0.0000000  0.0000000  0.0000000
                       0.0000000  0.0000000  0.0000000     0.0000000  0.0000000  0.0000000
                       0.0000000  0.0000000  0.0000000     0.0000000  0.0000000  0.0000000
                       0.0000000  0.0000000  0.0000000     0.0000000  0.0000000  0.0000000
                       0.0000000  0.0000000  0.0000000     0.0000000  0.0000000  0.0000000
            tnons7     0.0000000  0.0000000  0.0000000     0.0000000  0.0000000  0.0000000
                       0.0000000  0.0000000  0.0000000     0.0000000  0.0000000  0.0000000
                       0.0000000  0.0000000  0.0000000     0.0000000  0.0000000  0.0000000
                       0.0000000  0.0000000  0.0000000     0.0000000  0.0000000  0.0000000
                       0.0000000  0.0000000  0.0000000     0.0000000  0.0000000  0.0000000
                       0.0000000  0.0000000  0.0000000     0.0000000  0.0000000  0.0000000
                       0.0000000  0.0000000  0.0000000     0.0000000  0.0000000  0.0000000
                       0.0000000  0.0000000  0.0000000     0.0000000  0.0000000  0.0000000
            tnons8     0.0000000  0.0000000  0.0000000     0.0000000  0.0000000  0.0000000
                       0.0000000  0.0000000  0.0000000     0.0000000  0.0000000  0.0000000
                       0.0000000  0.0000000  0.0000000     0.0000000  0.0000000  0.0000000
                       0.0000000  0.0000000  0.0000000     0.0000000  0.0000000  0.0000000
                       0.0000000  0.0000000  0.0000000     0.0000000  0.0000000  0.0000000
                       0.0000000  0.0000000  0.0000000     0.0000000  0.0000000  0.0000000
                       0.0000000  0.0000000  0.0000000     0.0000000  0.0000000  0.0000000
                       0.0000000  0.0000000  0.0000000     0.0000000  0.0000000  0.0000000
            tnons9     0.0000000  0.0000000  0.0000000     0.0000000  0.0000000  0.0000000
                       0.0000000  0.0000000  0.0000000     0.0000000  0.0000000  0.0000000
                       0.0000000  0.0000000  0.0000000     0.0000000  0.0000000  0.0000000
                       0.0000000  0.0000000  0.0000000     0.0000000  0.0000000  0.0000000
                       0.0000000  0.0000000  0.0000000     0.0000000  0.0000000  0.0000000
                       0.0000000  0.0000000  0.0000000     0.0000000  0.0000000  0.0000000
                       0.0000000  0.0000000  0.0000000     0.0000000  0.0000000  0.0000000
                       0.0000000  0.0000000  0.0000000     0.0000000  0.0000000  0.0000000
            tnons10    0.0000000  0.0000000  0.0000000     0.0000000  0.0000000  0.0000000
                       0.0000000  0.0000000  0.0000000     0.0000000  0.0000000  0.0000000
                       0.0000000  0.0000000  0.0000000     0.0000000  0.0000000  0.0000000
                       0.0000000  0.0000000  0.0000000     0.0000000  0.0000000  0.0000000
                       0.0000000  0.0000000  0.0000000     0.0000000  0.0000000  0.0000000
                       0.0000000  0.0000000  0.0000000     0.0000000  0.0000000  0.0000000
                       0.0000000  0.0000000  0.0000000     0.0000000  0.0000000  0.0000000
                       0.0000000  0.0000000  0.0000000     0.0000000  0.0000000  0.0000000
           toldfe      1.00000000E-08 Hartree
            typat      1  1  4  2  2  4  2  2  3
           useylm           1
              wtk        0.00058    0.00463    0.00463    0.00463    0.00463    0.00463
                         0.00231    0.00231    0.00926    0.00926    0.00926    0.00926
                         0.00926    0.00926    0.00926    0.00926    0.00926    0.00463
                         0.00231    0.00926    0.00926    0.00926    0.00926    0.00926
                         0.00926    0.00926    0.00463    0.00231    0.00926    0.00926
                         0.00926    0.00926    0.00926    0.00463    0.00231    0.00926
                         0.00926    0.00926    0.00463    0.00231    0.00926    0.00463
                         0.00116    0.00116    0.00463    0.00463    0.00463    0.00463
                         0.00463    0.00463
                       outvars : Printing only first  50 k-points.
           xangst1     2.9558162874E+00  2.8494644271E+00  2.9558162874E+00
                       8.8674488622E+00  8.5484479871E+00  8.8674488622E+00
                       5.9116325747E+00  8.7975111676E+00  5.9116325747E+00
                       5.9116325747E+00  5.6989979575E+00  2.8753155767E+00
                       5.9116325748E+00  5.6989979575E+00  8.9479495729E+00
                       5.9116325748E+00  2.6004778776E+00  5.9116325748E+00
                       8.9479495729E+00  5.6989979575E+00  5.9116325748E+00
                       2.8753155767E+00  5.6989979575E+00  5.9116325747E+00
                      -1.5777486138E-16  1.1664522562E-05 -1.5777486138E-16
           xangst2     2.9264711908E+00  2.8197228346E+00  2.9264711908E+00
                       8.7794135723E+00  8.4591685037E+00  8.7794135723E+00
                       5.8529423815E+00  8.6797745280E+00  5.8529423815E+00
                       5.8529423815E+00  5.6394456691E+00  2.8703133478E+00
                       5.8529423816E+00  5.6394456691E+00  8.8355714153E+00
                       5.8529423816E+00  2.5991168103E+00  5.8529423816E+00
                       8.8355714153E+00  5.6394456691E+00  5.8529423816E+00
                       2.8703133478E+00  5.6394456691E+00  5.8529423815E+00
                      -2.1132604236E-33  1.4927488394E-22 -2.1132604236E-33
           xangst3     2.8979822980E+00  2.7883060864E+00  2.8979822980E+00
                       8.6939468940E+00  8.3649182593E+00  8.6939468940E+00
                       5.7959645960E+00  8.5558380840E+00  5.7959645960E+00
                       5.7959645960E+00  5.5766121729E+00  2.8645798855E+00
                       5.7959645960E+00  5.5766121729E+00  8.7273493065E+00
                       5.7959645960E+00  2.5973862617E+00  5.7959645960E+00
                       8.7273493065E+00  5.5766121729E+00  5.7959645960E+00
                       2.8645798855E+00  5.5766121729E+00  5.7959645960E+00
                       3.8354476358E-23  7.3805847570E-23  3.8354476358E-23
           xangst4     2.8692255422E+00  2.7574079476E+00  2.8692255422E+00
                       8.6076766267E+00  8.2722238427E+00  8.6076766267E+00
                       5.7384510844E+00  8.4345617257E+00  5.7384510844E+00
                       5.7384510844E+00  5.5148158951E+00  2.8579240504E+00
                       5.7384510845E+00  5.5148158951E+00  8.6189781186E+00
                       5.7384510845E+00  2.5950700646E+00  5.7384510845E+00
                       8.6189781186E+00  5.5148158951E+00  5.7384510845E+00
                       2.8579240504E+00  5.5148158951E+00  5.7384510844E+00
                      -1.5189553546E-22  0.0000000000E+00 -1.5189553546E-22
           xangst5     2.8420278567E+00  2.7235217980E+00  2.8420278567E+00
                       8.5260835700E+00  8.1705653941E+00  8.5260835700E+00
                       5.6840557133E+00  8.3022350044E+00  5.6840557133E+00
                       5.6840557133E+00  5.4470435961E+00  2.8504083422E+00
                       5.6840557133E+00  5.4470435961E+00  8.5177030844E+00
                       5.6840557133E+00  2.5918521877E+00  5.6840557133E+00
                       8.5177030844E+00  5.4470435961E+00  5.6840557133E+00
                       2.8504083422E+00  5.4470435961E+00  5.6840557133E+00
                       0.0000000000E+00  2.8836408694E-22  3.0091140395E-22
           xangst6     2.8142513471E+00  2.6907571069E+00  2.8142513471E+00
                       8.4427540414E+00  8.0722713208E+00  8.4427540414E+00
                       5.6285026943E+00  8.1751395655E+00  5.6285026943E+00
                       5.6285026943E+00  5.3815142139E+00  2.8415837998E+00
                       5.6285026943E+00  5.3815142139E+00  8.4154215888E+00
                       5.6285026943E+00  2.5878888622E+00  5.6285026943E+00
                       8.4154215888E+00  5.3815142139E+00  5.6285026943E+00
                       2.8415837998E+00  5.3815142139E+00  5.6285026943E+00
                       0.0000000000E+00  2.8489499033E-22  2.9797045161E-22
           xangst7     2.7866205103E+00  2.6577240572E+00  2.7866205103E+00
                       8.3598615308E+00  7.9731721716E+00  8.3598615308E+00
                       5.5732410206E+00  8.0479188936E+00  5.5732410206E+00
                       5.5732410206E+00  5.3154481144E+00  2.8316175384E+00
                       5.5732410205E+00  5.3154481144E+00  8.3148645027E+00
                       5.5732410205E+00  2.5829773352E+00  5.5732410205E+00
                       8.3148645027E+00  5.3154481144E+00  5.5732410205E+00
                       2.8316175384E+00  5.3154481144E+00  5.5732410206E+00
                       0.0000000000E+00  0.0000000000E+00  0.0000000000E+00
           xangst8     2.7594284611E+00  2.6238675218E+00  2.7594284611E+00
                       8.2782853833E+00  7.8716025655E+00  8.2782853833E+00
                       5.5188569222E+00  7.9185562057E+00  5.5188569222E+00
                       5.5188569222E+00  5.2477350437E+00  2.8205533558E+00
                       5.5188569223E+00  5.2477350437E+00  8.2171604886E+00
                       5.5188569223E+00  2.5769138817E+00  5.5188569223E+00
                       8.2171604886E+00  5.2477350437E+00  5.5188569223E+00
                       2.8205533558E+00  5.2477350437E+00  5.5188569222E+00
                       2.9216585276E-22  5.5562556006E-22  2.9216585276E-22
           xangst9     2.7321126281E+00  2.5902619155E+00  2.7321126281E+00
                       8.1963378842E+00  7.7707857464E+00  8.1963378842E+00
                       5.4642252560E+00  7.7914205537E+00  5.4642252560E+00
                       5.4642252560E+00  5.1805238309E+00  2.8079934051E+00
                       5.4642252562E+00  5.1805238309E+00  8.1204571071E+00
                       5.4642252562E+00  2.5696271082E+00  5.4642252562E+00
                       8.1204571071E+00  5.1805238309E+00  5.4642252562E+00
                       2.8079934051E+00  5.1805238309E+00  5.4642252560E+00
                       0.0000000000E+00  0.0000000000E+00  0.0000000000E+00
           xangst10    2.7043970653E+00  2.5574274177E+00  2.7043970653E+00
                       8.1131911959E+00  7.6722822530E+00  8.1131911959E+00
                       5.4087941305E+00  7.6684934464E+00  5.4087941305E+00
                       5.4087941305E+00  5.1148548354E+00  2.7941095312E+00
                       5.4087941306E+00  5.1148548354E+00  8.0234787300E+00
                       5.4087941306E+00  2.5612162244E+00  5.4087941306E+00
                       8.0234787300E+00  5.1148548354E+00  5.4087941306E+00
                       2.7941095312E+00  5.1148548354E+00  5.4087941305E+00
                       0.0000000000E+00  0.0000000000E+00  0.0000000000E+00
            xcart1     5.5856832823E+00  5.3847073925E+00  5.5856832823E+00
                       1.6757049847E+01  1.6154225557E+01  1.6757049847E+01
                       1.1171366565E+01  1.6624886758E+01  1.1171366565E+01
                       1.1171366565E+01  1.0769545371E+01  5.4335589855E+00
                       1.1171366565E+01  1.0769545371E+01  1.6909174144E+01
                       1.1171366565E+01  4.9141910033E+00  1.1171366565E+01
                       1.6909174144E+01  1.0769545371E+01  1.1171366565E+01
                       5.4335589855E+00  1.0769545371E+01  1.1171366565E+01
                      -2.9815127865E-16  2.2042753113E-05 -2.9815127865E-16
            xcart2     5.5302290863E+00  5.3285039280E+00  5.5302290863E+00
                       1.6590687259E+01  1.5985511784E+01  1.6590687259E+01
                       1.1060458173E+01  1.6402396753E+01  1.1060458173E+01
                       1.1060458173E+01  1.0657007856E+01  5.4241061429E+00
                       1.1060458173E+01  1.0657007856E+01  1.6696810202E+01
                       1.1060458173E+01  4.9116189588E+00  1.1060458173E+01
                       1.6696810202E+01  1.0657007856E+01  1.1060458173E+01
                       5.4241061429E+00  1.0657007856E+01  1.1060458173E+01
                      -3.9934834482E-33  2.8208864916E-22 -3.9934834482E-33
            xcart3     5.4763928812E+00  5.2691348780E+00  5.4763928812E+00
                       1.6429178644E+01  1.5807404634E+01  1.6429178644E+01
                       1.0952785762E+01  1.6168190816E+01  1.0952785762E+01
                       1.0952785762E+01  1.0538269756E+01  5.4132714694E+00
                       1.0952785762E+01  1.0538269756E+01  1.6492300055E+01
                       1.0952785762E+01  4.9083486960E+00  1.0952785762E+01
                       1.6492300055E+01  1.0538269756E+01  1.0952785762E+01
                       5.4132714694E+00  1.0538269756E+01  1.0952785762E+01
                       7.2479456288E-23  1.3947283891E-22  7.2479456288E-23
            xcart4     5.4220504883E+00  5.2107458575E+00  5.4220504883E+00
                       1.6266151465E+01  1.5632237573E+01  1.6266151465E+01
                       1.0844100977E+01  1.5939011713E+01  1.0844100977E+01
                       1.0844100977E+01  1.0421491715E+01  5.4006937638E+00
                       1.0844100977E+01  1.0421491715E+01  1.6287508189E+01
                       1.0844100977E+01  4.9039717177E+00  1.0844100977E+01
                       1.6287508189E+01  1.0421491715E+01  1.0844100977E+01
                       5.4006937638E+00  1.0421491715E+01  1.0844100977E+01
                      -2.8704096283E-22  0.0000000000E+00 -2.8704096283E-22
            xcart5     5.3706543111E+00  5.1467103152E+00  5.3706543111E+00
                       1.6111962933E+01  1.5440130946E+01  1.6111962933E+01
                       1.0741308622E+01  1.5688950449E+01  1.0741308622E+01
                       1.0741308622E+01  1.0293420630E+01  5.3864911336E+00
                       1.0741308622E+01  1.0293420630E+01  1.6096126111E+01
                       1.0741308622E+01  4.8978908117E+00  1.0741308622E+01
                       1.6096126111E+01  1.0293420630E+01  1.0741308622E+01
                       5.3864911336E+00  1.0293420630E+01  1.0741308622E+01
                       0.0000000000E+00  5.4492915087E-22  5.6864014373E-22
            xcart6     5.3181643152E+00  5.0847940222E+00  5.3181643152E+00
                       1.5954492946E+01  1.5254382067E+01  1.5954492946E+01
                       1.0636328630E+01  1.5448774877E+01  1.0636328630E+01
                       1.0636328630E+01  1.0169588044E+01  5.3698151652E+00
                       1.0636328630E+01  1.0169588044E+01  1.5902842096E+01
                       1.0636328630E+01  4.8904012119E+00  1.0636328630E+01
                       1.5902842096E+01  1.0169588044E+01  1.0636328630E+01
                       5.3698151652E+00  1.0169588044E+01  1.0636328630E+01
                       0.0000000000E+00  5.3837350835E-22  5.6308254923E-22
            xcart7     5.2659496007E+00  5.0223706049E+00  5.2659496007E+00
                       1.5797848802E+01  1.5067111815E+01  1.5797848802E+01
                       1.0531899201E+01  1.5208362649E+01  1.0531899201E+01
                       1.0531899201E+01  1.0044741210E+01  5.3509816607E+00
                       1.0531899201E+01  1.0044741210E+01  1.5712816742E+01
                       1.0531899201E+01  4.8811197710E+00  1.0531899201E+01
                       1.5712816742E+01  1.0044741210E+01  1.0531899201E+01
                       5.3509816607E+00  1.0044741210E+01  1.0531899201E+01
                       0.0000000000E+00  0.0000000000E+00  0.0000000000E+00
            xcart8     5.2145640748E+00  4.9583910252E+00  5.2145640748E+00
                       1.5643692224E+01  1.4875173076E+01  1.5643692224E+01
                       1.0429128149E+01  1.4963902597E+01  1.0429128149E+01
                       1.0429128149E+01  9.9167820505E+00  5.3300733856E+00
                       1.0429128150E+01  9.9167820505E+00  1.5528182914E+01
                       1.0429128150E+01  4.8696615044E+00  1.0429128150E+01
                       1.5528182914E+01  9.9167820505E+00  1.0429128150E+01
                       5.3300733856E+00  9.9167820505E+00  1.0429128149E+01
                       5.5211344710E-22  1.0499801409E-21  5.5211344710E-22
            xcart9     5.1629446312E+00  4.8948856327E+00  5.1629446312E+00
                       1.5488833894E+01  1.4684656898E+01  1.5488833894E+01
                       1.0325889262E+01  1.4723651033E+01  1.0325889262E+01
                       1.0325889262E+01  9.7897712654E+00  5.3063385186E+00
                       1.0325889263E+01  9.7897712654E+00  1.5345440006E+01
                       1.0325889263E+01  4.8558914981E+00  1.0325889263E+01
                       1.5345440006E+01  9.7897712654E+00  1.0325889263E+01
                       5.3063385186E+00  9.7897712654E+00  1.0325889262E+01
                       0.0000000000E+00  0.0000000000E+00  0.0000000000E+00
            xcart10    5.1105698080E+00  4.8328374242E+00  5.1105698080E+00
                       1.5331709424E+01  1.4498512272E+01  1.5331709424E+01
                       1.0221139616E+01  1.4491352465E+01  1.0221139616E+01
                       1.0221139616E+01  9.6656748483E+00  5.2801017993E+00
                       1.0221139616E+01  9.6656748483E+00  1.5162177433E+01
                       1.0221139616E+01  4.8399972311E+00  1.0221139616E+01
                       1.5162177433E+01  9.6656748483E+00  1.0221139616E+01
                       5.2801017993E+00  9.6656748483E+00  1.0221139616E+01
                       0.0000000000E+00  0.0000000000E+00  0.0000000000E+00
             xred1     2.4999760019E-01  2.5000239981E-01  2.4999760019E-01
                       7.4999760019E-01  7.5000239981E-01  7.4999760019E-01
                       7.7184914423E-01  2.2815085577E-01  7.7184914423E-01
                       2.4319259316E-01  2.4319006684E-01  7.5680993316E-01
                       7.5680993316E-01  7.5680740684E-01  2.4319259316E-01
                       2.2815277937E-01  7.7184722063E-01  2.2815277937E-01
                       2.4319259316E-01  7.5680740684E-01  7.5680993316E-01
                       7.5680993316E-01  2.4319006684E-01  2.4319259316E-01
                       1.0233862266E-06 -1.0233862266E-06  1.0233862266E-06
             xred2     2.5000000000E-01  2.5000000000E-01  2.5000000000E-01
                       7.5000000000E-01  7.5000000000E-01  7.5000000000E-01
                       7.6955919404E-01  2.3044080595E-01  7.6955919404E-01
                       2.4520259732E-01  2.4520259731E-01  7.5479740268E-01
                       7.5479740268E-01  7.5479740269E-01  2.4520259732E-01
                       2.3044080596E-01  7.6955919404E-01  2.3044080595E-01
                       2.4520259732E-01  7.5479740269E-01  7.5479740268E-01
                       7.5479740268E-01  2.4520259731E-01  2.4520259732E-01
                       1.3234889801E-23 -1.3234889801E-23  1.3234889801E-23
             xred3     2.5000000000E-01  2.5000000000E-01  2.5000000000E-01
                       7.5000000000E-01  7.5000000000E-01  7.5000000000E-01
                       7.6711790410E-01  2.3288209590E-01  7.6711790410E-01
                       2.4711847684E-01  2.4711847683E-01  7.5288152317E-01
                       7.5288152317E-01  7.5288152316E-01  2.4711847683E-01
                       2.3288209590E-01  7.6711790410E-01  2.3288209590E-01
                       2.4711847683E-01  7.5288152316E-01  7.5288152317E-01
                       7.5288152317E-01  2.4711847683E-01  2.4711847683E-01
                       6.6174449004E-24  0.0000000000E+00  6.6174449004E-24
             xred4     2.5000000000E-01  2.5000000000E-01  2.5000000000E-01
                       7.5000000000E-01  7.5000000000E-01  7.5000000000E-01
                       7.6471834111E-01  2.3528165889E-01  7.6471834111E-01
                       2.4901528377E-01  2.4901528377E-01  7.5098471623E-01
                       7.5098471623E-01  7.5098471623E-01  2.4901528377E-01
                       2.3528165889E-01  7.6471834111E-01  2.3528165889E-01
                       2.4901528377E-01  7.5098471623E-01  7.5098471623E-01
                       7.5098471623E-01  2.4901528377E-01  2.4901528377E-01
                       0.0000000000E+00 -2.6469779602E-23  0.0000000000E+00
             xred5     2.5000000000E-01  2.5000000000E-01  2.5000000000E-01
                       7.5000000000E-01  7.5000000000E-01  7.5000000000E-01
                       7.6208633711E-01  2.3791366289E-01  7.6208633711E-01
                       2.5073719242E-01  2.5073719242E-01  7.4926280758E-01
                       7.4926280758E-01  7.4926280758E-01  2.5073719242E-01
                       2.3791366289E-01  7.6208633711E-01  2.3791366289E-01
                       2.5073719242E-01  7.4926280758E-01  7.4926280758E-01
                       7.4926280758E-01  2.5073719242E-01  2.5073719242E-01
                       5.2939559203E-23  0.0000000000E+00  0.0000000000E+00
             xred6     2.5000000000E-01  2.5000000000E-01  2.5000000000E-01
                       7.5000000000E-01  7.5000000000E-01  7.5000000000E-01
                       7.5955755580E-01  2.4044244420E-01  7.5955755580E-01
                       2.5242803940E-01  2.5242803940E-01  7.4757196060E-01
                       7.4757196060E-01  7.4757196060E-01  2.5242803940E-01
                       2.4044244420E-01  7.5955755580E-01  2.4044244420E-01
                       2.5242803940E-01  7.4757196060E-01  7.4757196060E-01
                       7.4757196060E-01  2.5242803940E-01  2.5242803940E-01
                       5.2939559203E-23  0.0000000000E+00  0.0000000000E+00
             xred7     2.5000000000E-01  2.5000000000E-01  2.5000000000E-01
                       7.5000000000E-01  7.5000000000E-01  7.5000000000E-01
                       7.5703108378E-01  2.4296891622E-01  7.5703108378E-01
                       2.5403688159E-01  2.5403688159E-01  7.4596311841E-01
                       7.4596311841E-01  7.4596311841E-01  2.5403688159E-01
                       2.4296891623E-01  7.5703108378E-01  2.4296891623E-01
                       2.5403688159E-01  7.4596311841E-01  7.4596311841E-01
                       7.4596311841E-01  2.5403688159E-01  2.5403688159E-01
                       0.0000000000E+00  0.0000000000E+00  0.0000000000E+00
             xred8     2.5000000000E-01  2.5000000000E-01  2.5000000000E-01
                       7.5000000000E-01  7.5000000000E-01  7.5000000000E-01
                       7.5447370530E-01  2.4552629470E-01  7.5447370530E-01
                       2.5553782201E-01  2.5553782201E-01  7.4446217799E-01
                       7.4446217799E-01  7.4446217799E-01  2.5553782201E-01
                       2.4552629470E-01  7.5447370530E-01  2.4552629470E-01
                       2.5553782201E-01  7.4446217799E-01  7.4446217799E-01
                       7.4446217799E-01  2.5553782201E-01  2.5553782201E-01
                       5.2939559203E-23  0.0000000000E+00  5.2939559203E-23
             xred9     2.5000000000E-01  2.5000000000E-01  2.5000000000E-01
                       7.5000000000E-01  7.5000000000E-01  7.5000000000E-01
                       7.5199157536E-01  2.4800842463E-01  7.5199157537E-01
                       2.5694341590E-01  2.5694341590E-01  7.4305658410E-01
                       7.4305658410E-01  7.4305658410E-01  2.5694341590E-01
                       2.4800842463E-01  7.5199157537E-01  2.4800842463E-01
                       2.5694341590E-01  7.4305658410E-01  7.4305658410E-01
                       7.4305658410E-01  2.5694341590E-01  2.5694341590E-01
                       0.0000000000E+00  0.0000000000E+00  0.0000000000E+00
             xred10    2.5000000000E-01  2.5000000000E-01  2.5000000000E-01
                       7.5000000000E-01  7.5000000000E-01  7.5000000000E-01
                       7.4962962716E-01  2.5037037285E-01  7.4962962716E-01
                       2.5829320397E-01  2.5829320397E-01  7.4170679603E-01
                       7.4170679603E-01  7.4170679603E-01  2.5829320397E-01
                       2.5037037285E-01  7.4962962715E-01  2.5037037285E-01
                       2.5829320397E-01  7.4170679603E-01  7.4170679603E-01
                       7.4170679603E-01  2.5829320397E-01  2.5829320397E-01
                       0.0000000000E+00  0.0000000000E+00  0.0000000000E+00
            znucl       55.00000   53.00000   72.00000   35.00000

================================================================================

 chkinp: Checking input parameters for consistency, jdtset=   1.

 chkinp: Checking input parameters for consistency, jdtset=   2.

 chkinp: Checking input parameters for consistency, jdtset=   3.

 chkinp: Checking input parameters for consistency, jdtset=   4.

 chkinp: Checking input parameters for consistency, jdtset=   5.

 chkinp: Checking input parameters for consistency, jdtset=   6.

 chkinp: Checking input parameters for consistency, jdtset=   7.

 chkinp: Checking input parameters for consistency, jdtset=   8.

 chkinp: Checking input parameters for consistency, jdtset=   9.

 chkinp: Checking input parameters for consistency, jdtset=  10.

================================================================================
== DATASET  1 ==================================================================
-   mpi_nproc: 6, omp_nthreads: -1 (-1 if OMP is not activated)


--- !DatasetInfo
iteration_state: {dtset: 1, }
dimensions: {natom: 9, nkpt: 163, mband: 42, nsppol: 1, nspinor: 1, nspden: 1, mpw: 8248, }
cutoff_energies: {ecut:  16.0, pawecutdg:  40.0, }
electrons: {nelect:   7.20000000E+01, charge:   0.00000000E+00, occopt:   1.00000000E+00, tsmear:   1.00000000E-02, }
meta: {optdriver: 0, ionmov: 0, optcell: 0, iscf: 17, paral_kgb: 0, }
...

 Real(R)+Recip(G) space primitive vectors, cartesian coordinates (Bohr,Bohr^-1):
 R(1)=  0.0000000 10.7695182 11.1713666  G(1)= -0.0447573  0.0464273  0.0447573
 R(2)= 11.1713666  0.0000000 11.1713666  G(2)=  0.0447573 -0.0464273  0.0447573
 R(3)= 11.1713666 10.7695182  0.0000000  G(3)=  0.0447573  0.0464273 -0.0447573
 Unit cell volume ucvol=  2.6880595E+03 bohr^3
 Angles (23,13,12)=  5.93979541E+01  6.12040918E+01  5.93979541E+01 degrees

 Coarse grid specifications (used for wave-functions):

 getcut: wavevector=  0.0000  0.0000  0.0000  ngfft=  60  60  60
         ecut(hartree)=     16.000   => boxcut(ratio)=   2.10914

 Fine grid specifications (used for densities):

 getcut: wavevector=  0.0000  0.0000  0.0000  ngfft=  90  90  90
         ecut(hartree)=     40.000   => boxcut(ratio)=   2.00117

--- Pseudopotential description ------------------------------------------------
- pspini: atom type   1  psp file is ../../../Psps_for_tests/ATOMICDATA/Cs.GGA_PBE-JTH.xml
- pspatm: opening atomic psp file    ../../../Psps_for_tests/ATOMICDATA/Cs.GGA_PBE-JTH.xml
- pspatm : Reading pseudopotential header in XML form from ../../../Psps_for_tests/ATOMICDATA/Cs.GGA_PBE-JTH.xml
 Pseudopotential format is: paw10
 basis_size (lnmax)=  6 (lmn_size= 18), orbitals=   0   0   1   1   2   2
 Spheres core radius: rc_sph= 2.20660278
 1 radial meshes are used:
  - mesh 1: r(i)=AA*[exp(BB*(i-1))-1], size=1500 , AA= 0.15922E-03 BB= 0.87573E-02
 Shapefunction is SIN type: shapef(r)=[sin(pi*r/rshp)/(pi*r/rshp)]**2
 Radius for shape functions =  2.00394208
 mmax= 1500
 Radial grid used for partial waves is grid 1
 Radial grid used for projectors is grid 1
 Radial grid used for (t)core density is grid 1
 Radial grid used for Vloc is grid 1
 Radial grid used for pseudo valence density is grid 1
 Mesh size for Vloc has been set to 1341 to avoid numerical noise.
 Compensation charge density is not taken into account in XC energy/potential
 pspatm: atomic psp has been read  and splines computed

- pspini: atom type   2  psp file is ../../../Psps_for_tests/ATOMICDATA/I.GGA_PBE-JTH.xml
- pspatm: opening atomic psp file    ../../../Psps_for_tests/ATOMICDATA/I.GGA_PBE-JTH.xml
- pspatm : Reading pseudopotential header in XML form from ../../../Psps_for_tests/ATOMICDATA/I.GGA_PBE-JTH.xml
 Pseudopotential format is: paw10
 basis_size (lnmax)=  4 (lmn_size=  8), orbitals=   0   0   1   1
 Spheres core radius: rc_sph= 2.30022271
 1 radial meshes are used:
  - mesh 1: r(i)=AA*[exp(BB*(i-1))-1], size=2000 , AA= 0.12610E-03 BB= 0.66836E-02
 Shapefunction is SIN type: shapef(r)=[sin(pi*r/rshp)/(pi*r/rshp)]**2
 Radius for shape functions =  2.10879093
 mmax= 2000
 Radial grid used for partial waves is grid 1
 Radial grid used for projectors is grid 1
 Radial grid used for (t)core density is grid 1
 Radial grid used for Vloc is grid 1
 Radial grid used for pseudo valence density is grid 1
 Mesh size for Vloc has been set to 1792 to avoid numerical noise.
 Compensation charge density is not taken into account in XC energy/potential
 pspatm: atomic psp has been read  and splines computed

- pspini: atom type   3  psp file is ../../../Psps_for_tests/ATOMICDATA/Hf.GGA_PBE-JTH.xml
- pspatm: opening atomic psp file    ../../../Psps_for_tests/ATOMICDATA/Hf.GGA_PBE-JTH.xml
- pspatm : Reading pseudopotential header in XML form from ../../../Psps_for_tests/ATOMICDATA/Hf.GGA_PBE-JTH.xml
 Pseudopotential format is: paw10
 basis_size (lnmax)=  6 (lmn_size= 18), orbitals=   0   0   1   1   2   2
 Spheres core radius: rc_sph= 2.41000000
 1 radial meshes are used:
  - mesh 1: r(i)=AA*[exp(BB*(i-1))-1], size= 972 , AA= 0.19796E-03 BB= 0.14253E-01
 Shapefunction is SIN type: shapef(r)=[sin(pi*r/rshp)/(pi*r/rshp)]**2
 Radius for shape functions =  2.41000000
 mmax=  972
 Radial grid used for partial waves is grid 1
 Radial grid used for projectors is grid 1
 Radial grid used for (t)core density is grid 1
 Radial grid used for Vloc is grid 1
 Radial grid used for pseudo valence density is grid 1
 Mesh size for Vloc has been set to  809 to avoid numerical noise.
 Compensation charge density is not taken into account in XC energy/potential
 pspatm: atomic psp has been read  and splines computed

- pspini: atom type   4  psp file is ../../../Psps_for_tests/ATOMICDATA/Br.GGA_PBE-JTH.xml
- pspatm: opening atomic psp file    ../../../Psps_for_tests/ATOMICDATA/Br.GGA_PBE-JTH.xml
- pspatm : Reading pseudopotential header in XML form from ../../../Psps_for_tests/ATOMICDATA/Br.GGA_PBE-JTH.xml
 Pseudopotential format is: paw10
 basis_size (lnmax)=  4 (lmn_size=  8), orbitals=   0   0   1   1
 Spheres core radius: rc_sph= 2.20000000
 1 radial meshes are used:
  - mesh 1: r(i)=AA*[exp(BB*(i-1))-1], size= 927 , AA= 0.40483E-03 BB= 0.14169E-01
 Shapefunction is BESSEL type: shapef(r,l)=aa(1,l)*jl(q(1,l)*r)+aa(2,l)*jl(q(2,l)*r)
 Radius for shape functions =  2.02066386
 mmax=  927
 Radial grid used for partial waves is grid 1
 Radial grid used for projectors is grid 1
 Radial grid used for (t)core density is grid 1
 Radial grid used for Vloc is grid 1
 Radial grid used for pseudo valence density is grid 1
 Mesh size for Vloc has been set to  763 to avoid numerical noise.
 Compensation charge density is not taken into account in XC energy/potential
 pspatm: atomic psp has been read  and splines computed

   4.24151776E+04                                ecore*ucvol(ha*bohr**3)
--------------------------------------------------------------------------------

_setup2: Arith. and geom. avg. npw (full set) are    8216.984    8216.974

================================================================================

--- !BeginCycle
iteration_state: {dtset: 1, }
solver: {iscf: 17, nstep: 2500, nline: 4, wfoptalg: 10, }
tolerances: {toldfe: 1.00E-08, }
...

     iter   Etot(hartree)      deltaE(h)  residm     nres2
 ETOT  1  -163.73214759773    -1.637E+02 9.426E+00 5.202E+00
 ETOT  2  -165.27441828529    -1.542E+00 2.475E-02 1.780E+00
 ETOT  3  -165.26669947960     7.719E-03 2.019E-02 3.460E-01
 ETOT  4  -165.26723349072    -5.340E-04 5.922E-03 8.182E-02
 ETOT  5  -165.26715895469     7.454E-05 4.967E-03 9.096E-03
 ETOT  6  -165.26723822694    -7.927E-05 5.258E-03 9.809E-04
 ETOT  7  -165.26724859462    -1.037E-05 1.347E-03 3.274E-04
 ETOT  8  -165.26725293056    -4.336E-06 1.570E-03 3.894E-05
 ETOT  9  -165.26725303502    -1.045E-07 8.524E-04 7.842E-06
 ETOT 10  -165.26725309246    -5.744E-08 9.631E-04 1.938E-06
 ETOT 11  -165.26725309407    -1.618E-09 5.400E-04 5.090E-07
 ETOT 12  -165.26725309356     5.093E-10 9.259E-04 2.349E-08

 At SCF step   12, etot is converged : 
  for the second time, diff in etot=  5.093E-10 < toldfe=  1.000E-08

 Cartesian components of stress tensor (hartree/bohr^3)
  sigma(1 1)= -3.94654477E-06  sigma(3 2)=  7.93438315E-14
  sigma(2 2)= -4.01956404E-06  sigma(3 1)= -1.52982775E-13
  sigma(3 3)= -3.94654477E-06  sigma(2 1)=  7.93444538E-14


--- !ResultsGS
iteration_state: {dtset: 1, }
comment   : Summary of ground state results
lattice_vectors:
- [  0.0000000,  10.7695182,  11.1713666, ]
- [ 11.1713666,   0.0000000,  11.1713666, ]
- [ 11.1713666,  10.7695182,   0.0000000, ]
lattice_lengths: [  15.51715,   15.79870,   15.51715, ]
lattice_angles: [ 59.398,  61.204,  59.398, ] # degrees, (23, 13, 12)
lattice_volume:   2.6880595E+03
convergence: {deltae:  5.093E-10, res2:  2.349E-08, residm:  9.259E-04, diffor: null, }
etotal    :  -1.65267253E+02
entropy   :   0.00000000E+00
fermie    :  -1.14412135E-01
cartesian_stress_tensor: # hartree/bohr^3
- [ -3.94654477E-06,   7.93444538E-14,  -1.52982775E-13, ]
- [  7.93444538E-14,  -4.01956404E-06,   7.93438315E-14, ]
- [ -1.52982775E-13,   7.93438315E-14,  -3.94654477E-06, ]
pressure_GPa:   1.1683E-01
xred      :
- [  2.5000E-01,   2.5000E-01,   2.5000E-01, Cs]
- [  7.5000E-01,   7.5000E-01,   7.5000E-01, Cs]
- [  7.7185E-01,   2.2815E-01,   7.7185E-01, Br]
- [  2.4319E-01,   2.4319E-01,   7.5681E-01,  I]
- [  7.5681E-01,   7.5681E-01,   2.4319E-01,  I]
- [  2.2815E-01,   7.7185E-01,   2.2815E-01, Br]
- [  2.4319E-01,   7.5681E-01,   7.5681E-01,  I]
- [  7.5681E-01,   2.4319E-01,   2.4319E-01,  I]
- [  1.0234E-06,  -1.0234E-06,   1.0234E-06, Hf]
cartesian_forces: # hartree/bohr
- [  7.54677386E-22,   4.37665649E-09,   1.35935600E-22, ]
- [  7.54677386E-22,   4.37665649E-09,   1.35935600E-22, ]
- [  7.08985139E-22,   2.12745913E-06,   1.81627847E-22, ]
- [  4.33884412E-16,  -5.47628970E-07,  -3.32748528E-05, ]
- [ -4.33881943E-16,  -5.47628970E-07,   3.32748528E-05, ]
- [  7.55115363E-22,   3.57675741E-07,   1.35497623E-22, ]
- [  3.32748528E-05,  -5.47628970E-07,  -4.33887045E-16, ]
- [ -3.32748528E-05,  -5.47628970E-07,   4.33886084E-16, ]
- [  7.54056501E-22,  -3.03372308E-07,   1.36556485E-22, ]
force_length_stats: {min:   4.37665649E-09, max:   3.32793589E-05, mean:   1.51016329E-05, }
...

 Integrated electronic density in atomic spheres:
 ------------------------------------------------
 Atom  Sphere_radius  Integrated_density
    1        2.20660          5.35066371
    2        2.20660          5.35066371
    3        2.20000          4.92211176
    4        2.30022          4.02013575
    5        2.30022          4.02013575
    6        2.20000          4.92210722
    7        2.30022          4.02013575
    8        2.30022          4.02013575
    9        2.41000          9.26031016

 PAW TEST:
 ==== Compensation charge inside spheres ============
 The following values must be close to each other ...
 Compensation charge over spherical meshes =     -0.481087681996285
 Compensation charge over fine fft grid    =     -0.481082829142213

 ==== Results concerning PAW augmentation regions ====

 Total pseudopotential strength Dij (hartree):
 Atom #  1
   0.44719  -0.14804   0.00000   0.00000   0.00000  -0.00000   0.00000   0.00000   0.00000   0.00000   0.00000  -0.00000 ...
  -0.14804   0.04466  -0.00000   0.00000   0.00000   0.00000   0.00000   0.00000   0.00000   0.00000  -0.00000   0.00000 ...
   0.00000  -0.00000  -0.09443   0.00000   0.00000  -0.16604   0.00000   0.00000   0.00000   0.00000  -0.00000  -0.00000 ...
   0.00000   0.00000   0.00000  -0.09443   0.00000   0.00000  -0.16604   0.00000  -0.00000   0.00000   0.00000   0.00000 ...
   0.00000   0.00000   0.00000   0.00000  -0.09443   0.00000   0.00000  -0.16604   0.00000  -0.00000   0.00000   0.00000 ...
  -0.00000   0.00000  -0.16604   0.00000   0.00000   0.40609   0.00000   0.00000   0.00000   0.00000   0.00000   0.00000 ...
   0.00000   0.00000   0.00000  -0.16604   0.00000   0.00000   0.40610  -0.00000   0.00000  -0.00000   0.00000   0.00000 ...
   0.00000   0.00000   0.00000   0.00000  -0.16604   0.00000  -0.00000   0.40610  -0.00000   0.00000   0.00000   0.00000 ...
   0.00000   0.00000   0.00000  -0.00000   0.00000   0.00000   0.00000  -0.00000   0.00510   0.00000   0.00000   0.00000 ...
   0.00000   0.00000   0.00000   0.00000  -0.00000   0.00000  -0.00000   0.00000   0.00000   0.00510   0.00000   0.00000 ...
   0.00000  -0.00000  -0.00000   0.00000   0.00000   0.00000   0.00000   0.00000   0.00000   0.00000   0.00511   0.00000 ...
  -0.00000   0.00000  -0.00000   0.00000   0.00000   0.00000   0.00000   0.00000   0.00000   0.00000   0.00000   0.00510 ...
   ...  only 12  components have been written...
 Atom #  9
  -3.52922   0.43213   0.00000   0.00000   0.00000  -0.00000   0.00000   0.00000   0.00000   0.00000  -0.00013   0.00000 ...
   0.43213   0.00207  -0.00000   0.00000   0.00000   0.00000   0.00000   0.00000   0.00000   0.00000   0.00002   0.00000 ...
   0.00000  -0.00000  -1.47300   0.00000   0.00000   0.12684   0.00000   0.00000   0.00000   0.00000  -0.00000   0.00000 ...
   0.00000   0.00000   0.00000  -1.47390   0.00000   0.00000   0.12699   0.00000   0.00000   0.00000   0.00000   0.00000 ...
   0.00000   0.00000   0.00000   0.00000  -1.47390   0.00000   0.00000   0.12699   0.00000   0.00000   0.00000   0.00000 ...
  -0.00000   0.00000   0.12684   0.00000   0.00000   0.01281   0.00000   0.00000   0.00000   0.00000   0.00000   0.00000 ...
   0.00000   0.00000   0.00000   0.12699   0.00000   0.00000   0.01279   0.00000   0.00000  -0.00000   0.00000   0.00000 ...
   0.00000   0.00000   0.00000   0.00000   0.12699   0.00000   0.00000   0.01279  -0.00000   0.00000   0.00000   0.00000 ...
   0.00000   0.00000   0.00000   0.00000   0.00000   0.00000   0.00000  -0.00000  -0.39734   0.00000   0.00000   0.00000 ...
   0.00000   0.00000   0.00000   0.00000   0.00000   0.00000  -0.00000   0.00000   0.00000  -0.39734   0.00000   0.00000 ...
  -0.00013   0.00002  -0.00000   0.00000   0.00000   0.00000   0.00000   0.00000   0.00000   0.00000  -0.39676   0.00000 ...
   0.00000   0.00000   0.00000   0.00000   0.00000   0.00000   0.00000   0.00000   0.00000   0.00000   0.00000  -0.39752 ...
   ...  only 12  components have been written...


 Augmentation waves occupancies Rhoij:
 Atom #  1
   1.99702  -0.01634   0.00000   0.00000   0.00000   0.00000   0.00000   0.00000   0.00000   0.00000   0.00077  -0.00000 ...
  -0.01634   0.12997   0.00000   0.00000   0.00000  -0.00000   0.00000   0.00000   0.00000   0.00000  -0.00740   0.00000 ...
   0.00000   0.00000   2.00931   0.00000   0.00000  -0.00516   0.00000   0.00000   0.00000   0.00000  -0.00000   0.00050 ...
   0.00000   0.00000   0.00000   2.00790   0.00000   0.00000  -0.00488  -0.00000   0.00023   0.00000   0.00000   0.00000 ...
   0.00000   0.00000   0.00000   0.00000   2.00790   0.00000  -0.00000  -0.00488   0.00000   0.00023   0.00000   0.00000 ...
   0.00000  -0.00000  -0.00516   0.00000   0.00000   0.00010   0.00000   0.00000   0.00000   0.00000   0.00000  -0.00003 ...
   0.00000   0.00000   0.00000  -0.00488  -0.00000   0.00000   0.00008   0.00000  -0.00001  -0.00000   0.00000   0.00000 ...
   0.00000   0.00000   0.00000  -0.00000  -0.00488   0.00000   0.00000   0.00008  -0.00000  -0.00001   0.00000   0.00000 ...
   0.00000   0.00000   0.00000   0.00023   0.00000   0.00000  -0.00001  -0.00000   0.04830  -0.00000   0.00000   0.00000 ...
   0.00000   0.00000   0.00000   0.00000   0.00023   0.00000  -0.00000  -0.00001  -0.00000   0.04830   0.00000   0.00000 ...
   0.00077  -0.00740  -0.00000   0.00000   0.00000   0.00000   0.00000   0.00000   0.00000   0.00000   0.02891   0.00000 ...
  -0.00000   0.00000   0.00050   0.00000   0.00000  -0.00003   0.00000   0.00000   0.00000   0.00000   0.00000   0.02040 ...
   ...  only 12  components have been written...
 Atom #  9
   1.99782  -0.02171   0.00000   0.00000   0.00000   0.00000   0.00000   0.00000   0.00000   0.00000  -0.00087   0.00000 ...
  -0.02171   1.00062  -0.00000   0.00000   0.00000   0.00000   0.00000   0.00000   0.00000   0.00000  -0.02994   0.00000 ...
   0.00000  -0.00000   1.99191   0.00000   0.00000  -0.07022   0.00000   0.00000   0.00000   0.00000   0.00000   0.00000 ...
   0.00000   0.00000   0.00000   1.99225   0.00000   0.00000  -0.06530   0.00000   0.00000   0.00000   0.00000   0.00000 ...
   0.00000   0.00000   0.00000   0.00000   1.99225   0.00000   0.00000  -0.06530   0.00000   0.00000   0.00000   0.00000 ...
   0.00000   0.00000  -0.07022   0.00000   0.00000   1.36799   0.00000   0.00000   0.00000   0.00000  -0.00000   0.00000 ...
   0.00000   0.00000   0.00000  -0.06530   0.00000   0.00000   1.12955   0.00000   0.00000   0.00000   0.00000   0.00000 ...
   0.00000   0.00000   0.00000   0.00000  -0.06530   0.00000   0.00000   1.12955   0.00000   0.00000   0.00000   0.00000 ...
   0.00000   0.00000   0.00000   0.00000   0.00000   0.00000   0.00000   0.00000   0.46681   0.00000   0.00000   0.00000 ...
   0.00000   0.00000   0.00000   0.00000   0.00000   0.00000   0.00000   0.00000   0.00000   0.46681   0.00000   0.00000 ...
  -0.00087  -0.02994   0.00000   0.00000   0.00000  -0.00000   0.00000   0.00000   0.00000   0.00000   1.32779   0.00000 ...
   0.00000   0.00000   0.00000   0.00000   0.00000   0.00000   0.00000   0.00000   0.00000   0.00000   0.00000   0.41185 ...
   ...  only 12  components have been written...


================================================================================

 ----iterations are completed or convergence reached----

 Mean square residual over all n,k,spin=   14.215E-07; max=  92.595E-05
 reduced coordinates (array xred) for    9 atoms
       0.249997600190      0.250002399810      0.249997600190
       0.749997600190      0.750002399810      0.749997600190
       0.771849144230      0.228150855770      0.771849144230
       0.243192593160      0.243190066840      0.756809933160
       0.756809933160      0.756807406840      0.243192593160
       0.228152779370      0.771847220630      0.228152779370
       0.243192593160      0.756807406840      0.756809933160
       0.756809933160      0.243190066840      0.243192593160
       0.000001023386     -0.000001023386      0.000001023386
 rms dE/dt=  2.0248E-04; max dE/dt=  3.7502E-04; dE/dt below (all hartree)
    1      -0.000002650146      0.000000000000     -0.000002650146
    2      -0.000002650146      0.000000000000     -0.000002650146
    3      -0.000025514721      0.000000000000     -0.000025514721
    4       0.000375020267      0.000371725578      0.000003294689
    5      -0.000368430889     -0.000371725578      0.000003294689
    6      -0.000006455007      0.000000000000     -0.000006455007
    7       0.000003294689     -0.000371725578     -0.000368430889
    8       0.000003294689      0.000371725578      0.000375020267
    9       0.000000664162      0.000000000000      0.000000664162

 cartesian coordinates (angstrom) at end:
    1      2.95581628739020     2.84946442705327     2.95581628739019
    2      8.86744886217058     8.54844798707075     8.86744886217058
    3      5.91163257473848     8.79751116756067     5.91163257473848
    4      5.91163257474080     5.69899795747363     2.87531557666433
    5      5.91163257481998     5.69899795747363     8.94794957289644
    6      5.91163257482230     2.60047787760385     5.91163257482230
    7      8.94794957289644     5.69899795747363     5.91163257481998
    8      2.87531557666433     5.69899795747363     5.91163257474080
    9     -0.00000000000000     0.00001166452256    -0.00000000000000

[...]
                       8.1204571071E+00  5.1805238309E+00  5.4642252562E+00
                       2.8079934051E+00  5.1805238309E+00  5.4642252560E+00
                       0.0000000000E+00  0.0000000000E+00  0.0000000000E+00
           xangst10    2.7043970653E+00  2.5574274177E+00  2.7043970653E+00
                       8.1131911959E+00  7.6722822530E+00  8.1131911959E+00
                       5.4087941305E+00  7.6684934464E+00  5.4087941305E+00
                       5.4087941305E+00  5.1148548354E+00  2.7941095312E+00
                       5.4087941306E+00  5.1148548354E+00  8.0234787300E+00
                       5.4087941306E+00  2.5612162244E+00  5.4087941306E+00
                       8.0234787300E+00  5.1148548354E+00  5.4087941306E+00
                       2.7941095312E+00  5.1148548354E+00  5.4087941305E+00
                       0.0000000000E+00  0.0000000000E+00  0.0000000000E+00
            xcart1     5.5856832823E+00  5.3847073925E+00  5.5856832823E+00
                       1.6757049847E+01  1.6154225557E+01  1.6757049847E+01
                       1.1171366565E+01  1.6624886758E+01  1.1171366565E+01
                       1.1171366565E+01  1.0769545371E+01  5.4335589855E+00
                       1.1171366565E+01  1.0769545371E+01  1.6909174144E+01
                       1.1171366565E+01  4.9141910033E+00  1.1171366565E+01
                       1.6909174144E+01  1.0769545371E+01  1.1171366565E+01
                       5.4335589855E+00  1.0769545371E+01  1.1171366565E+01
                      -2.9815127865E-16  2.2042753113E-05 -2.9815127865E-16
            xcart2     5.5302290863E+00  5.3285039280E+00  5.5302290863E+00
                       1.6590687259E+01  1.5985511784E+01  1.6590687259E+01
                       1.1060458173E+01  1.6402396753E+01  1.1060458173E+01
                       1.1060458173E+01  1.0657007856E+01  5.4241061429E+00
                       1.1060458173E+01  1.0657007856E+01  1.6696810202E+01
                       1.1060458173E+01  4.9116189588E+00  1.1060458173E+01
                       1.6696810202E+01  1.0657007856E+01  1.1060458173E+01
                       5.4241061429E+00  1.0657007856E+01  1.1060458173E+01
                      -3.9934834482E-33  2.8208864916E-22 -3.9934834482E-33
            xcart3     5.4763928812E+00  5.2691348780E+00  5.4763928812E+00
                       1.6429178644E+01  1.5807404634E+01  1.6429178644E+01
                       1.0952785762E+01  1.6168190816E+01  1.0952785762E+01
                       1.0952785762E+01  1.0538269756E+01  5.4132714694E+00
                       1.0952785762E+01  1.0538269756E+01  1.6492300055E+01
                       1.0952785762E+01  4.9083486960E+00  1.0952785762E+01
                       1.6492300055E+01  1.0538269756E+01  1.0952785762E+01
                       5.4132714694E+00  1.0538269756E+01  1.0952785762E+01
                       7.2479456288E-23  1.3947283891E-22  7.2479456288E-23
            xcart4     5.4220504883E+00  5.2107458575E+00  5.4220504883E+00
                       1.6266151465E+01  1.5632237573E+01  1.6266151465E+01
                       1.0844100977E+01  1.5939011713E+01  1.0844100977E+01
                       1.0844100977E+01  1.0421491715E+01  5.4006937638E+00
                       1.0844100977E+01  1.0421491715E+01  1.6287508189E+01
                       1.0844100977E+01  4.9039717177E+00  1.0844100977E+01
                       1.6287508189E+01  1.0421491715E+01  1.0844100977E+01
                       5.4006937638E+00  1.0421491715E+01  1.0844100977E+01
                      -2.8704096283E-22  0.0000000000E+00 -2.8704096283E-22
            xcart5     5.3706543111E+00  5.1467103152E+00  5.3706543111E+00
                       1.6111962933E+01  1.5440130946E+01  1.6111962933E+01
                       1.0741308622E+01  1.5688950449E+01  1.0741308622E+01
                       1.0741308622E+01  1.0293420630E+01  5.3864911336E+00
                       1.0741308622E+01  1.0293420630E+01  1.6096126111E+01
                       1.0741308622E+01  4.8978908117E+00  1.0741308622E+01
                       1.6096126111E+01  1.0293420630E+01  1.0741308622E+01
                       5.3864911336E+00  1.0293420630E+01  1.0741308622E+01
                       0.0000000000E+00  5.4492915087E-22  5.6864014373E-22
            xcart6     5.3181643152E+00  5.0847940222E+00  5.3181643152E+00
                       1.5954492946E+01  1.5254382067E+01  1.5954492946E+01
                       1.0636328630E+01  1.5448774877E+01  1.0636328630E+01
                       1.0636328630E+01  1.0169588044E+01  5.3698151652E+00
                       1.0636328630E+01  1.0169588044E+01  1.5902842096E+01
                       1.0636328630E+01  4.8904012119E+00  1.0636328630E+01
                       1.5902842096E+01  1.0169588044E+01  1.0636328630E+01
                       5.3698151652E+00  1.0169588044E+01  1.0636328630E+01
                       0.0000000000E+00  5.3837350835E-22  5.6308254923E-22
            xcart7     5.2659496007E+00  5.0223706049E+00  5.2659496007E+00
                       1.5797848802E+01  1.5067111815E+01  1.5797848802E+01
                       1.0531899201E+01  1.5208362649E+01  1.0531899201E+01
                       1.0531899201E+01  1.0044741210E+01  5.3509816607E+00
                       1.0531899201E+01  1.0044741210E+01  1.5712816742E+01
                       1.0531899201E+01  4.8811197710E+00  1.0531899201E+01
                       1.5712816742E+01  1.0044741210E+01  1.0531899201E+01
                       5.3509816607E+00  1.0044741210E+01  1.0531899201E+01
                       0.0000000000E+00  0.0000000000E+00  0.0000000000E+00
            xcart8     5.2145640748E+00  4.9583910252E+00  5.2145640748E+00
                       1.5643692224E+01  1.4875173076E+01  1.5643692224E+01
                       1.0429128149E+01  1.4963902597E+01  1.0429128149E+01
                       1.0429128149E+01  9.9167820505E+00  5.3300733856E+00
                       1.0429128150E+01  9.9167820505E+00  1.5528182914E+01
                       1.0429128150E+01  4.8696615044E+00  1.0429128150E+01
                       1.5528182914E+01  9.9167820505E+00  1.0429128150E+01
                       5.3300733856E+00  9.9167820505E+00  1.0429128149E+01
                       5.5211344710E-22  1.0499801409E-21  5.5211344710E-22
            xcart9     5.1629446312E+00  4.8948856327E+00  5.1629446312E+00
                       1.5488833894E+01  1.4684656898E+01  1.5488833894E+01
                       1.0325889262E+01  1.4723651033E+01  1.0325889262E+01
                       1.0325889262E+01  9.7897712654E+00  5.3063385186E+00
                       1.0325889263E+01  9.7897712654E+00  1.5345440006E+01
                       1.0325889263E+01  4.8558914981E+00  1.0325889263E+01
                       1.5345440006E+01  9.7897712654E+00  1.0325889263E+01
                       5.3063385186E+00  9.7897712654E+00  1.0325889262E+01
                       0.0000000000E+00  0.0000000000E+00  0.0000000000E+00
            xcart10    5.1105698080E+00  4.8328374242E+00  5.1105698080E+00
                       1.5331709424E+01  1.4498512272E+01  1.5331709424E+01
                       1.0221139616E+01  1.4491352465E+01  1.0221139616E+01
                       1.0221139616E+01  9.6656748483E+00  5.2801017993E+00
                       1.0221139616E+01  9.6656748483E+00  1.5162177433E+01
                       1.0221139616E+01  4.8399972311E+00  1.0221139616E+01
                       1.5162177433E+01  9.6656748483E+00  1.0221139616E+01
                       5.2801017993E+00  9.6656748483E+00  1.0221139616E+01
                       0.0000000000E+00  0.0000000000E+00  0.0000000000E+00
             xred1     2.4999760019E-01  2.5000239981E-01  2.4999760019E-01
                       7.4999760019E-01  7.5000239981E-01  7.4999760019E-01
                       7.7184914423E-01  2.2815085577E-01  7.7184914423E-01
                       2.4319259316E-01  2.4319006684E-01  7.5680993316E-01
                       7.5680993316E-01  7.5680740684E-01  2.4319259316E-01
                       2.2815277937E-01  7.7184722063E-01  2.2815277937E-01
                       2.4319259316E-01  7.5680740684E-01  7.5680993316E-01
                       7.5680993316E-01  2.4319006684E-01  2.4319259316E-01
                       1.0233862266E-06 -1.0233862266E-06  1.0233862266E-06
             xred2     2.5000000000E-01  2.5000000000E-01  2.5000000000E-01
                       7.5000000000E-01  7.5000000000E-01  7.5000000000E-01
                       7.6955919404E-01  2.3044080595E-01  7.6955919404E-01
                       2.4520259732E-01  2.4520259731E-01  7.5479740268E-01
                       7.5479740268E-01  7.5479740269E-01  2.4520259732E-01
                       2.3044080596E-01  7.6955919404E-01  2.3044080595E-01
                       2.4520259732E-01  7.5479740269E-01  7.5479740268E-01
                       7.5479740268E-01  2.4520259731E-01  2.4520259732E-01
                       1.3234889801E-23 -1.3234889801E-23  1.3234889801E-23
             xred3     2.5000000000E-01  2.5000000000E-01  2.5000000000E-01
                       7.5000000000E-01  7.5000000000E-01  7.5000000000E-01
                       7.6711790410E-01  2.3288209590E-01  7.6711790410E-01
                       2.4711847684E-01  2.4711847683E-01  7.5288152317E-01
                       7.5288152317E-01  7.5288152316E-01  2.4711847683E-01
                       2.3288209590E-01  7.6711790410E-01  2.3288209590E-01
                       2.4711847683E-01  7.5288152316E-01  7.5288152317E-01
                       7.5288152317E-01  2.4711847683E-01  2.4711847683E-01
                       6.6174449004E-24  0.0000000000E+00  6.6174449004E-24
             xred4     2.5000000000E-01  2.5000000000E-01  2.5000000000E-01
                       7.5000000000E-01  7.5000000000E-01  7.5000000000E-01
                       7.6471834111E-01  2.3528165889E-01  7.6471834111E-01
                       2.4901528377E-01  2.4901528377E-01  7.5098471623E-01
                       7.5098471623E-01  7.5098471623E-01  2.4901528377E-01
                       2.3528165889E-01  7.6471834111E-01  2.3528165889E-01
                       2.4901528377E-01  7.5098471623E-01  7.5098471623E-01
                       7.5098471623E-01  2.4901528377E-01  2.4901528377E-01
                       0.0000000000E+00 -2.6469779602E-23  0.0000000000E+00
             xred5     2.5000000000E-01  2.5000000000E-01  2.5000000000E-01
                       7.5000000000E-01  7.5000000000E-01  7.5000000000E-01
                       7.6208633711E-01  2.3791366289E-01  7.6208633711E-01
                       2.5073719242E-01  2.5073719242E-01  7.4926280758E-01
                       7.4926280758E-01  7.4926280758E-01  2.5073719242E-01
                       2.3791366289E-01  7.6208633711E-01  2.3791366289E-01
                       2.5073719242E-01  7.4926280758E-01  7.4926280758E-01
                       7.4926280758E-01  2.5073719242E-01  2.5073719242E-01
                       5.2939559203E-23  0.0000000000E+00  0.0000000000E+00
             xred6     2.5000000000E-01  2.5000000000E-01  2.5000000000E-01
                       7.5000000000E-01  7.5000000000E-01  7.5000000000E-01
                       7.5955755580E-01  2.4044244420E-01  7.5955755580E-01
                       2.5242803940E-01  2.5242803940E-01  7.4757196060E-01
                       7.4757196060E-01  7.4757196060E-01  2.5242803940E-01
                       2.4044244420E-01  7.5955755580E-01  2.4044244420E-01
                       2.5242803940E-01  7.4757196060E-01  7.4757196060E-01
                       7.4757196060E-01  2.5242803940E-01  2.5242803940E-01
                       5.2939559203E-23  0.0000000000E+00  0.0000000000E+00
             xred7     2.5000000000E-01  2.5000000000E-01  2.5000000000E-01
                       7.5000000000E-01  7.5000000000E-01  7.5000000000E-01
                       7.5703108378E-01  2.4296891622E-01  7.5703108378E-01
                       2.5403688159E-01  2.5403688159E-01  7.4596311841E-01
                       7.4596311841E-01  7.4596311841E-01  2.5403688159E-01
                       2.4296891623E-01  7.5703108378E-01  2.4296891623E-01
                       2.5403688159E-01  7.4596311841E-01  7.4596311841E-01
                       7.4596311841E-01  2.5403688159E-01  2.5403688159E-01
                       0.0000000000E+00  0.0000000000E+00  0.0000000000E+00
             xred8     2.5000000000E-01  2.5000000000E-01  2.5000000000E-01
                       7.5000000000E-01  7.5000000000E-01  7.5000000000E-01
                       7.5447370530E-01  2.4552629470E-01  7.5447370530E-01
                       2.5553782201E-01  2.5553782201E-01  7.4446217799E-01
                       7.4446217799E-01  7.4446217799E-01  2.5553782201E-01
                       2.4552629470E-01  7.5447370530E-01  2.4552629470E-01
                       2.5553782201E-01  7.4446217799E-01  7.4446217799E-01
                       7.4446217799E-01  2.5553782201E-01  2.5553782201E-01
                       5.2939559203E-23  0.0000000000E+00  5.2939559203E-23
             xred9     2.5000000000E-01  2.5000000000E-01  2.5000000000E-01
                       7.5000000000E-01  7.5000000000E-01  7.5000000000E-01
                       7.5199157536E-01  2.4800842463E-01  7.5199157537E-01
                       2.5694341590E-01  2.5694341590E-01  7.4305658410E-01
                       7.4305658410E-01  7.4305658410E-01  2.5694341590E-01
                       2.4800842463E-01  7.5199157537E-01  2.4800842463E-01
                       2.5694341590E-01  7.4305658410E-01  7.4305658410E-01
                       7.4305658410E-01  2.5694341590E-01  2.5694341590E-01
                       0.0000000000E+00  0.0000000000E+00  0.0000000000E+00
             xred10    2.5000000000E-01  2.5000000000E-01  2.5000000000E-01
                       7.5000000000E-01  7.5000000000E-01  7.5000000000E-01
                       7.4962962716E-01  2.5037037285E-01  7.4962962716E-01
                       2.5829320397E-01  2.5829320397E-01  7.4170679603E-01
                       7.4170679603E-01  7.4170679603E-01  2.5829320397E-01
                       2.5037037285E-01  7.4962962715E-01  2.5037037285E-01
                       2.5829320397E-01  7.4170679603E-01  7.4170679603E-01
                       7.4170679603E-01  2.5829320397E-01  2.5829320397E-01
                       0.0000000000E+00  0.0000000000E+00  0.0000000000E+00
            znucl       55.00000   53.00000   72.00000   35.00000

================================================================================


- Timing analysis has been suppressed with timopt=0



================================================================================

 Suggested references for the acknowledgment of ABINIT usage.

 The users of ABINIT have little formal obligations with respect to the ABINIT group
 (those specified in the GNU General Public License, http://www.gnu.org/copyleft/gpl.txt).
 However, it is common practice in the scientific literature,
 to acknowledge the efforts of people that have made the research possible.
 In this spirit, please find below suggested citations of work written by ABINIT developers,
 corresponding to implementations inside of ABINIT that you have used in the present run.
 Note also that it will be of great value to readers of publications presenting these results,
 to read papers enabling them to understand the theoretical formalism and details
 of the ABINIT implementation.
 For information on why they are suggested, see also https://docs.abinit.org/theory/acknowledgments.
-
- [1] Implementation of the Projector Augmented-Wave Method in the ABINIT code.
- M. Torrent, F. Jollet, F. Bottin, G. Zerah, and X. Gonze Comput. Mat. Science 42, 337, (2008).
- Comment: PAW calculations. Strong suggestion to cite this paper.
- DOI and bibtex: see https://docs.abinit.org/theory/bibliography/#torrent2008
-
- [2] Libxc: A library of exchange and correlation functionals for density functional theory.
- M.A.L. Marques, M.J.T. Oliveira, T. Burnus, Computer Physics Communications 183, 2227 (2012).
- Comment: to be cited when LibXC is used (negative value of ixc)
- Strong suggestion to cite this paper.
- DOI and bibtex: see https://docs.abinit.org/theory/bibliography/#marques2012
-
- [3] The Abinit project: Impact, environment and recent developments.
- Computer Phys. Comm. 248, 107042 (2020).
- X.Gonze, B. Amadon, G. Antonius, F.Arnardi, L.Baguet, J.-M.Beuken,
- J.Bieder, F.Bottin, J.Bouchet, E.Bousquet, N.Brouwer, F.Bruneval,
- G.Brunin, T.Cavignac, J.-B. Charraud, Wei Chen, M.Cote, S.Cottenier,
- J.Denier, G.Geneste, Ph.Ghosez, M.Giantomassi, Y.Gillet, O.Gingras,
- D.R.Hamann, G.Hautier, Xu He, N.Helbig, N.Holzwarth, Y.Jia, F.Jollet,
- W.Lafargue-Dit-Hauret, K.Lejaeghere, M.A.L.Marques, A.Martin, C.Martins,
- H.P.C. Miranda, F.Naccarato, K. Persson, G.Petretto, V.Planes, Y.Pouillon,
- S.Prokhorenko, F.Ricci, G.-M.Rignanese, A.H.Romero, M.M.Schmitt, M.Torrent,
- M.J.van Setten, B.Van Troeye, M.J.Verstraete, G.Zerah and J.W.Zwanzig
- Comment: the fifth generic paper describing the ABINIT project.
- Note that a version of this paper, that is not formatted for Computer Phys. Comm. 
- is available at https://www.abinit.org/sites/default/files/ABINIT20.pdf .
- The licence allows the authors to put it on the Web.
- DOI and bibtex: see https://docs.abinit.org/theory/bibliography/#gonze2020
-
- [4] ABINIT: Overview, and focus on selected capabilities
- J. Chem. Phys. 152, 124102 (2020).
- A. Romero, D.C. Allan, B. Amadon, G. Antonius, T. Applencourt, L.Baguet,
- J.Bieder, F.Bottin, J.Bouchet, E.Bousquet, F.Bruneval,
- G.Brunin, D.Caliste, M.Cote,
- J.Denier, C. Dreyer, Ph.Ghosez, M.Giantomassi, Y.Gillet, O.Gingras,
- D.R.Hamann, G.Hautier, F.Jollet, G. Jomard,
- A.Martin, 
- H.P.C. Miranda, F.Naccarato, G.Petretto, N.A. Pike, V.Planes,
- S.Prokhorenko, T. Rangel, F.Ricci, G.-M.Rignanese, M.Royo, M.Stengel, M.Torrent,
- M.J.van Setten, B.Van Troeye, M.J.Verstraete, J.Wiktor, J.W.Zwanziger, and X.Gonze.
- Comment: a global overview of ABINIT, with focus on selected capabilities .
- Note that a version of this paper, that is not formatted for J. Chem. Phys 
- is available at https://www.abinit.org/sites/default/files/ABINIT20_JPC.pdf .
- The licence allows the authors to put it on the Web.
- DOI and bibtex: see https://docs.abinit.org/theory/bibliography/#romero2020
-
- [5] Recent developments in the ABINIT software package.
- Computer Phys. Comm. 205, 106 (2016).
- X.Gonze, F.Jollet, F.Abreu Araujo, D.Adams, B.Amadon, T.Applencourt,
- C.Audouze, J.-M.Beuken, J.Bieder, A.Bokhanchuk, E.Bousquet, F.Bruneval
- D.Caliste, M.Cote, F.Dahm, F.Da Pieve, M.Delaveau, M.Di Gennaro,
- B.Dorado, C.Espejo, G.Geneste, L.Genovese, A.Gerossier, M.Giantomassi,
- Y.Gillet, D.R.Hamann, L.He, G.Jomard, J.Laflamme Janssen, S.Le Roux,
- A.Levitt, A.Lherbier, F.Liu, I.Lukacevic, A.Martin, C.Martins,
- M.J.T.Oliveira, S.Ponce, Y.Pouillon, T.Rangel, G.-M.Rignanese,
- A.H.Romero, B.Rousseau, O.Rubel, A.A.Shukri, M.Stankovski, M.Torrent,
- M.J.Van Setten, B.Van Troeye, M.J.Verstraete, D.Waroquier, J.Wiktor,
- B.Xu, A.Zhou, J.W.Zwanziger.
- Comment: the fourth generic paper describing the ABINIT project.
- Note that a version of this paper, that is not formatted for Computer Phys. Comm. 
- is available at https://www.abinit.org/sites/default/files/ABINIT16.pdf .
- The licence allows the authors to put it on the Web.
- DOI and bibtex: see https://docs.abinit.org/theory/bibliography/#gonze2016
-
- Proc.   0 individual time (sec): cpu=       7350.1  wall=       7350.3

================================================================================

 Calculation completed.
.Delivered   0 WARNINGs and   1 COMMENTs to log file.
+Overall time at end (sec) : cpu=      44100.2  wall=      44101.6
