
.Version 9.2.2 of ABINIT 
.(MPI version, prepared for a x86_64_linux_gnu9.3 computer) 

.Copyright (C) 1998-2020 ABINIT group . 
 ABINIT comes with ABSOLUTELY NO WARRANTY.
 It is free software, and you are welcome to redistribute it
 under certain conditions (GNU General Public License,
 see ~abinit/COPYING or http://www.gnu.org/copyleft/gpl.txt).

 ABINIT is a project of the Universite Catholique de Louvain,
 Corning Inc. and other collaborators, see ~abinit/doc/developers/contributors.txt .
 Please read https://docs.abinit.org/theory/acknowledgments for suggested
 acknowledgments of the ABINIT effort.
 For more information, see https://www.abinit.org .

.Starting date : Wed  7 Dec 2022.
- ( at 00h14 )
  
- The starting date is more than 2 years after the initial release
- of this version of ABINIT, namely Nov 2020.
- Note that the use beyond 3 years after the release will not be supported.
- Action: please, switch to a more recent version of ABINIT.

- input  file    -> Cs2TiI6.in
- output file    -> Cs2TiI6.out
- root for input  files -> Cs2TiI6i
- root for output files -> Cs2TiI6o

- inpspheads : Reading pseudopotential header in XML form from 
-   ../../../Psps_for_tests/ATOMICDATA/Cs.GGA_PBE-JTH.xml
- inpspheads : Reading pseudopotential header in XML form from 
-   ../../../Psps_for_tests/ATOMICDATA/I.GGA_PBE-JTH.xml
- inpspheads : Reading pseudopotential header in XML form from 
-   ../../../Psps_for_tests/ATOMICDATA/Zr.GGA_PBE-JTH.xml
- inpspheads : Reading pseudopotential header in XML form from 
-   ../../../Psps_for_tests/ATOMICDATA/Cl.GGA_PBE-JTH.xml

 DATASET    1 : space group Im m 2 (# 44); Bravais oI (body-center ortho.)
================================================================================
 Values of the parameters that define the memory need for DATASET  1.
     intxc =       0    ionmov =       2      iscf =      17    lmnmax =      18
     lnmax =       6     mgfft =      72  mpssoang =       3    mqgrid =    4233
     natom =       9  nloc_mem =       2    nspden =       1   nspinor =       1
    nsppol =       1      nsym =       4    n1xccc =       1    ntypat =       4
    occopt =       1   xclevel =       2
-    mband =          42        mffmem =           1         mkmem =           7
       mpw =       12958          nfft =      373248          nkpt =          40
Pmy_natom=         2
 PAW method is used; the additional fine FFT grid is defined by:
   mgfftf=       108    nfftf =   1259712
================================================================================
P This job should need less than                     443.661 Mbytes of memory.
  Rough estimation (10% accuracy) of disk space for files :
_ WF disk file :    332.177 Mbytes ; DEN or POT disk file :      9.613 Mbytes.
================================================================================


 DATASET    2 : space group Im m 2 (# 44); Bravais oI (body-center ortho.)
================================================================================
 Values of the parameters that define the memory need for DATASET  2.
     intxc =       0    ionmov =       2      iscf =      17    lmnmax =      18
     lnmax =       6     mgfft =      72  mpssoang =       3    mqgrid =    4233
     natom =       9  nloc_mem =       2    nspden =       1   nspinor =       1
    nsppol =       1      nsym =       4    n1xccc =       1    ntypat =       4
    occopt =       1   xclevel =       2
-    mband =          42        mffmem =           1         mkmem =           7
       mpw =       12958          nfft =      373248          nkpt =          40
Pmy_natom=         2
 PAW method is used; the additional fine FFT grid is defined by:
   mgfftf=       108    nfftf =   1259712
================================================================================
P This job should need less than                     443.661 Mbytes of memory.
  Rough estimation (10% accuracy) of disk space for files :
_ WF disk file :    332.177 Mbytes ; DEN or POT disk file :      9.613 Mbytes.
================================================================================


 DATASET    3 : space group Im m 2 (# 44); Bravais oI (body-center ortho.)
================================================================================
 Values of the parameters that define the memory need for DATASET  3.
     intxc =       0    ionmov =       2      iscf =      17    lmnmax =      18
     lnmax =       6     mgfft =      72  mpssoang =       3    mqgrid =    4233
     natom =       9  nloc_mem =       2    nspden =       1   nspinor =       1
    nsppol =       1      nsym =       4    n1xccc =       1    ntypat =       4
    occopt =       1   xclevel =       2
-    mband =          42        mffmem =           1         mkmem =           7
       mpw =       12958          nfft =      373248          nkpt =          40
Pmy_natom=         2
 PAW method is used; the additional fine FFT grid is defined by:
   mgfftf=       108    nfftf =   1259712
================================================================================
P This job should need less than                     443.661 Mbytes of memory.
  Rough estimation (10% accuracy) of disk space for files :
_ WF disk file :    332.177 Mbytes ; DEN or POT disk file :      9.613 Mbytes.
================================================================================


 DATASET    4 : space group I4/m m m (#139); Bravais tI (body-center tetrag.)
================================================================================
 Values of the parameters that define the memory need for DATASET  4.
     intxc =       0    ionmov =       2      iscf =      17    lmnmax =      18
     lnmax =       6     mgfft =      72  mpssoang =       3    mqgrid =    4216
     natom =       9  nloc_mem =       2    nspden =       1   nspinor =       1
    nsppol =       1      nsym =      16    n1xccc =       1    ntypat =       4
    occopt =       1   xclevel =       2
-    mband =          42        mffmem =           1         mkmem =           4
       mpw =       12933          nfft =      373248          nkpt =          20
Pmy_natom=         2
 PAW method is used; the additional fine FFT grid is defined by:
   mgfftf=       108    nfftf =   1259712
================================================================================
P This job should need less than                     415.597 Mbytes of memory.
  Rough estimation (10% accuracy) of disk space for files :
_ WF disk file :    165.769 Mbytes ; DEN or POT disk file :      9.613 Mbytes.
================================================================================

--------------------------------------------------------------------------------
------------- Echo of variables that govern the present computation ------------
--------------------------------------------------------------------------------
-
- outvars: echo of selected default values                                      
-   iomode0 =  0 , fftalg0 =112 , wfoptalg0 = 10
-
- outvars: echo of global parameters not present in the input file              
-  max_nthreads =    0
-
 -outvars: echo values of preprocessed input variables --------
            acell1     1.5813957748E+01  1.5803595146E+01  1.5813957748E+01 Bohr
            acell2     1.5803595132E+01  1.5813957750E+01  1.5813957750E+01 Bohr
            acell3     1.5665038632E+01  1.5813957656E+01  1.5813957656E+01 Bohr
            acell4     1.5685736562E+01  1.5685736562E+01  1.5965207074E+01 Bohr
              amu      1.32905430E+02  1.26904470E+02  9.12240000E+01
                       3.54527000E+01
           diemac      1.20000000E+01
          dilatmx      1.15000000E+00
             ecut      1.60000000E+01 Hartree
           ecutsm      5.00000000E-01 Hartree
-          fftalg         112
           ionmov           2
              ixc     -101130
           jdtset        1    2    3    4
              kpt1    -1.25000000E-01 -2.50000000E-01  0.00000000E+00
                      -2.50000000E-01 -1.25000000E-01  0.00000000E+00
                      -1.25000000E-01  5.00000000E-01  0.00000000E+00
                      -2.50000000E-01 -3.75000000E-01  0.00000000E+00
                      -1.25000000E-01 -3.75000000E-01  1.25000000E-01
                      -3.75000000E-01 -2.50000000E-01  0.00000000E+00
                      -1.25000000E-01 -2.50000000E-01  2.50000000E-01
                       5.00000000E-01 -1.25000000E-01  0.00000000E+00
                      -3.75000000E-01 -1.25000000E-01  1.25000000E-01
                      -1.25000000E-01  2.50000000E-01  0.00000000E+00
                      -2.50000000E-01  3.75000000E-01  0.00000000E+00
                      -3.75000000E-01  5.00000000E-01  0.00000000E+00
                      -2.50000000E-01  5.00000000E-01  1.25000000E-01
                       5.00000000E-01 -3.75000000E-01  0.00000000E+00
                      -2.50000000E-01 -3.75000000E-01  2.50000000E-01
                       3.75000000E-01 -2.50000000E-01  0.00000000E+00
                       5.00000000E-01 -2.50000000E-01  1.25000000E-01
                       2.50000000E-01 -1.25000000E-01  0.00000000E+00
                       3.75000000E-01 -1.25000000E-01  1.25000000E-01
                       5.00000000E-01 -1.25000000E-01  2.50000000E-01
                      -1.25000000E-01  0.00000000E+00  0.00000000E+00
                       3.75000000E-01 -3.75000000E-01  1.25000000E-01
                       2.50000000E-01 -2.50000000E-01  1.25000000E-01
                       3.75000000E-01 -2.50000000E-01  2.50000000E-01
                       0.00000000E+00 -1.25000000E-01  0.00000000E+00
                       1.25000000E-01 -1.25000000E-01  1.25000000E-01
                       2.50000000E-01 -1.25000000E-01  2.50000000E-01
                       3.75000000E-01 -1.25000000E-01  3.75000000E-01
                      -3.75000000E-01  0.00000000E+00  0.00000000E+00
                      -2.50000000E-01  0.00000000E+00  1.25000000E-01
                       2.50000000E-01  5.00000000E-01  1.25000000E-01
                       0.00000000E+00 -3.75000000E-01  0.00000000E+00
                       1.25000000E-01 -3.75000000E-01  1.25000000E-01
                       2.50000000E-01 -3.75000000E-01  2.50000000E-01
                      -2.50000000E-01 -3.75000000E-01 -2.50000000E-01
                       5.00000000E-01  0.00000000E+00  1.25000000E-01
                      -3.75000000E-01  0.00000000E+00  2.50000000E-01
                       2.50000000E-01  0.00000000E+00  1.25000000E-01
                       3.75000000E-01  0.00000000E+00  2.50000000E-01
                       5.00000000E-01  0.00000000E+00  3.75000000E-01
              kpt2    -1.25000000E-01 -2.50000000E-01  0.00000000E+00
                      -2.50000000E-01 -1.25000000E-01  0.00000000E+00
                      -1.25000000E-01  5.00000000E-01  0.00000000E+00
                      -2.50000000E-01 -3.75000000E-01  0.00000000E+00
                      -1.25000000E-01 -3.75000000E-01  1.25000000E-01
                      -3.75000000E-01 -2.50000000E-01  0.00000000E+00
                       5.00000000E-01 -1.25000000E-01  0.00000000E+00
                      -3.75000000E-01 -1.25000000E-01  1.25000000E-01
                      -2.50000000E-01 -1.25000000E-01  2.50000000E-01
                      -1.25000000E-01  2.50000000E-01  0.00000000E+00
                      -2.50000000E-01  3.75000000E-01  0.00000000E+00
                      -1.25000000E-01  3.75000000E-01  1.25000000E-01
                      -3.75000000E-01  5.00000000E-01  0.00000000E+00
                      -2.50000000E-01  5.00000000E-01  1.25000000E-01
                      -1.25000000E-01  5.00000000E-01  2.50000000E-01
                       5.00000000E-01 -3.75000000E-01  0.00000000E+00
                       3.75000000E-01 -2.50000000E-01  0.00000000E+00
                       5.00000000E-01 -2.50000000E-01  1.25000000E-01
                      -3.75000000E-01 -2.50000000E-01  2.50000000E-01
                       2.50000000E-01 -1.25000000E-01  0.00000000E+00
                      -1.25000000E-01  0.00000000E+00  0.00000000E+00
                      -1.25000000E-01  1.25000000E-01  1.25000000E-01
                      -2.50000000E-01  2.50000000E-01  1.25000000E-01
                      -1.25000000E-01  2.50000000E-01  2.50000000E-01
                      -3.75000000E-01  3.75000000E-01  1.25000000E-01
                      -2.50000000E-01  3.75000000E-01  2.50000000E-01
                      -1.25000000E-01  3.75000000E-01  3.75000000E-01
                       0.00000000E+00 -1.25000000E-01  0.00000000E+00
                      -3.75000000E-01  0.00000000E+00  0.00000000E+00
                      -3.75000000E-01  1.25000000E-01  1.25000000E-01
                       5.00000000E-01  2.50000000E-01  1.25000000E-01
                      -3.75000000E-01  2.50000000E-01  2.50000000E-01
                       0.00000000E+00 -3.75000000E-01  0.00000000E+00
                       0.00000000E+00 -2.50000000E-01  1.25000000E-01
                      -3.75000000E-01 -2.50000000E-01 -2.50000000E-01
                       0.00000000E+00  5.00000000E-01  1.25000000E-01
                       0.00000000E+00 -3.75000000E-01  2.50000000E-01
                       0.00000000E+00  2.50000000E-01  1.25000000E-01
                       0.00000000E+00  3.75000000E-01  2.50000000E-01
                       0.00000000E+00  5.00000000E-01  3.75000000E-01
              kpt3    -1.25000000E-01 -2.50000000E-01  0.00000000E+00
                      -2.50000000E-01 -1.25000000E-01  0.00000000E+00
                      -1.25000000E-01  5.00000000E-01  0.00000000E+00
                      -2.50000000E-01 -3.75000000E-01  0.00000000E+00
                      -1.25000000E-01 -3.75000000E-01  1.25000000E-01
                      -3.75000000E-01 -2.50000000E-01  0.00000000E+00
                       5.00000000E-01 -1.25000000E-01  0.00000000E+00
                      -3.75000000E-01 -1.25000000E-01  1.25000000E-01
                      -2.50000000E-01 -1.25000000E-01  2.50000000E-01
                      -1.25000000E-01  2.50000000E-01  0.00000000E+00
                      -2.50000000E-01  3.75000000E-01  0.00000000E+00
                      -1.25000000E-01  3.75000000E-01  1.25000000E-01
                      -3.75000000E-01  5.00000000E-01  0.00000000E+00
                      -2.50000000E-01  5.00000000E-01  1.25000000E-01
                      -1.25000000E-01  5.00000000E-01  2.50000000E-01
                       5.00000000E-01 -3.75000000E-01  0.00000000E+00
                       3.75000000E-01 -2.50000000E-01  0.00000000E+00
                       5.00000000E-01 -2.50000000E-01  1.25000000E-01
                      -3.75000000E-01 -2.50000000E-01  2.50000000E-01
                       2.50000000E-01 -1.25000000E-01  0.00000000E+00
                      -1.25000000E-01  0.00000000E+00  0.00000000E+00
                      -1.25000000E-01  1.25000000E-01  1.25000000E-01
                      -2.50000000E-01  2.50000000E-01  1.25000000E-01
                      -1.25000000E-01  2.50000000E-01  2.50000000E-01
                      -3.75000000E-01  3.75000000E-01  1.25000000E-01
                      -2.50000000E-01  3.75000000E-01  2.50000000E-01
                      -1.25000000E-01  3.75000000E-01  3.75000000E-01
                       0.00000000E+00 -1.25000000E-01  0.00000000E+00
                      -3.75000000E-01  0.00000000E+00  0.00000000E+00
                      -3.75000000E-01  1.25000000E-01  1.25000000E-01
                       5.00000000E-01  2.50000000E-01  1.25000000E-01
                      -3.75000000E-01  2.50000000E-01  2.50000000E-01
                       0.00000000E+00 -3.75000000E-01  0.00000000E+00
                       0.00000000E+00 -2.50000000E-01  1.25000000E-01
                      -3.75000000E-01 -2.50000000E-01 -2.50000000E-01
                       0.00000000E+00  5.00000000E-01  1.25000000E-01
                       0.00000000E+00 -3.75000000E-01  2.50000000E-01
                       0.00000000E+00  2.50000000E-01  1.25000000E-01
                       0.00000000E+00  3.75000000E-01  2.50000000E-01
                       0.00000000E+00  5.00000000E-01  3.75000000E-01
              kpt4    -1.25000000E-01 -2.50000000E-01  0.00000000E+00
                      -1.25000000E-01  5.00000000E-01  0.00000000E+00
                      -2.50000000E-01 -3.75000000E-01  0.00000000E+00
                      -1.25000000E-01 -3.75000000E-01  1.25000000E-01
                      -1.25000000E-01  2.50000000E-01  0.00000000E+00
                      -2.50000000E-01  3.75000000E-01  0.00000000E+00
                      -1.25000000E-01  3.75000000E-01  1.25000000E-01
                      -3.75000000E-01  5.00000000E-01  0.00000000E+00
                      -2.50000000E-01  5.00000000E-01  1.25000000E-01
                      -1.25000000E-01  5.00000000E-01  2.50000000E-01
                      -1.25000000E-01  0.00000000E+00  0.00000000E+00
                      -1.25000000E-01  1.25000000E-01  1.25000000E-01
                      -1.25000000E-01  2.50000000E-01  2.50000000E-01
                      -1.25000000E-01  3.75000000E-01  3.75000000E-01
                      -3.75000000E-01  0.00000000E+00  0.00000000E+00
                      -2.50000000E-01  0.00000000E+00  1.25000000E-01
                      -3.75000000E-01  1.25000000E-01  1.25000000E-01
                      -2.50000000E-01  1.25000000E-01  2.50000000E-01
                      -3.75000000E-01  2.50000000E-01  2.50000000E-01
                      -2.50000000E-01  2.50000000E-01  3.75000000E-01
         kptrlatt        4   -4    4     -4    4    4     -4   -4    4
          kptrlen1     8.90075997E+01
          kptrlen2     8.90075996E+01
          kptrlen3     8.90076004E+01
          kptrlen4     8.71223188E+01
P           mkmem1          7
P           mkmem2          7
P           mkmem3          7
P           mkmem4          4
            natom           9
            nband1         42
            nband2         42
            nband3         42
            nband4         42
           ndtset           4
            ngfft          72      72      72
          ngfftdg         108     108     108
             nkpt1         40
             nkpt2         40
             nkpt3         40
             nkpt4         20
            nstep        2500
             nsym1          4
             nsym2          4
             nsym3          4
             nsym4         16
            ntime        1000
           ntypat           4
              occ1     2.000000  2.000000  2.000000  2.000000  2.000000  2.000000
                       2.000000  2.000000  2.000000  2.000000  2.000000  2.000000
                       2.000000  2.000000  2.000000  2.000000  2.000000  2.000000
                       2.000000  2.000000  2.000000  2.000000  2.000000  2.000000
                       2.000000  2.000000  2.000000  2.000000  2.000000  2.000000
                       2.000000  2.000000  2.000000  2.000000  2.000000  2.000000
                       0.000000  0.000000  0.000000  0.000000  0.000000  0.000000
              occ2     2.000000  2.000000  2.000000  2.000000  2.000000  2.000000
                       2.000000  2.000000  2.000000  2.000000  2.000000  2.000000
                       2.000000  2.000000  2.000000  2.000000  2.000000  2.000000
                       2.000000  2.000000  2.000000  2.000000  2.000000  2.000000
                       2.000000  2.000000  2.000000  2.000000  2.000000  2.000000
                       2.000000  2.000000  2.000000  2.000000  2.000000  2.000000
                       0.000000  0.000000  0.000000  0.000000  0.000000  0.000000
              occ3     2.000000  2.000000  2.000000  2.000000  2.000000  2.000000
                       2.000000  2.000000  2.000000  2.000000  2.000000  2.000000
                       2.000000  2.000000  2.000000  2.000000  2.000000  2.000000
                       2.000000  2.000000  2.000000  2.000000  2.000000  2.000000
                       2.000000  2.000000  2.000000  2.000000  2.000000  2.000000
                       2.000000  2.000000  2.000000  2.000000  2.000000  2.000000
                       0.000000  0.000000  0.000000  0.000000  0.000000  0.000000
              occ4     2.000000  2.000000  2.000000  2.000000  2.000000  2.000000
                       2.000000  2.000000  2.000000  2.000000  2.000000  2.000000
                       2.000000  2.000000  2.000000  2.000000  2.000000  2.000000
                       2.000000  2.000000  2.000000  2.000000  2.000000  2.000000
                       2.000000  2.000000  2.000000  2.000000  2.000000  2.000000
                       2.000000  2.000000  2.000000  2.000000  2.000000  2.000000
                       0.000000  0.000000  0.000000  0.000000  0.000000  0.000000
          optcell           2
        optforces           1
        pawecutdg      4.00000000E+01 Hartree
            prtwf           0
            rprim1     3.0977181240E-03  7.1064325779E-01  7.0354570875E-01
                       7.0710678119E-01  0.0000000000E+00  7.0710678119E-01
                       7.0354570875E-01  7.1064325779E-01  3.0977181240E-03
            rprim2     0.0000000000E+00  7.0710678119E-01  7.0710678119E-01
                       7.1064325815E-01  3.0977177192E-03  7.0354570838E-01
                       7.1064325815E-01  7.0354570838E-01  3.0977177192E-03
            rprim3     0.0000000000E+00  7.0710678119E-01  7.0710678119E-01
                       7.1064324792E-01 -3.0977167109E-03  7.0354571873E-01
                       7.1064324792E-01  7.0354571873E-01 -3.0977167109E-03
            rprim4     0.0000000000E+00  7.1970520099E-01  6.9427978774E-01
                       7.1970520099E-01  0.0000000000E+00  6.9427978774E-01
                       7.0710678119E-01  7.0710678119E-01  0.0000000000E+00
           shiftk      5.00000000E-01  5.00000000E-01  5.00000000E-01
          spgroup1         44
          spgroup2         44
          spgroup3         44
          spgroup4        139
           symafm1       1    1    1    1
           symafm2       1    1    1    1
           symafm3       1    1    1    1
           symafm4       1    1    1    1    1    1    1    1    1    1
                         1    1    1    1    1    1
           symrel1     1  0  0   0  1  0   0  0  1       1 -1  0   0 -1  0   0 -1  1
                       0  0 -1   0 -1  0  -1  0  0       0  1 -1   0  1  0  -1  1  0
           symrel2     1  0  0   0  1  0   0  0  1       1  0  0   1  0 -1   1 -1  0
                      -1  0  0   0  0 -1   0 -1  0      -1  0  0  -1  1  0  -1  0  1
           symrel3     1  0  0   0  1  0   0  0  1       1  0  0   1  0 -1   1 -1  0
                       1  0  0   0  0  1   0  1  0       1  0  0   1 -1  0   1  0 -1
           symrel4     1  0  0   0  1  0   0  0  1      -1  0  0   0 -1  0   0  0 -1
                      -1  0  1   0 -1  1   0  0  1       1  0 -1   0  1 -1   0  0 -1
                       0  1 -1   1  0 -1   0  0 -1       0 -1  1  -1  0  1   0  0  1
                       0 -1  0  -1  0  0   0  0 -1       0  1  0   1  0  0   0  0  1
                       1  0  0   1  0 -1   1 -1  0      -1  0  0  -1  0  1  -1  1  0
                       0 -1  0   0 -1  1   1 -1  0       0  1  0   0  1 -1  -1  1  0
                       0  1 -1   0  1  0  -1  1  0       0 -1  1   0 -1  0   1 -1  0
                      -1  0  1  -1  0  0  -1  1  0       1  0 -1   1  0  0   1 -1  0
            tnons1     0.0000000  0.0000000  0.0000000     0.0000000  0.0000000  0.0000000
                       0.0000000  0.0000000  0.0000000     0.0000000  0.0000000  0.0000000
            tnons2     0.0000000  0.0000000  0.0000000     0.0000000  0.0000000  0.0000000
                       0.0000000  0.0000000  0.0000000     0.0000000  0.0000000  0.0000000
            tnons3     0.0000000  0.0000000  0.0000000     0.0000000  0.0000000  0.0000000
                       0.0000000 -0.0000000  0.0000000     0.0000000 -0.0000000  0.0000000
            tnons4     0.0000000  0.0000000  0.0000000    -0.0000000  0.0000000  0.0000000
                      -0.0000000  0.0000000  0.0000000     0.0000000  0.0000000  0.0000000
                      -0.0000000  0.0000000  0.0000000    -0.0000000 -0.0000000  0.0000000
                      -0.0000000 -0.0000000  0.0000000    -0.0000000  0.0000000  0.0000000
                      -0.0000000  0.0000000  0.0000000    -0.0000000 -0.0000000  0.0000000
                      -0.0000000  0.0000000  0.0000000    -0.0000000  0.0000000  0.0000000
                      -0.0000000  0.0000000 -0.0000000    -0.0000000  0.0000000  0.0000000
                      -0.0000000 -0.0000000  0.0000000    -0.0000000  0.0000000 -0.0000000
           toldff      1.00000000E-08
           tolmxf      1.00000000E-05
            typat1     1  1  4  2  4  2  2  2  3
            typat2     1  1  4  2  2  4  2  2  3
            typat3     1  1  2  4  2  4  2  2  3
            typat4     1  1  4  4  2  2  2  2  3
           useylm           1
              wtk1       0.03125    0.03125    0.03125    0.03125    0.03125    0.03125
                         0.03125    0.03125    0.03125    0.03125    0.03125    0.03125
                         0.03125    0.03125    0.03125    0.03125    0.03125    0.03125
                         0.03125    0.03125    0.01563    0.03125    0.03125    0.03125
                         0.01563    0.01563    0.01563    0.01563    0.01563    0.01563
                         0.03125    0.01563    0.01563    0.01563    0.01563    0.01563
                         0.01563    0.01563    0.01563    0.01563
              wtk2       0.03125    0.03125    0.03125    0.03125    0.03125    0.03125
                         0.03125    0.03125    0.03125    0.03125    0.03125    0.03125
                         0.03125    0.03125    0.03125    0.03125    0.03125    0.03125
                         0.03125    0.03125    0.01563    0.01563    0.03125    0.01563
                         0.03125    0.03125    0.01563    0.01563    0.01563    0.01563
                         0.03125    0.01563    0.01563    0.01563    0.01563    0.01563
                         0.01563    0.01563    0.01563    0.01563
              wtk3       0.03125    0.03125    0.03125    0.03125    0.03125    0.03125
                         0.03125    0.03125    0.03125    0.03125    0.03125    0.03125
                         0.03125    0.03125    0.03125    0.03125    0.03125    0.03125
                         0.03125    0.03125    0.01563    0.01563    0.03125    0.01563
                         0.03125    0.03125    0.01563    0.01563    0.01563    0.01563
                         0.03125    0.01563    0.01563    0.01563    0.01563    0.01563
                         0.01563    0.01563    0.01563    0.01563
              wtk4       0.03125    0.03125    0.03125    0.06250    0.03125    0.03125
                         0.06250    0.03125    0.06250    0.06250    0.03125    0.06250
                         0.06250    0.06250    0.03125    0.06250    0.06250    0.06250
                         0.06250    0.06250
           xangst1     2.9438463040E+00  2.9731478092E+00  2.9696186689E+00
                       8.8573112769E+00  8.9207263951E+00  8.8830836418E+00
                       5.8634222273E+00  5.9469371022E+00  2.7075888314E+00
                       5.9170723652E+00  5.9469371022E+00  8.9625479168E+00
                       9.1193411144E+00  5.9469371022E+00  5.9635077185E+00
                       5.9014186796E+00  8.9993389508E+00  5.9255112663E+00
                       5.9014186795E+00  2.8945352535E+00  5.9255112662E+00
                       2.8643820290E+00  5.9469371022E+00  5.9098575807E+00
                      -6.0492892680E-02  6.2726764835E-20  6.0492892680E-02
           xangst2     2.9731478119E+00  2.9438463013E+00  2.9696186661E+00
                       8.9207263999E+00  8.8573112687E+00  8.8830836335E+00
                       5.9469371059E+00  5.8634222248E+00  2.7075888279E+00
                       5.9469371059E+00  5.9170723580E+00  8.9625479100E+00
                       8.9993389583E+00  5.9014186737E+00  5.9255112610E+00
                       5.9469371059E+00  9.1193411070E+00  5.9635077100E+00
                       5.9469371059E+00  2.8643820249E+00  5.9098575769E+00
                       2.8945352536E+00  5.9014186738E+00  5.9255112611E+00
                       3.6134834053E-19 -6.0492892808E-02  6.0492892808E-02
           xangst3     2.9737893170E+00  2.9179233973E+00  2.9179233973E+00
                       8.9200846529E+00  8.7795426296E+00  8.7795426296E+00
                       5.9469369850E+00  5.8652265809E+00  2.8125362664E+00
                       5.9469369850E+00  5.8115764759E+00  9.0674954485E+00
                       8.9993387319E+00  5.8495729555E+00  5.8495729555E+00
                       5.9469369850E+00  9.0674954485E+00  5.8115764759E+00
                       5.9469369850E+00  2.8125362664E+00  5.8652265809E+00
                       2.8945352381E+00  5.8495729555E+00  5.8495729555E+00
                      -5.9511264319E-35 -6.0492851449E-02 -6.0492851449E-02
           xangst4     2.9869688492E+00  2.9869688492E+00  2.8814465920E+00
                       8.9609065477E+00  8.9609065477E+00  8.6443397760E+00
                       5.9739376985E+00  5.9739376985E+00  2.6207779603E+00
                       5.9739376985E+00  5.9739376985E+00  8.9050084077E+00
                       9.0494003016E+00  5.9739376985E+00  5.7628931840E+00
                       5.9739376985E+00  9.0494003016E+00  5.7628931840E+00
                       5.9739376985E+00  2.8984750954E+00  5.7628931840E+00
                       2.8984750954E+00  5.9739376985E+00  5.7628931840E+00
                       3.7665697427E-20 -1.2062281724E-20 -1.4931913511E-20
            xcart1     5.5630632919E+00  5.6184351120E+00  5.6117660033E+00
                       1.6737892587E+01  1.6857729793E+01  1.6786595298E+01
                       1.1080262211E+01  1.1238082453E+01  5.1166013717E+00
                       1.1181646279E+01  1.1238082453E+01  1.6936761016E+01
                       1.7233057219E+01  1.1238082453E+01  1.1269396379E+01
                       1.1152065100E+01  1.7006285994E+01  1.1197593491E+01
                       1.1152065100E+01  5.4698789111E+00  1.1197593490E+01
                       5.4128975747E+00  1.1238082453E+01  1.1168012312E+01
                      -1.1431500015E-01  1.1853640674E-19  1.1431500015E-01
            xcart2     5.6184351171E+00  5.5630632868E+00  5.6117659981E+00
                       1.6857729802E+01  1.6737892572E+01  1.6786595283E+01
                       1.1238082460E+01  1.1080262206E+01  5.1166013651E+00
                       1.1238082460E+01  1.1181646265E+01  1.6936761003E+01
                       1.7006286008E+01  1.1152065089E+01  1.1197593481E+01
                       1.1238082460E+01  1.7233057205E+01  1.1269396363E+01
                       1.1238082460E+01  5.4128975669E+00  1.1168012305E+01
                       5.4698789113E+00  1.1152065089E+01  1.1197593481E+01
                       6.8284940217E-19 -1.1431500039E-01  1.1431500039E-01
            xcart3     5.6196473861E+00  5.5140760976E+00  5.5140760976E+00
                       1.6856517076E+01  1.6590931142E+01  1.6590931142E+01
                       1.1238082231E+01  1.1083671945E+01  5.3149232823E+00
                       1.1238082231E+01  1.0982287940E+01  1.7135083109E+01
                       1.7006285580E+01  1.1054090880E+01  1.1054090880E+01
                       1.1238082231E+01  1.7135083109E+01  1.0982287940E+01
                       1.1238082231E+01  5.3149232823E+00  1.1083671945E+01
                       5.4698788820E+00  1.1054090880E+01  1.1054090880E+01
                      -1.1245999138E-34 -1.1431492224E-01 -1.1431492224E-01
            xcart4     5.6445530925E+00  5.6445530925E+00  5.4451449254E+00
                       1.6933659278E+01  1.6933659278E+01  1.6335434776E+01
                       1.1289106185E+01  1.1289106185E+01  4.9525526001E+00
                       1.1289106185E+01  1.1289106185E+01  1.6828027102E+01
                       1.7100888237E+01  1.1289106185E+01  1.0890289851E+01
                       1.1289106185E+01  1.7100888237E+01  1.0890289851E+01
                       1.1289106185E+01  5.4773241332E+00  1.0890289851E+01
                       5.4773241332E+00  1.1289106185E+01  1.0890289851E+01
                       7.1177852741E-20 -2.2794408996E-20 -2.8217227176E-20
             xred1     2.5217143282E-01  2.5002696698E-01  2.4777463322E-01
                       7.5222536678E-01  7.4997303302E-01  7.4782856718E-01
                       2.3080531984E-01  2.2470295316E-01  7.6919468016E-01
                       7.5978108291E-01  7.5811350454E-01  2.4021891709E-01
                       2.3080531984E-01  7.7529704684E-01  7.6919468016E-01
                       7.5869158010E-01  2.4336353351E-01  7.5458135288E-01
                       2.4541864712E-01  7.5663646649E-01  2.4130841990E-01
                       7.5978108291E-01  2.4188649546E-01  2.4021891709E-01
                       1.0320167673E-02  4.2770447457E-20 -1.0320167673E-02
             xred2     2.5002696691E-01  2.5217143289E-01  2.4777463329E-01
                       7.4997303309E-01  7.5222536671E-01  7.4782856711E-01
                       2.2470295334E-01  2.3080531980E-01  7.6919468020E-01
                       7.5811350451E-01  7.5978108289E-01  2.4021891711E-01
                       2.4336353337E-01  7.5869158030E-01  7.5458135297E-01
                       7.7529704666E-01  2.3080531980E-01  7.6919468020E-01
                       2.4188649549E-01  7.5978108289E-01  2.4021891711E-01
                       7.5663646663E-01  2.4541864703E-01  2.4130841970E-01
                       4.7401040010E-19  1.0320167693E-02 -1.0320167693E-02
             xred3     2.4777462008E-01  2.5002697393E-01  2.5002697393E-01
                       7.4782856794E-01  7.4997302607E-01  7.4997302607E-01
                       2.4021891422E-01  2.4188649893E-01  7.5811350107E-01
                       7.6919468280E-01  7.7529705231E-01  2.2470294769E-01
                       2.4130842625E-01  7.5663646299E-01  7.5663646299E-01
                       7.6919468280E-01  2.2470294769E-01  7.7529705231E-01
                       2.4021891422E-01  7.5811350107E-01  2.4188649893E-01
                       7.5458135223E-01  2.4336353701E-01  2.4336353701E-01
                      -1.0320160531E-02 -2.8862260748E-19  2.8862260748E-19
             xred4     2.5000000000E-01  2.5000000000E-01  2.5000000000E-01
                       7.5000000000E-01  7.5000000000E-01  7.5000000000E-01
                       2.2738387444E-01  2.2738387444E-01  7.7261612556E-01
                       7.7261612556E-01  7.7261612556E-01  2.2738387444E-01
                       2.4259334811E-01  7.5740665189E-01  7.5740665189E-01
                       7.5740665189E-01  2.4259334811E-01  7.5740665189E-01
                       2.4259334811E-01  7.5740665189E-01  2.4259334811E-01
                       7.5740665189E-01  2.4259334811E-01  2.4259334811E-01
                      -5.4575994689E-21  2.8665548261E-21  3.4384485616E-21
            znucl       55.00000   53.00000   40.00000   17.00000

================================================================================

 chkinp: Checking input parameters for consistency, jdtset=   1.

 chkinp: Checking input parameters for consistency, jdtset=   2.

 chkinp: Checking input parameters for consistency, jdtset=   3.

 chkinp: Checking input parameters for consistency, jdtset=   4.

================================================================================
== DATASET  1 ==================================================================
-   mpi_nproc: 6, omp_nthreads: -1 (-1 if OMP is not activated)


--- !DatasetInfo
iteration_state: {dtset: 1, }
dimensions: {natom: 9, nkpt: 40, mband: 42, nsppol: 1, nspinor: 1, nspden: 1, mpw: 12958, }
cutoff_energies: {ecut:  16.0, pawecutdg:  40.0, }
electrons: {nelect:   7.20000000E+01, charge:   0.00000000E+00, occopt:   1.00000000E+00, tsmear:   1.00000000E-02, }
meta: {optdriver: 0, ionmov: 2, optcell: 2, iscf: 17, paral_kgb: 0, }
...

 Real(R)+Recip(G) space primitive vectors, cartesian coordinates (Bohr,Bohr^-1):
 R(1)=  0.0489872 11.2380825 11.1258421  G(1)= -0.0451392  0.0444916  0.0451392
 R(2)= 11.1748293  0.0000000 11.1748293  G(2)=  0.0447434 -0.0444916  0.0447434
 R(3)= 11.1258421 11.2380825  0.0489872  G(3)=  0.0451392  0.0444916 -0.0451392
 Unit cell volume ucvol=  2.7821438E+03 bohr^3
 Angles (23,13,12)=  6.00216742E+01  5.93779512E+01  6.00216742E+01 degrees

 Coarse grid specifications (used for wave-functions):

 getcut: wavevector=  0.0000  0.0000  0.0000  ngfft=  72  72  72
         ecut(hartree)=     21.160   => boxcut(ratio)=   2.19887

 Fine grid specifications (used for densities):

 getcut: wavevector=  0.0000  0.0000  0.0000  ngfft= 108 108 108
         ecut(hartree)=     52.900   => boxcut(ratio)=   2.08601

--- Pseudopotential description ------------------------------------------------
- pspini: atom type   1  psp file is ../../../Psps_for_tests/ATOMICDATA/Cs.GGA_PBE-JTH.xml
- pspatm: opening atomic psp file    ../../../Psps_for_tests/ATOMICDATA/Cs.GGA_PBE-JTH.xml
- pspatm : Reading pseudopotential header in XML form from ../../../Psps_for_tests/ATOMICDATA/Cs.GGA_PBE-JTH.xml
 Pseudopotential format is: paw10
 basis_size (lnmax)=  6 (lmn_size= 18), orbitals=   0   0   1   1   2   2
 Spheres core radius: rc_sph= 2.20660278
 1 radial meshes are used:
  - mesh 1: r(i)=AA*[exp(BB*(i-1))-1], size=1500 , AA= 0.15922E-03 BB= 0.87573E-02
 Shapefunction is SIN type: shapef(r)=[sin(pi*r/rshp)/(pi*r/rshp)]**2
 Radius for shape functions =  2.00394208
 mmax= 1500
 Radial grid used for partial waves is grid 1
 Radial grid used for projectors is grid 1
 Radial grid used for (t)core density is grid 1
 Radial grid used for Vloc is grid 1
 Radial grid used for pseudo valence density is grid 1
 Mesh size for Vloc has been set to 1341 to avoid numerical noise.
 Compensation charge density is not taken into account in XC energy/potential
 pspatm: atomic psp has been read  and splines computed

- pspini: atom type   2  psp file is ../../../Psps_for_tests/ATOMICDATA/I.GGA_PBE-JTH.xml
- pspatm: opening atomic psp file    ../../../Psps_for_tests/ATOMICDATA/I.GGA_PBE-JTH.xml
- pspatm : Reading pseudopotential header in XML form from ../../../Psps_for_tests/ATOMICDATA/I.GGA_PBE-JTH.xml
 Pseudopotential format is: paw10
 basis_size (lnmax)=  4 (lmn_size=  8), orbitals=   0   0   1   1
 Spheres core radius: rc_sph= 2.30022271
 1 radial meshes are used:
  - mesh 1: r(i)=AA*[exp(BB*(i-1))-1], size=2000 , AA= 0.12610E-03 BB= 0.66836E-02
 Shapefunction is SIN type: shapef(r)=[sin(pi*r/rshp)/(pi*r/rshp)]**2
 Radius for shape functions =  2.10879093
 mmax= 2000
 Radial grid used for partial waves is grid 1
 Radial grid used for projectors is grid 1
 Radial grid used for (t)core density is grid 1
 Radial grid used for Vloc is grid 1
 Radial grid used for pseudo valence density is grid 1
 Mesh size for Vloc has been set to 1792 to avoid numerical noise.
 Compensation charge density is not taken into account in XC energy/potential
 pspatm: atomic psp has been read  and splines computed

- pspini: atom type   3  psp file is ../../../Psps_for_tests/ATOMICDATA/Zr.GGA_PBE-JTH.xml
- pspatm: opening atomic psp file    ../../../Psps_for_tests/ATOMICDATA/Zr.GGA_PBE-JTH.xml
- pspatm : Reading pseudopotential header in XML form from ../../../Psps_for_tests/ATOMICDATA/Zr.GGA_PBE-JTH.xml
 Pseudopotential format is: paw10
 basis_size (lnmax)=  6 (lmn_size= 18), orbitals=   0   0   1   1   2   2
 Spheres core radius: rc_sph= 2.21000000
 1 radial meshes are used:
  - mesh 1: r(i)=AA*[exp(BB*(i-1))-1], size= 941 , AA= 0.35256E-03 BB= 0.14102E-01
 Shapefunction is BESSEL type: shapef(r,l)=aa(1,l)*jl(q(1,l)*r)+aa(2,l)*jl(q(2,l)*r)
 Radius for shape functions =  2.21000000
 mmax=  941
 Radial grid used for partial waves is grid 1
 Radial grid used for projectors is grid 1
 Radial grid used for (t)core density is grid 1
 Radial grid used for Vloc is grid 1
 Radial grid used for pseudo valence density is grid 1
 Mesh size for Vloc has been set to  777 to avoid numerical noise.
 Compensation charge density is not taken into account in XC energy/potential
 pspatm: atomic psp has been read  and splines computed

- pspini: atom type   4  psp file is ../../../Psps_for_tests/ATOMICDATA/Cl.GGA_PBE-JTH.xml
- pspatm: opening atomic psp file    ../../../Psps_for_tests/ATOMICDATA/Cl.GGA_PBE-JTH.xml
- pspatm : Reading pseudopotential header in XML form from ../../../Psps_for_tests/ATOMICDATA/Cl.GGA_PBE-JTH.xml
 Pseudopotential format is: paw10
 basis_size (lnmax)=  4 (lmn_size=  8), orbitals=   0   0   1   1
 Spheres core radius: rc_sph= 1.80315674
 1 radial meshes are used:
  - mesh 1: r(i)=AA*[exp(BB*(i-1))-1], size=1400 , AA= 0.50355E-03 BB= 0.85603E-02
 Shapefunction is SIN type: shapef(r)=[sin(pi*r/rshp)/(pi*r/rshp)]**2
 Radius for shape functions =  1.61320365
 mmax= 1400
 Radial grid used for partial waves is grid 1
 Radial grid used for projectors is grid 1
 Radial grid used for (t)core density is grid 1
 Radial grid used for Vloc is grid 1
 Radial grid used for pseudo valence density is grid 1
 Mesh size for Vloc has been set to 1238 to avoid numerical noise.
 Compensation charge density is not taken into account in XC energy/potential
 pspatm: atomic psp has been read  and splines computed

   3.31979095E+04                                ecore*ucvol(ha*bohr**3)
--------------------------------------------------------------------------------

_setup2: Arith. and geom. avg. npw (full set) are   12934.203   12934.198

================================================================================

=== [ionmov= 2] Broyden-Fletcher-Goldfard-Shanno method (forces)            
================================================================================

--- Iteration: (   1/1000) Internal Cycle: (1/1)
--------------------------------------------------------------------------------

---SELF-CONSISTENT-FIELD CONVERGENCE--------------------------------------------

--- !BeginCycle
iteration_state: {dtset: 1, itime: 1, icycle: 1, }
solver: {iscf: 17, nstep: 2500, nline: 4, wfoptalg: 10, }
tolerances: {toldff: 1.00E-08, }
...

     iter   Etot(hartree)      deltaE(h)  residm     nres2    diffor    maxfor
 ETOT  1  -165.64933033877    -1.656E+02 1.933E-01 2.929E+01 8.321E-02 8.321E-02
 ETOT  2  -165.81872456575    -1.694E-01 1.677E-02 7.480E+00 1.782E-01 9.501E-02
 ETOT  3  -165.81423481790     4.490E-03 2.529E-03 1.568E+00 6.549E-02 2.952E-02
 ETOT  4  -165.81525997491    -1.025E-03 5.706E-03 2.401E-01 2.113E-02 5.065E-02
 ETOT  5  -165.81441549564     8.445E-04 4.972E-04 2.009E-02 2.629E-02 2.436E-02
 ETOT  6  -165.81448580009    -7.030E-05 5.477E-04 5.050E-03 3.581E-03 2.078E-02
 ETOT  7  -165.81448563274     1.674E-07 1.883E-04 1.357E-03 7.439E-04 2.152E-02
 ETOT  8  -165.81448689488    -1.262E-06 1.940E-04 2.305E-04 5.644E-04 2.112E-02
 ETOT  9  -165.81448778587    -8.910E-07 1.019E-04 7.793E-05 3.241E-04 2.145E-02
 ETOT 10  -165.81448767762     1.083E-07 8.895E-05 2.505E-05 3.651E-05 2.147E-02
 ETOT 11  -165.81448766277     1.485E-08 4.107E-05 2.774E-06 9.225E-05 2.140E-02
 ETOT 12  -165.81448765875     4.019E-09 3.374E-05 6.361E-07 9.600E-06 2.140E-02
 ETOT 13  -165.81448765865     9.780E-11 1.466E-05 4.300E-08 1.278E-05 2.141E-02
 ETOT 14  -165.81448765904    -3.905E-10 1.190E-05 6.221E-09 1.806E-06 2.140E-02
 ETOT 15  -165.81448765905    -8.612E-12 5.008E-06 1.896E-09 8.463E-07 2.140E-02
 ETOT 16  -165.81448765903     1.694E-11 4.095E-06 1.186E-09 9.392E-07 2.141E-02
 ETOT 17  -165.81448765903     3.098E-12 1.685E-06 8.378E-11 2.215E-07 2.141E-02
 ETOT 18  -165.81448765904    -7.987E-12 1.397E-06 9.049E-11 2.470E-07 2.141E-02
 ETOT 19  -165.81448765904     2.757E-12 5.640E-07 3.235E-12 1.491E-07 2.141E-02
 ETOT 20  -165.81448765904    -1.052E-12 4.755E-07 1.250E-11 3.358E-08 2.141E-02
 ETOT 21  -165.81448765904     2.842E-14 2.862E-07 9.889E-13 3.550E-08 2.141E-02
 ETOT 22  -165.81448765904    -8.811E-13 2.852E-07 1.173E-12 2.233E-08 2.141E-02
 ETOT 23  -165.81448765903     4.576E-12 1.719E-07 2.785E-14 1.532E-08 2.141E-02
 ETOT 24  -165.81448765903     8.527E-13 1.710E-07 1.320E-13 6.081E-09 2.141E-02
 ETOT 25  -165.81448765904    -2.984E-12 1.032E-07 1.034E-14 3.925E-09 2.141E-02

 At SCF step   25, forces are converged : 
  for the second time, max diff in force=  3.925E-09 < toldff=  1.000E-08

 Cartesian components of stress tensor (hartree/bohr^3)
  sigma(1 1)=  4.55476666E-05  sigma(3 2)= -1.09807029E-13
  sigma(2 2)=  1.59683715E-05  sigma(3 1)=  2.43505834E-08
  sigma(3 3)=  4.55476666E-05  sigma(2 1)= -1.09808283E-13


--- !ResultsGS
iteration_state: {dtset: 1, itime: 1, icycle: 1, }
comment   : Summary of ground state results
lattice_vectors:
- [  0.0489872,  11.2380825,  11.1258421, ]
- [ 11.1748293,   0.0000000,  11.1748293, ]
- [ 11.1258421,  11.2380825,   0.0489872, ]
lattice_lengths: [  15.81396,   15.80360,   15.81396, ]
lattice_angles: [ 60.022,  59.378,  60.022, ] # degrees, (23, 13, 12)
lattice_volume:   2.7821438E+03
convergence: {deltae: -2.984E-12, res2:  1.034E-14, residm:  1.032E-07, diffor:  3.925E-09, }
etotal    :  -1.65814488E+02
entropy   :   0.00000000E+00
fermie    :  -8.70574808E-02
cartesian_stress_tensor: # hartree/bohr^3
- [  4.55476666E-05,  -1.09808283E-13,   2.43505834E-08, ]
- [ -1.09808283E-13,   1.59683715E-05,  -1.09807029E-13, ]
- [  2.43505834E-08,  -1.09807029E-13,   4.55476666E-05, ]
pressure_GPa:  -1.0500E+00
xred      :
- [  2.5217E-01,   2.5003E-01,   2.4777E-01, Cs]
- [  7.5223E-01,   7.4997E-01,   7.4783E-01, Cs]
- [  2.3081E-01,   2.2470E-01,   7.6919E-01, Cl]
- [  7.5978E-01,   7.5811E-01,   2.4022E-01,  I]
- [  2.3081E-01,   7.7530E-01,   7.6919E-01, Cl]
- [  7.5869E-01,   2.4336E-01,   7.5458E-01,  I]
- [  2.4542E-01,   7.5664E-01,   2.4131E-01,  I]
- [  7.5978E-01,   2.4189E-01,   2.4022E-01,  I]
- [  1.0320E-02,   4.2770E-20,  -1.0320E-02, Zr]
cartesian_forces: # hartree/bohr
- [ -3.06273567E-05,   1.70835802E-05,   3.06273567E-05, ]
- [ -3.06273567E-05,  -1.70835802E-05,   3.06273567E-05, ]
- [ -1.04748775E-03,   5.68807617E-13,  -2.14055957E-02, ]
- [ -8.45263956E-04,  -5.20226563E-14,   2.89878500E-03, ]
- [  2.14055957E-02,  -5.68808136E-13,   1.04748775E-03, ]
- [ -7.44417929E-04,   2.56249463E-03,   7.44417929E-04, ]
- [ -7.44417929E-04,  -2.56249463E-03,   7.44417929E-04, ]
- [ -2.89878500E-03,   5.20222426E-14,   8.45263956E-04, ]
- [ -1.50639685E-02,   1.49571198E-18,   1.50639685E-02, ]
force_length_stats: {min:   4.65609135E-05, max:   2.14312099E-02, mean:   8.42654146E-03, }
...

 Integrated electronic density in atomic spheres:
 ------------------------------------------------
 Atom  Sphere_radius  Integrated_density
    1        2.20660          5.36138017
    2        2.20660          5.36138017
    3        1.80316          4.33432725
    4        2.30022          4.00864868
    5        1.80316          4.33432725
    6        2.30022          4.00828464
    7        2.30022          4.00828464
    8        2.30022          4.00864868
    9        2.21000          8.76761719

 PAW TEST:
 ==== Compensation charge inside spheres ============
 The following values must be close to each other ...
 Compensation charge over spherical meshes =     -5.487735152260662
 Compensation charge over fine fft grid    =     -5.487726208256432

 ==== Results concerning PAW augmentation regions ====

 Total pseudopotential strength Dij (hartree):
 Atom #  1
   0.44015  -0.14576  -0.00000   0.00000  -0.00000   0.00000  -0.00000   0.00000   0.00000  -0.00000  -0.00000   0.00000 ...
  -0.14576   0.04392   0.00000  -0.00000   0.00000  -0.00000   0.00000  -0.00000  -0.00000   0.00000   0.00000  -0.00000 ...
  -0.00000   0.00000  -0.09358  -0.00000   0.00000  -0.16654   0.00000  -0.00000  -0.00000   0.00000   0.00000   0.00000 ...
   0.00000  -0.00000  -0.00000  -0.09358   0.00000   0.00000  -0.16654  -0.00000   0.00000  -0.00000   0.00000  -0.00000 ...
  -0.00000   0.00000   0.00000   0.00000  -0.09358  -0.00000  -0.00000  -0.16654  -0.00000   0.00000   0.00000   0.00000 ...
   0.00000  -0.00000  -0.16654   0.00000  -0.00000   0.40394  -0.00000   0.00000   0.00000  -0.00000  -0.00000   0.00000 ...
  -0.00000   0.00000   0.00000  -0.16654  -0.00000  -0.00000   0.40394   0.00000   0.00000   0.00000  -0.00000   0.00000 ...
   0.00000  -0.00000  -0.00000  -0.00000  -0.16654   0.00000   0.00000   0.40394   0.00000   0.00000  -0.00000  -0.00000 ...
   0.00000  -0.00000  -0.00000   0.00000  -0.00000   0.00000   0.00000   0.00000   0.00522   0.00000  -0.00000  -0.00000 ...
  -0.00000   0.00000   0.00000  -0.00000   0.00000  -0.00000   0.00000   0.00000   0.00000   0.00522  -0.00000   0.00000 ...
  -0.00000   0.00000   0.00000   0.00000   0.00000  -0.00000  -0.00000  -0.00000  -0.00000  -0.00000   0.00522   0.00000 ...
   0.00000  -0.00000   0.00000  -0.00000   0.00000   0.00000   0.00000  -0.00000  -0.00000   0.00000   0.00000   0.00522 ...
   ...  only 12  components have been written...
 Atom #  9
   3.08865  -0.89974   0.00000  -0.00000   0.00000   0.00000  -0.00001   0.00001   0.00000   0.00000   0.00001   0.00000 ...
  -0.89974   0.26892   0.00000   0.00001  -0.00001   0.00000   0.00000  -0.00000   0.00000   0.00000   0.00000   0.00000 ...
   0.00000   0.00000   0.26557   0.00000   0.00000  -0.05387   0.00000   0.00000  -0.00012   0.00012   0.00000   0.00000 ...
  -0.00000   0.00001   0.00000   0.26566   0.00000   0.00000  -0.05388  -0.00000   0.00000   0.00000   0.00020  -0.00012 ...
   0.00000  -0.00001   0.00000   0.00000   0.26566   0.00000  -0.00000  -0.05388   0.00000   0.00000   0.00010   0.00012 ...
   0.00000   0.00000  -0.05387   0.00000   0.00000   0.01481   0.00000   0.00000   0.00002  -0.00002   0.00000   0.00000 ...
  -0.00001   0.00000   0.00000  -0.05388  -0.00000   0.00000   0.01481   0.00000   0.00000   0.00000  -0.00004   0.00002 ...
   0.00001  -0.00000   0.00000  -0.00000  -0.05388   0.00000   0.00000   0.01481   0.00000   0.00000  -0.00002  -0.00002 ...
   0.00000   0.00000  -0.00012   0.00000   0.00000   0.00002   0.00000   0.00000  -0.01822  -0.00000   0.00000   0.00000 ...
   0.00000   0.00000   0.00012   0.00000   0.00000  -0.00002   0.00000   0.00000  -0.00000  -0.01822   0.00000   0.00000 ...
   0.00001   0.00000   0.00000   0.00020   0.00010   0.00000  -0.00004  -0.00002   0.00000   0.00000  -0.01809  -0.00000 ...
   0.00000   0.00000   0.00000  -0.00012   0.00012   0.00000   0.00002  -0.00002   0.00000   0.00000  -0.00000  -0.01822 ...
   ...  only 12  components have been written...


 Augmentation waves occupancies Rhoij:
 Atom #  1
   1.99656  -0.01737  -0.00001  -0.00000   0.00000  -0.00001   0.00001  -0.00001   0.00124  -0.00124  -0.00027   0.00028 ...
  -0.01737   0.10889  -0.00080   0.00112  -0.00112   0.00002  -0.00004   0.00004  -0.01261   0.01261   0.00472  -0.00199 ...
  -0.00001  -0.00080   2.00832   0.00063  -0.00063  -0.00501  -0.00014   0.00014  -0.00087   0.00087   0.00029   0.00048 ...
  -0.00000   0.00112   0.00063   2.00882  -0.00016  -0.00014  -0.00514   0.00002   0.00063  -0.00055   0.00005  -0.00072 ...
   0.00000  -0.00112  -0.00063  -0.00016   2.00882   0.00014   0.00002  -0.00514  -0.00055   0.00063   0.00011   0.00072 ...
  -0.00001   0.00002  -0.00501  -0.00014   0.00014   0.00007   0.00001  -0.00001   0.00003  -0.00003  -0.00000  -0.00003 ...
   0.00001  -0.00004  -0.00014  -0.00514   0.00002   0.00001   0.00008  -0.00000  -0.00004   0.00001   0.00001   0.00002 ...
  -0.00001   0.00004   0.00014   0.00002  -0.00514  -0.00001  -0.00000   0.00008   0.00001  -0.00004   0.00000  -0.00002 ...
   0.00124  -0.01261  -0.00087   0.00063  -0.00055   0.00003  -0.00004   0.00001   0.02675   0.00073   0.00854   0.00021 ...
  -0.00124   0.01261   0.00087  -0.00055   0.00063  -0.00003   0.00001  -0.00004   0.00073   0.02675   0.00386  -0.00021 ...
  -0.00027   0.00472   0.00029   0.00005   0.00011  -0.00000   0.00001   0.00000   0.00854   0.00386   0.01876  -0.00063 ...
   0.00028  -0.00199   0.00048  -0.00072   0.00072  -0.00003   0.00002  -0.00002   0.00021  -0.00021  -0.00063   0.04118 ...
   ...  only 12  components have been written...
 Atom #  9
   1.99138  -0.07095   0.00000   0.00015  -0.00015   0.00000  -0.00072   0.00072   0.00000   0.00000  -0.00244  -0.00025 ...
  -0.07095   1.00366   0.00000  -0.00372   0.00372   0.00000  -0.03966   0.03966   0.00000   0.00000  -0.01330  -0.00157 ...
   0.00000   0.00000   1.96333   0.00000   0.00000  -0.21537   0.00000   0.00000  -0.00022   0.00022   0.00000   0.00000 ...
   0.00015  -0.00372   0.00000   1.96240  -0.00002   0.00000  -0.22628  -0.00023   0.00000   0.00000  -0.00652  -0.00026 ...
  -0.00015   0.00372   0.00000  -0.00002   1.96240   0.00000  -0.00023  -0.22628   0.00000   0.00000  -0.00328   0.00026 ...
   0.00000   0.00000  -0.21537   0.00000   0.00000   1.43850   0.00000   0.00000   0.03715  -0.03715   0.00000   0.00000 ...
  -0.00072  -0.03966   0.00000  -0.22628  -0.00023   0.00000   1.40823   0.00455   0.00000   0.00000  -0.02502   0.02946 ...
   0.00072   0.03966   0.00000  -0.00023  -0.22628   0.00000   0.00455   1.40823   0.00000   0.00000  -0.01164  -0.02946 ...
   0.00000   0.00000  -0.00022   0.00000   0.00000   0.03715   0.00000   0.00000   0.40412  -0.00080   0.00000   0.00000 ...
   0.00000   0.00000   0.00022   0.00000   0.00000  -0.03715   0.00000   0.00000  -0.00080   0.40412   0.00000   0.00000 ...
  -0.00244  -0.01330   0.00000  -0.00652  -0.00328   0.00000  -0.02502  -0.01164   0.00000   0.00000   1.20368  -0.00057 ...
  -0.00025  -0.00157   0.00000  -0.00026   0.00026   0.00000   0.02946  -0.02946   0.00000   0.00000  -0.00057   0.39485 ...
   ...  only 12  components have been written...



---OUTPUT-----------------------------------------------------------------------

 Cartesian coordinates (xcart) [bohr]
  5.56306329194203E+00  5.61843511200659E+00  5.61176600326061E+00
  1.67378925871447E+01  1.68577297931777E+01  1.67865952984633E+01
  1.10802622110084E+01  1.12380824525921E+01  5.11660137173291E+00
  1.11816462786054E+01  1.12380824525921E+01  1.69367610156950E+01
  1.72330572186724E+01  1.12380824525921E+01  1.12693963793970E+01
  1.11520651000294E+01  1.70062859941052E+01  1.11975934906682E+01
  1.11520650997371E+01  5.46987891107910E+00  1.11975934903760E+01
  5.41289757471034E+00  1.12380824525921E+01  1.11680123117999E+01
 -1.14315000150905E-01  1.18536406740977E-19  1.14315000150905E-01
 Reduced coordinates (xred)
  2.52171432820000E-01  2.50026966980000E-01  2.47774633220000E-01
  7.52225366780000E-01  7.49973033020000E-01  7.47828567180000E-01
  2.30805319840000E-01  2.24702953160000E-01  7.69194680160000E-01
  7.59781082910000E-01  7.58113504540000E-01  2.40218917090000E-01
  2.30805319840000E-01  7.75297046840000E-01  7.69194680160000E-01
  7.58691580100000E-01  2.43363533510000E-01  7.54581352880000E-01
  2.45418647120000E-01  7.56636466490000E-01  2.41308419900000E-01
  7.59781082910000E-01  2.41886495460000E-01  2.40218917090000E-01
  1.03201676730000E-02  4.27704474574570E-20 -1.03201676730000E-02
 Cartesian forces (fcart) [Ha/bohr]; max,rms= 2.14056E-02 7.21631E-03 (free atoms)
 -3.06273566860364E-05  1.70835802182524E-05  3.06273566860364E-05
 -3.06273566860364E-05 -1.70835802182527E-05  3.06273566860364E-05
 -1.04748775219265E-03  5.68807617220093E-13 -2.14055957280517E-02
 -8.45263956284045E-04 -5.20226563099092E-14  2.89878499756503E-03
  2.14055957280517E-02 -5.68808135560301E-13  1.04748775219265E-03
 -7.44417929187397E-04  2.56249462733177E-03  7.44417929187397E-04
 -7.44417929187397E-04 -2.56249462733177E-03  7.44417929187397E-04
 -2.89878499756503E-03  5.20222425559312E-14  8.45263956284045E-04
 -1.50639684502631E-02  1.49571198319763E-18  1.50639684502631E-02
 Reduced forces (fred)
 -5.31241469930731E-04  9.77542272446556E-22  1.47268103774346E-04
 -1.47268103774342E-04 -2.05359378451827E-20  5.31241469930735E-04
  2.38206591851100E-01  2.50909375036273E-01  1.27027831851736E-02
 -3.22100170982837E-02 -2.29477470898372E-02  9.26227000844655E-03
 -1.27027831851736E-02 -2.50909375036273E-01 -2.38206591851100E-01
 -3.70433353140106E-02  7.30243560069630E-20 -2.05517164985469E-02
  2.05517164985469E-02 -4.50121700099372E-19  3.70433353140106E-02
 -9.26227000844655E-03  2.29477470898372E-02  3.22100170982837E-02
 -1.66861393170027E-01  4.28998581772932E-18  1.66861393170027E-01
 Scale of Primitive Cell (acell) [bohr]
  1.58139577480000E+01  1.58035951460000E+01  1.58139577480000E+01
 Real space primitive translations (rprimd) [bohr]
  4.89871835281498E-02  1.12380824525921E+01  1.11258421119592E+01
  1.11748292949180E+01  0.00000000000000E+00  1.11748292949180E+01
  1.11258421119592E+01  1.12380824525921E+01  4.89871835281498E-02
 Unitary Cell Volume (ucvol) [Bohr^3]=  2.78214381154684E+03
 Angles (23,13,12)= [degrees]
  6.00216741861863E+01  5.93779511964211E+01  6.00216741861863E+01
 Lengths [Bohr]
  1.58139577480040E+01  1.58035951460772E+01  1.58139577480040E+01
 Stress tensor in cartesian coordinates (strten) [Ha/bohr^3]
  4.55476665776351E-05 -1.09808283050436E-13  2.43505833978176E-08
 -1.09808283050436E-13  1.59683715168623E-05 -1.09807028519727E-13
  2.43505833978176E-08 -1.09807028519727E-13  4.55476665776351E-05
 Total energy (etotal) [Ha]= -1.65814487659036E+02

--- Iteration: (   2/1000) Internal Cycle: (1/1)
--------------------------------------------------------------------------------

---SELF-CONSISTENT-FIELD CONVERGENCE--------------------------------------------

--- !BeginCycle
iteration_state: {dtset: 1, itime: 2, icycle: 1, }
solver: {iscf: 17, nstep: 2500, nline: 4, wfoptalg: 10, }
tolerances: {toldff: 1.00E-08, }
...

     iter   Etot(hartree)      deltaE(h)  residm     nres2    diffor    maxfor
 ETOT  1  -165.82065932047    -1.658E+02 5.457E+01 1.067E+00 9.255E-02 1.140E-01
 ETOT  2  -165.81721223194     3.447E-03 3.836E-02 3.885E-01 1.135E-01 1.037E-02
 ETOT  3  -165.81614256373     1.070E-03 3.767E-04 1.694E-02 2.415E-02 2.461E-02
 ETOT  4  -165.81616381235    -2.125E-05 4.442E-06 2.998E-03 3.132E-03 2.148E-02
 ETOT  5  -165.81616731788    -3.506E-06 3.716E-07 8.884E-04 8.370E-04 2.064E-02
 ETOT  6  -165.81617166064    -4.343E-06 8.449E-08 1.804E-04 8.815E-04 1.976E-02
 ETOT  7  -165.81617209851    -4.379E-07 2.931E-08 4.749E-05 1.693E-04 1.991E-02
 ETOT  8  -165.81617256350    -4.650E-07 3.052E-08 7.380E-06 2.246E-04 1.969E-02
 ETOT  9  -165.81617261673    -5.323E-08 1.142E-08 1.819E-06 1.815E-05 1.967E-02
 ETOT 10  -165.81617264910    -3.237E-08 1.751E-08 4.064E-07 4.873E-05 1.962E-02
 ETOT 11  -165.81617265719    -8.084E-09 6.570E-09 8.688E-08 3.516E-06 1.962E-02
 ETOT 12  -165.81617266520    -8.016E-09 1.030E-08 3.535E-08 2.436E-06 1.962E-02
 ETOT 13  -165.81617266917    -3.968E-09 3.707E-09 3.734E-09 3.899E-06 1.961E-02
 ETOT 14  -165.81617267156    -2.388E-09 6.006E-09 3.179E-09 3.643E-07 1.961E-02
 ETOT 15  -165.81617267335    -1.788E-09 2.140E-09 4.723E-10 6.166E-07 1.961E-02
 ETOT 16  -165.81617267493    -1.581E-09 3.521E-09 3.895E-10 2.270E-07 1.961E-02
 ETOT 17  -165.81617267566    -7.267E-10 1.242E-09 1.006E-10 1.773E-07 1.961E-02
 ETOT 18  -165.81617267674    -1.090E-09 2.068E-09 4.794E-11 8.780E-08 1.961E-02
 ETOT 19  -165.81617267744    -6.989E-10 7.245E-10 7.405E-12 6.383E-08 1.961E-02
 ETOT 20  -165.81617267793    -4.845E-10 1.212E-09 4.875E-12 3.092E-08 1.961E-02
 ETOT 21  -165.81617267807    -1.440E-10 4.210E-10 1.435E-13 2.272E-08 1.961E-02
 ETOT 22  -165.81617267809    -2.163E-11 7.064E-10 7.818E-14 2.366E-09 1.961E-02
 ETOT 23  -165.81617267810    -4.690E-12 2.445E-10 3.583E-15 2.939E-09 1.961E-02

 At SCF step   23, forces are converged : 
  for the second time, max diff in force=  2.939E-09 < toldff=  1.000E-08

 Cartesian components of stress tensor (hartree/bohr^3)
  sigma(1 1)=  4.08876032E-05  sigma(3 2)= -1.10393679E-13
  sigma(2 2)=  1.27894287E-05  sigma(3 1)=  1.45888588E-07
  sigma(3 3)=  4.08876032E-05  sigma(2 1)= -1.10393863E-13


--- !ResultsGS
iteration_state: {dtset: 1, itime: 2, icycle: 1, }
comment   : Summary of ground state results
lattice_vectors:
- [  0.0489040,  11.2326988,  11.1106394, ]
- [ 11.1595433,   0.0000000,  11.1595433, ]
- [ 11.1106394,  11.2326988,   0.0489040, ]
lattice_lengths: [  15.79944,   15.78198,   15.79944, ]
lattice_angles: [ 60.037,  59.349,  60.037, ] # degrees, (23, 13, 12)
lattice_volume:   2.7732166E+03
convergence: {deltae: -4.690E-12, res2:  3.583E-15, residm:  2.445E-10, diffor:  2.939E-09, }
etotal    :  -1.65816173E+02
entropy   :   0.00000000E+00
fermie    :  -8.59127901E-02
cartesian_stress_tensor: # hartree/bohr^3
- [  4.08876032E-05,  -1.10393863E-13,   1.45888588E-07, ]
- [ -1.10393863E-13,   1.27894287E-05,  -1.10393679E-13, ]
- [  1.45888588E-07,  -1.10393679E-13,   4.08876032E-05, ]
pressure_GPa:  -9.2740E-01
xred      :
- [  2.5217E-01,   2.5003E-01,   2.4777E-01, Cs]
- [  7.5223E-01,   7.4997E-01,   7.4783E-01, Cs]
- [  2.2989E-01,   2.2370E-01,   7.7011E-01, Cl]
- [  7.5995E-01,   7.5821E-01,   2.4005E-01,  I]
- [  2.2989E-01,   7.7630E-01,   7.7011E-01, Cl]
- [  7.5887E-01,   2.4325E-01,   7.5463E-01,  I]
- [  2.4537E-01,   7.5675E-01,   2.4113E-01,  I]
- [  7.5995E-01,   2.4179E-01,   2.4005E-01,  I]
- [  1.1680E-02,   4.2770E-20,  -1.1680E-02, Zr]
cartesian_forces: # hartree/bohr
- [ -3.20935222E-05,   1.64956746E-05,   3.20935222E-05, ]
- [ -3.20935222E-05,  -1.64956746E-05,   3.20935222E-05, ]
- [ -1.09902491E-03,   5.24731184E-13,  -1.96141291E-02, ]
- [ -8.42590271E-04,  -4.08287682E-14,   2.45426327E-03, ]
- [  1.96141291E-02,  -5.24734287E-13,   1.09902491E-03, ]
- [ -7.36662925E-04,   1.90938429E-03,   7.36662925E-04, ]
- [ -7.36662925E-04,  -1.90938429E-03,   7.36662925E-04, ]
- [ -2.45426327E-03,   4.08291882E-14,   8.42590271E-04, ]
- [ -1.36807378E-02,   2.17193029E-18,   1.36807378E-02, ]
force_length_stats: {min:   4.82917759E-05, max:   1.96448955E-02, mean:   7.58598009E-03, }
...

 Integrated electronic density in atomic spheres:
 ------------------------------------------------
 Atom  Sphere_radius  Integrated_density
    1        2.20660          5.36095802
    2        2.20660          5.36095802
    3        1.80316          4.33729517
    4        2.30022          4.01001874
    5        1.80316          4.33729517
    6        2.30022          4.00867904
    7        2.30022          4.00867904
    8        2.30022          4.01001874
    9        2.21000          8.77281704

 PAW TEST:
 ==== Compensation charge inside spheres ============
 The following values must be close to each other ...
 Compensation charge over spherical meshes =     -5.487842034862955
 Compensation charge over fine fft grid    =     -5.487832243010796

 ==== Results concerning PAW augmentation regions ====

 Total pseudopotential strength Dij (hartree):
 Atom #  1
   0.44002  -0.14571  -0.00000   0.00000  -0.00000   0.00000  -0.00001   0.00001   0.00000  -0.00000  -0.00000   0.00000 ...
  -0.14571   0.04391   0.00000  -0.00000   0.00000  -0.00000   0.00000  -0.00000  -0.00000   0.00000   0.00000  -0.00000 ...
  -0.00000   0.00000  -0.09356  -0.00000   0.00000  -0.16655   0.00000  -0.00000  -0.00000   0.00000   0.00000   0.00000 ...
   0.00000  -0.00000  -0.00000  -0.09356   0.00000   0.00000  -0.16655  -0.00000   0.00000  -0.00000   0.00000  -0.00000 ...
  -0.00000   0.00000   0.00000   0.00000  -0.09356  -0.00000  -0.00000  -0.16655  -0.00000   0.00000   0.00000   0.00000 ...
   0.00000  -0.00000  -0.16655   0.00000  -0.00000   0.40390  -0.00001   0.00001   0.00000  -0.00000  -0.00000   0.00000 ...
  -0.00001   0.00000   0.00000  -0.16655  -0.00000  -0.00001   0.40390   0.00000   0.00000   0.00000  -0.00000   0.00000 ...
   0.00001  -0.00000  -0.00000  -0.00000  -0.16655   0.00001   0.00000   0.40390   0.00000   0.00000  -0.00000  -0.00000 ...
   0.00000  -0.00000  -0.00000   0.00000  -0.00000   0.00000   0.00000   0.00000   0.00523   0.00000  -0.00000  -0.00000 ...
  -0.00000   0.00000   0.00000  -0.00000   0.00000  -0.00000   0.00000   0.00000   0.00000   0.00523  -0.00000   0.00000 ...
  -0.00000   0.00000   0.00000   0.00000   0.00000  -0.00000  -0.00000  -0.00000  -0.00000  -0.00000   0.00523   0.00000 ...
   0.00000  -0.00000   0.00000  -0.00000   0.00000   0.00000   0.00000  -0.00000  -0.00000   0.00000   0.00000   0.00523 ...
   ...  only 12  components have been written...
 Atom #  9
   3.08794  -0.89952   0.00000  -0.00000   0.00000   0.00000  -0.00001   0.00001   0.00000   0.00000   0.00002   0.00000 ...
  -0.89952   0.26885   0.00000   0.00001  -0.00001   0.00000   0.00000  -0.00000   0.00000   0.00000   0.00000   0.00000 ...
   0.00000   0.00000   0.26578   0.00000   0.00000  -0.05392   0.00000   0.00000  -0.00012   0.00012   0.00000   0.00000 ...
  -0.00000   0.00001   0.00000   0.26587   0.00000   0.00000  -0.05393  -0.00000   0.00000   0.00000   0.00020  -0.00012 ...
   0.00000  -0.00001   0.00000   0.00000   0.26587   0.00000  -0.00000  -0.05393   0.00000   0.00000   0.00010   0.00012 ...
   0.00000   0.00000  -0.05392   0.00000   0.00000   0.01482   0.00000   0.00000   0.00002  -0.00002   0.00000   0.00000 ...
  -0.00001   0.00000   0.00000  -0.05393  -0.00000   0.00000   0.01482  -0.00000   0.00000   0.00000  -0.00003   0.00002 ...
   0.00001  -0.00000   0.00000  -0.00000  -0.05393   0.00000  -0.00000   0.01482   0.00000   0.00000  -0.00002  -0.00002 ...
   0.00000   0.00000  -0.00012   0.00000   0.00000   0.00002   0.00000   0.00000  -0.01798  -0.00000   0.00000   0.00000 ...
   0.00000   0.00000   0.00012   0.00000   0.00000  -0.00002   0.00000   0.00000  -0.00000  -0.01798   0.00000   0.00000 ...
   0.00002   0.00000   0.00000   0.00020   0.00010   0.00000  -0.00003  -0.00002   0.00000   0.00000  -0.01785  -0.00000 ...
   0.00000   0.00000   0.00000  -0.00012   0.00012   0.00000   0.00002  -0.00002   0.00000   0.00000  -0.00000  -0.01797 ...
   ...  only 12  components have been written...


 Augmentation waves occupancies Rhoij:
 Atom #  1
   1.99658  -0.01733  -0.00001  -0.00000   0.00000  -0.00001   0.00001  -0.00001   0.00154  -0.00154  -0.00031   0.00027 ...
  -0.01733   0.11013  -0.00079   0.00120  -0.00120   0.00002  -0.00004   0.00004  -0.01298   0.01298   0.00482  -0.00200 ...
  -0.00001  -0.00079   2.00823   0.00083  -0.00083  -0.00500  -0.00017   0.00017  -0.00093   0.00093   0.00028   0.00048 ...
  -0.00000   0.00120   0.00083   2.00882  -0.00015  -0.00017  -0.00514   0.00002   0.00064  -0.00053   0.00008  -0.00078 ...
   0.00000  -0.00120  -0.00083  -0.00015   2.00882   0.00017   0.00002  -0.00514  -0.00053   0.00064   0.00012   0.00078 ...
  -0.00001   0.00002  -0.00500  -0.00017   0.00017   0.00007   0.00001  -0.00001   0.00003  -0.00003  -0.00000  -0.00003 ...
   0.00001  -0.00004  -0.00017  -0.00514   0.00002   0.00001   0.00008  -0.00000  -0.00004   0.00001   0.00001   0.00003 ...
  -0.00001   0.00004   0.00017   0.00002  -0.00514  -0.00001  -0.00000   0.00008   0.00001  -0.00004   0.00000  -0.00003 ...
   0.00154  -0.01298  -0.00093   0.00064  -0.00053   0.00003  -0.00004   0.00001   0.02702   0.00077   0.00882   0.00017 ...
  -0.00154   0.01298   0.00093  -0.00053   0.00064  -0.00003   0.00001  -0.00004   0.00077   0.02702   0.00397  -0.00017 ...
  -0.00031   0.00482   0.00028   0.00008   0.00012  -0.00000   0.00001   0.00000   0.00882   0.00397   0.01901  -0.00064 ...
   0.00027  -0.00200   0.00048  -0.00078   0.00078  -0.00003   0.00003  -0.00003   0.00017  -0.00017  -0.00064   0.04184 ...
   ...  only 12  components have been written...
 Atom #  9
   1.99149  -0.07067   0.00000   0.00007  -0.00007   0.00000  -0.00094   0.00094   0.00000   0.00000  -0.00242  -0.00033 ...
  -0.07067   1.00818   0.00000  -0.00400   0.00400   0.00000  -0.02802   0.02802   0.00000   0.00000  -0.01041  -0.00129 ...
   0.00000   0.00000   1.96369   0.00000   0.00000  -0.21355   0.00000   0.00000  -0.00042   0.00042   0.00000   0.00000 ...
   0.00007  -0.00400   0.00000   1.96260  -0.00003   0.00000  -0.22485  -0.00028   0.00000   0.00000  -0.00614  -0.00050 ...
  -0.00007   0.00400   0.00000  -0.00003   1.96260   0.00000  -0.00028  -0.22485   0.00000   0.00000  -0.00310   0.00050 ...
   0.00000   0.00000  -0.21355   0.00000   0.00000   1.44269   0.00000   0.00000   0.03898  -0.03898   0.00000   0.00000 ...
  -0.00094  -0.02802   0.00000  -0.22485  -0.00028   0.00000   1.43496   0.00552   0.00000   0.00000   0.00110   0.03167 ...
   0.00094   0.02802   0.00000  -0.00028  -0.22485   0.00000   0.00552   1.43496   0.00000   0.00000   0.00154  -0.03167 ...
   0.00000   0.00000  -0.00042   0.00000   0.00000   0.03898   0.00000   0.00000   0.40919  -0.00098   0.00000   0.00000 ...
   0.00000   0.00000   0.00042   0.00000   0.00000  -0.03898   0.00000   0.00000  -0.00098   0.40919   0.00000   0.00000 ...
  -0.00242  -0.01041   0.00000  -0.00614  -0.00310   0.00000   0.00110   0.00154   0.00000   0.00000   1.22514  -0.00032 ...
  -0.00033  -0.00129   0.00000  -0.00050   0.00050   0.00000   0.03167  -0.03167   0.00000   0.00000  -0.00032   0.40374 ...
   ...  only 12  components have been written...



---OUTPUT-----------------------------------------------------------------------

 Cartesian coordinates (xcart) [bohr]
  5.55542297084514E+00  5.61576066962655E+00  5.60412037557698E+00
  1.67149663172673E+01  1.68496370030133E+01  1.67636637219992E+01
  1.10640683076523E+01  1.12326988363199E+01  5.08821736053399E+00
  1.11654984833129E+01  1.12326988363199E+01  1.69164966058549E+01
  1.72308693323103E+01  1.12326988363199E+01  1.12550183851920E+01
  1.11360668218471E+01  1.70007003803802E+01  1.11830198712895E+01
  1.11360668215549E+01  5.46469729225962E+00  1.11830198709972E+01
  5.40259008698938E+00  1.12326988363199E+01  1.11535882095314E+01
 -1.29202370324650E-01  1.24646990166573E-18  1.29202370324650E-01
 Reduced coordinates (xred)
  2.52174957882120E-01  2.50026206904592E-01  2.47772628308697E-01
  7.52227371691303E-01  7.49973793095408E-01  7.47825042117880E-01
  2.29886371812451E-01  2.23698325577436E-01  7.70113628187549E-01
  7.59950086159480E-01  7.58205386079623E-01  2.40049913840520E-01
  2.29886371812451E-01  7.76301674422564E-01  7.70113628187549E-01
  7.58872794334417E-01  2.43249524085432E-01  7.54628157494719E-01
  2.45371842505281E-01  7.56750475914568E-01  2.41127205665583E-01
  7.59950086159480E-01  2.41794613920377E-01  2.40049913840520E-01
  1.16801176360169E-02  4.27704474574570E-20 -1.16801176360169E-02
 Cartesian forces (fcart) [Ha/bohr]; max,rms= 1.96141E-02 6.58028E-03 (free atoms)
 -3.20935221947955E-05  1.64956746232370E-05  3.20935221947955E-05
 -3.20935221947955E-05 -1.64956746232368E-05  3.20935221947955E-05
 -1.09902490647242E-03  5.24731183873407E-13 -1.96141291497120E-02
 -8.42590270580901E-04 -4.08287682450976E-14  2.45426326645257E-03
  1.96141291497120E-02 -5.24734287061227E-13  1.09902490647242E-03
 -7.36662925429888E-04  1.90938429284696E-03  7.36662925429888E-04
 -7.36662925429888E-04 -1.90938429284696E-03  7.36662925429888E-04
 -2.45426326645257E-03  4.08291882382798E-14  8.42590270580901E-04
 -1.36807378109567E-02  2.17193028730386E-18  1.36807378109567E-02
 Reduced forces (fred)
 -5.40300994602466E-04 -2.04765075266257E-20  1.69719104312974E-04
 -1.69719104312976E-04 -2.04765075266257E-20  5.40300994602464E-04
  2.17979261962008E-01  2.31149340525216E-01  1.31700785632080E-02
 -2.72272280109469E-02 -1.79855346572293E-02  9.24169335371757E-03
 -1.31700785632080E-02 -2.31149340525216E-01 -2.17979261962008E-01
 -2.95963090588485E-02 -2.93227332934865E-19 -1.32987683898506E-02
  1.32987683898506E-02  3.91889419054036E-19  2.95963090588485E-02
 -9.24169335371758E-03  1.79855346572293E-02  2.72272280109469E-02
 -1.51332701266222E-01 -6.63038269206773E-18  1.51332701266222E-01
 Scale of Primitive Cell (acell) [bohr]
  1.57994373838573E+01  1.57819775499982E+01  1.57994373838573E+01
 Real space primitive translations (rprimd) [bohr]
  4.89039907265717E-02  1.12326988363199E+01  1.11106393559801E+01
  1.11595433461376E+01  0.00000000000000E+00  1.11595433461376E+01
  1.11106393559801E+01  1.12326988363199E+01  4.89039907265717E-02
 Unitary Cell Volume (ucvol) [Bohr^3]=  2.77321664730358E+03
 Angles (23,13,12)= [degrees]
  6.00365494235794E+01  5.93487378432821E+01  6.00365494235794E+01
 Lengths [Bohr]
  1.57994373838573E+01  1.57819775499982E+01  1.57994373838573E+01
 Stress tensor in cartesian coordinates (strten) [Ha/bohr^3]
  4.08876032077883E-05 -1.10393863392613E-13  1.45888587895128E-07
 -1.10393863392613E-13  1.27894286915693E-05 -1.10393679199486E-13
  1.45888587895128E-07 -1.10393679199486E-13  4.08876032077891E-05
 Total energy (etotal) [Ha]= -1.65816172678099E+02

 Difference of energy with previous step (new-old):
           Absolute (Ha)=-1.68502E-03
           Relative     =-1.01620E-05

--- Iteration: (   3/1000) Internal Cycle: (1/1)
--------------------------------------------------------------------------------

---SELF-CONSISTENT-FIELD CONVERGENCE--------------------------------------------

--- !BeginCycle
iteration_state: {dtset: 1, itime: 3, icycle: 1, }
solver: {iscf: 17, nstep: 2500, nline: 4, wfoptalg: 10, }
tolerances: {toldff: 1.00E-08, }
...

     iter   Etot(hartree)      deltaE(h)  residm     nres2    diffor    maxfor
 ETOT  1  -166.29784920720    -1.663E+02 1.191E+04 2.762E+02 1.171E+00 1.190E+00
 ETOT  2  -166.45125713167    -1.534E-01 1.095E+00 1.234E+02 1.690E+00 4.990E-01
 ETOT  3  -165.99561823679     4.556E-01 3.516E-01 3.812E+01 2.819E-01 2.171E-01
 ETOT  4  -165.84625988294     1.494E-01 1.950E-01 6.910E+00 1.446E-01 7.248E-02
 ETOT  5  -165.83381223798     1.245E-02 1.334E-02 3.383E+00 6.515E-03 6.596E-02
 ETOT  6  -165.82061940145     1.319E-02 1.842E-02 1.853E-01 7.926E-02 1.470E-02
 ETOT  7  -165.82077248806    -1.531E-04 3.204E-03 8.311E-02 2.032E-02 1.004E-02
 ETOT  8  -165.82050406285     2.684E-04 1.895E-03 3.073E-02 4.909E-03 1.194E-02
 ETOT  9  -165.82041415589     8.991E-05 1.631E-04 6.318E-03 2.851E-03 1.157E-02
 ETOT 10  -165.82042647173    -1.232E-05 2.345E-04 1.371E-03 1.054E-03 1.161E-02
 ETOT 11  -165.82043354662    -7.075E-06 8.937E-05 5.491E-04 2.306E-03 1.245E-02
 ETOT 12  -165.82043307362     4.730E-07 1.090E-04 4.504E-05 7.915E-04 1.210E-02
 ETOT 13  -165.82043329521    -2.216E-07 6.156E-05 8.597E-06 2.561E-04 1.218E-02
 ETOT 14  -165.82043332663    -3.142E-08 5.092E-05 1.527E-06 6.700E-05 1.219E-02
 ETOT 15  -165.82043333494    -8.311E-09 3.865E-05 4.097E-07 1.236E-05 1.218E-02
 ETOT 16  -165.82043333888    -3.939E-09 2.628E-05 5.362E-08 7.247E-06 1.219E-02
 ETOT 17  -165.82043334121    -2.336E-09 2.302E-05 1.828E-08 2.237E-06 1.219E-02
 ETOT 18  -165.82043334258    -1.364E-09 1.539E-05 2.909E-09 1.578E-06 1.219E-02
 ETOT 19  -165.82043334394    -1.358E-09 1.330E-05 9.067E-10 5.410E-07 1.219E-02
 ETOT 20  -165.82043334486    -9.243E-10 8.804E-06 1.618E-10 2.408E-07 1.219E-02
 ETOT 21  -165.82043334531    -4.513E-10 7.558E-06 7.650E-11 1.244E-07 1.219E-02
 ETOT 22  -165.82043334581    -5.004E-10 4.975E-06 2.506E-11 1.241E-07 1.219E-02
 ETOT 23  -165.82043334606    -2.495E-10 4.258E-06 8.931E-12 5.483E-08 1.219E-02
 ETOT 24  -165.82043334637    -3.100E-10 2.792E-06 2.787E-12 2.583E-08 1.219E-02
 ETOT 25  -165.82043334653    -1.590E-10 2.388E-06 6.980E-13 9.543E-09 1.219E-02
 ETOT 26  -165.82043334662    -9.047E-11 1.561E-06 2.264E-13 3.328E-09 1.219E-02

 At SCF step   26, forces are converged : 
  for the second time, max diff in force=  3.328E-09 < toldff=  1.000E-08

 Cartesian components of stress tensor (hartree/bohr^3)
  sigma(1 1)= -2.78601770E-05  sigma(3 2)= -1.15447544E-13
  sigma(2 2)= -1.76825730E-05  sigma(3 1)= -2.98629560E-06
  sigma(3 3)= -2.78601770E-05  sigma(2 1)= -1.15447272E-13


--- !ResultsGS
iteration_state: {dtset: 1, itime: 3, icycle: 1, }
comment   : Summary of ground state results
lattice_vectors:
- [  0.0472291,  11.1866725,  10.9650578, ]
- [ 11.0122869,   0.0000000,  11.0122869, ]
- [ 10.9650578,  11.1866725,   0.0472291, ]
lattice_lengths: [  15.66449,   15.57373,   15.66449, ]
lattice_angles: [ 60.191,  59.055,  60.191, ] # degrees, (23, 13, 12)
lattice_volume:   2.6899531E+03
convergence: {deltae: -9.047E-11, res2:  2.264E-13, residm:  1.561E-06, diffor:  3.328E-09, }
etotal    :  -1.65820433E+02
entropy   :   0.00000000E+00
fermie    :  -7.44032266E-02
cartesian_stress_tensor: # hartree/bohr^3
- [ -2.78601770E-05,  -1.15447272E-13,  -2.98629560E-06, ]
- [ -1.15447272E-13,  -1.76825730E-05,  -1.15447544E-13, ]
- [ -2.98629560E-06,  -1.15447544E-13,  -2.78601770E-05, ]
pressure_GPa:   7.1986E-01
xred      :
- [  2.5221E-01,   2.5002E-01,   2.4775E-01, Cs]
- [  7.5225E-01,   7.4998E-01,   7.4779E-01, Cs]
- [  2.2096E-01,   2.1380E-01,   7.7904E-01, Cl]
- [  7.6154E-01,   7.5898E-01,   2.3846E-01,  I]
- [  2.2096E-01,   7.8620E-01,   7.7904E-01, Cl]
- [  7.6049E-01,   2.4234E-01,   7.5483E-01,  I]
- [  2.4517E-01,   7.5766E-01,   2.3951E-01,  I]
- [  7.6154E-01,   2.4102E-01,   2.3846E-01,  I]
- [  2.4878E-02,   4.2770E-20,  -2.4878E-02, Zr]
cartesian_forces: # hartree/bohr
- [ -1.06085431E-04,  -4.31604374E-05,   1.06085431E-04, ]
- [ -1.06085431E-04,   4.31604374E-05,   1.06085431E-04, ]
- [ -4.85927618E-04,  -2.89158886E-13,   1.19001286E-02, ]
- [ -5.55881560E-04,   6.96391978E-14,  -2.19303150E-03, ]
- [ -1.19001286E-02,   2.89159897E-13,   4.85927618E-04, ]
- [ -6.12535895E-04,  -4.01533219E-03,   6.12535895E-04, ]
- [ -6.12535895E-04,   4.01533219E-03,   6.12535895E-04, ]
- [  2.19303150E-03,  -6.96392358E-14,   5.55881560E-04, ]
- [  1.21861489E-02,  -2.33997642E-18,  -1.21861489E-02, ]
force_length_stats: {min:   1.56112333E-04, max:   1.72338171E-02, mean:   6.01181425E-03, }
...

 Integrated electronic density in atomic spheres:
 ------------------------------------------------
 Atom  Sphere_radius  Integrated_density
    1        2.20660          5.36438104
    2        2.20660          5.36438104
    3        1.80316          4.36964274
    4        2.30022          4.01405765
    5        1.80316          4.36964274
    6        2.30022          4.01433705
    7        2.30022          4.01433705
    8        2.30022          4.01405765
    9        2.21000          8.85430581

 PAW TEST:
 ==== Compensation charge inside spheres ============
 The following values must be close to each other ...
 Compensation charge over spherical meshes =     -5.488119175599474
 Compensation charge over fine fft grid    =     -5.488116752489300

 ==== Results concerning PAW augmentation regions ====

 Total pseudopotential strength Dij (hartree):
 Atom #  1
   0.43871  -0.14529  -0.00000   0.00000  -0.00000   0.00000  -0.00001   0.00001   0.00001  -0.00001  -0.00000   0.00000 ...
  -0.14529   0.04377   0.00000  -0.00000   0.00000  -0.00000   0.00000  -0.00000  -0.00000   0.00000   0.00000  -0.00000 ...
  -0.00000   0.00000  -0.09340  -0.00000   0.00000  -0.16665   0.00000  -0.00000  -0.00000   0.00000   0.00000  -0.00000 ...
   0.00000  -0.00000  -0.00000  -0.09340   0.00000   0.00000  -0.16665  -0.00000  -0.00000  -0.00000   0.00000  -0.00000 ...
  -0.00000   0.00000   0.00000   0.00000  -0.09340  -0.00000  -0.00000  -0.16665  -0.00000  -0.00000   0.00000   0.00000 ...
   0.00000  -0.00000  -0.16665   0.00000  -0.00000   0.40352  -0.00002   0.00002   0.00000  -0.00000  -0.00000   0.00000 ...
  -0.00001   0.00000   0.00000  -0.16665  -0.00000  -0.00002   0.40351   0.00000   0.00000   0.00000  -0.00000   0.00000 ...
[...]
            rprim3     0.0000000000E+00  7.0710678119E-01  7.0710678119E-01
                       7.1143424933E-01 -6.7240479235E-03  7.0272049640E-01
                       7.1143424933E-01  7.0272049640E-01 -6.7240479235E-03
            rprim4     0.0000000000E+00  7.2654765382E-01  6.8711607952E-01
                       7.2654765382E-01  0.0000000000E+00  6.8711607952E-01
                       7.0710678119E-01  7.0710678119E-01  0.0000000000E+00
           shiftk      5.00000000E-01  5.00000000E-01  5.00000000E-01
          spgroup1         44
          spgroup2         44
          spgroup3         44
          spgroup4        139
           strten1     1.7275238583E-08 -3.9645638661E-08  1.7275238583E-08
                      -1.1189991136E-13  2.5126455009E-08 -1.1190172248E-13
           strten2    -3.9646059271E-08  1.7274803006E-08  1.7274803005E-08
                       2.5127175366E-08  7.2807963128E-14  7.2808800259E-14
           strten3    -3.4453609197E-08  2.4013917233E-08  2.4013917233E-08
                      -6.7450142118E-09  2.5677965560E-14  2.5678763662E-14
           strten4    -1.3322785888E-08 -1.3322785888E-08 -6.2750028013E-08
                       2.0211226373E-14  2.0210370792E-14 -3.8228607507E-14
           symafm1       1    1    1    1
           symafm2       1    1    1    1
           symafm3       1    1    1    1
           symafm4       1    1    1    1    1    1    1    1    1    1
                         1    1    1    1    1    1
           symrel1     1  0  0   0  1  0   0  0  1       1 -1  0   0 -1  0   0 -1  1
                       0  0 -1   0 -1  0  -1  0  0       0  1 -1   0  1  0  -1  1  0
           symrel2     1  0  0   0  1  0   0  0  1       1  0  0   1  0 -1   1 -1  0
                      -1  0  0   0  0 -1   0 -1  0      -1  0  0  -1  1  0  -1  0  1
           symrel3     1  0  0   0  1  0   0  0  1       1  0  0   1  0 -1   1 -1  0
                       1  0  0   0  0  1   0  1  0       1  0  0   1 -1  0   1  0 -1
           symrel4     1  0  0   0  1  0   0  0  1      -1  0  0   0 -1  0   0  0 -1
                      -1  0  1   0 -1  1   0  0  1       1  0 -1   0  1 -1   0  0 -1
                       0  1 -1   1  0 -1   0  0 -1       0 -1  1  -1  0  1   0  0  1
                       0 -1  0  -1  0  0   0  0 -1       0  1  0   1  0  0   0  0  1
                       1  0  0   1  0 -1   1 -1  0      -1  0  0  -1  0  1  -1  1  0
                       0 -1  0   0 -1  1   1 -1  0       0  1  0   0  1 -1  -1  1  0
                       0  1 -1   0  1  0  -1  1  0       0 -1  1   0 -1  0   1 -1  0
                      -1  0  1  -1  0  0  -1  1  0       1  0 -1   1  0  0   1 -1  0
            tnons1     0.0000000  0.0000000  0.0000000     0.0000000  0.0000000  0.0000000
                       0.0000000  0.0000000  0.0000000     0.0000000  0.0000000  0.0000000
            tnons2     0.0000000  0.0000000  0.0000000     0.0000000  0.0000000  0.0000000
                       0.0000000  0.0000000  0.0000000     0.0000000  0.0000000  0.0000000
            tnons3     0.0000000  0.0000000  0.0000000     0.0000000  0.0000000  0.0000000
                       0.0000000 -0.0000000  0.0000000     0.0000000 -0.0000000  0.0000000
            tnons4     0.0000000  0.0000000  0.0000000    -0.0000000  0.0000000  0.0000000
                      -0.0000000  0.0000000  0.0000000     0.0000000  0.0000000  0.0000000
                      -0.0000000  0.0000000  0.0000000    -0.0000000 -0.0000000  0.0000000
                      -0.0000000 -0.0000000  0.0000000    -0.0000000  0.0000000  0.0000000
                      -0.0000000  0.0000000  0.0000000    -0.0000000 -0.0000000  0.0000000
                      -0.0000000  0.0000000  0.0000000    -0.0000000  0.0000000  0.0000000
                      -0.0000000  0.0000000 -0.0000000    -0.0000000  0.0000000  0.0000000
                      -0.0000000 -0.0000000  0.0000000    -0.0000000  0.0000000 -0.0000000
           toldff      1.00000000E-08
           tolmxf      1.00000000E-05
            typat1     1  1  4  2  4  2  2  2  3
            typat2     1  1  4  2  2  4  2  2  3
            typat3     1  1  2  4  2  4  2  2  3
            typat4     1  1  4  4  2  2  2  2  3
           useylm           1
              wtk1       0.03125    0.03125    0.03125    0.03125    0.03125    0.03125
                         0.03125    0.03125    0.03125    0.03125    0.03125    0.03125
                         0.03125    0.03125    0.03125    0.03125    0.03125    0.03125
                         0.03125    0.03125    0.01563    0.03125    0.03125    0.03125
                         0.01563    0.01563    0.01563    0.01563    0.01563    0.01563
                         0.03125    0.01563    0.01563    0.01563    0.01563    0.01563
                         0.01563    0.01563    0.01563    0.01563
              wtk2       0.03125    0.03125    0.03125    0.03125    0.03125    0.03125
                         0.03125    0.03125    0.03125    0.03125    0.03125    0.03125
                         0.03125    0.03125    0.03125    0.03125    0.03125    0.03125
                         0.03125    0.03125    0.01563    0.01563    0.03125    0.01563
                         0.03125    0.03125    0.01563    0.01563    0.01563    0.01563
                         0.03125    0.01563    0.01563    0.01563    0.01563    0.01563
                         0.01563    0.01563    0.01563    0.01563
              wtk3       0.03125    0.03125    0.03125    0.03125    0.03125    0.03125
                         0.03125    0.03125    0.03125    0.03125    0.03125    0.03125
                         0.03125    0.03125    0.03125    0.03125    0.03125    0.03125
                         0.03125    0.03125    0.01563    0.01563    0.03125    0.01563
                         0.03125    0.03125    0.01563    0.01563    0.01563    0.01563
                         0.03125    0.01563    0.01563    0.01563    0.01563    0.01563
                         0.01563    0.01563    0.01563    0.01563
              wtk4       0.03125    0.03125    0.03125    0.06250    0.03125    0.03125
                         0.06250    0.03125    0.06250    0.06250    0.03125    0.06250
                         0.06250    0.06250    0.03125    0.06250    0.06250    0.06250
                         0.06250    0.06250
           xangst1     2.9412132088E+00  2.9962744881E+00  2.9692431149E+00
                       8.8516695325E+00  8.8582143491E+00  8.8796994386E+00
                       5.7996977140E+00  5.9272444186E+00  2.5961772776E+00
                       5.9151227490E+00  5.9272444186E+00  8.9484199332E+00
                       9.2247353697E+00  5.9272444186E+00  6.0212149333E+00
                       5.8868669608E+00  8.9552780320E+00  5.9340456867E+00
                       5.8868669606E+00  2.8992108052E+00  5.9340456866E+00
                       2.8724927142E+00  5.9272444186E+00  5.9057898984E+00
                      -9.5014620182E-02 -2.0889863566E-18  9.5014620182E-02
           xangst2     2.9962741768E+00  2.9412127954E+00  2.9692434034E+00
                       8.8582150198E+00  8.8516689942E+00  8.8796996022E+00
                       5.9272445983E+00  5.7996977603E+00  2.5961771545E+00
                       5.9272445983E+00  5.9151227779E+00  8.9484195645E+00
                       8.9552783828E+00  5.8868668442E+00  5.9340455533E+00
                       5.9272445983E+00  9.2247352431E+00  6.0212146373E+00
                       5.9272445983E+00  2.8724928331E+00  5.9057896197E+00
                       2.8992108138E+00  5.8868668443E+00  5.9340455534E+00
                      -6.7181149668E-18 -9.5014502156E-02  9.5014502156E-02
           xangst3     2.9301318091E+00  2.8855394416E+00  2.8855394416E+00
                       8.9239526960E+00  8.6839675629E+00  8.6839675629E+00
                       5.9270422526E+00  5.8027069879E+00  2.7602068982E+00
                       5.9270422526E+00  5.6874757070E+00  9.1127578310E+00
                       8.9548940798E+00  5.7749461688E+00  5.7749461688E+00
                       5.9270422526E+00  9.1127578310E+00  5.6874757070E+00
                       5.9270422526E+00  2.7602068982E+00  5.8027069879E+00
                       2.8991904253E+00  5.7749461689E+00  5.7749461689E+00
                       4.4688164091E-33 -9.5121796273E-02 -9.5121796273E-02
           xangst4     2.9886439253E+00  2.9886439253E+00  2.8264426789E+00
                       8.9659317758E+00  8.9659317758E+00  8.4793280366E+00
                       5.9772878505E+00  5.9772878505E+00  2.4472216107E+00
                       5.9772878505E+00  5.9772878505E+00  8.8585491047E+00
                       9.0474230670E+00  5.9772878505E+00  5.6528853577E+00
                       5.9772878505E+00  9.0474230670E+00  5.6528853577E+00
                       5.9772878505E+00  2.9071526340E+00  5.6528853577E+00
                       2.9071526340E+00  5.9772878505E+00  5.6528853577E+00
                       3.7686820147E-20 -1.2069046186E-20 -1.4646878322E-20
            xcart1     5.5580874631E+00  5.6621382014E+00  5.6110563091E+00
                       1.6727231235E+01  1.6739599146E+01  1.6780200081E+01
                       1.0959840333E+01  1.1200868674E+01  4.9060640471E+00
                       1.1177962038E+01  1.1200868674E+01  1.6910062996E+01
                       1.7432223497E+01  1.1200868674E+01  1.1378447211E+01
                       1.1124566337E+01  1.6923022924E+01  1.1213721208E+01
                       1.1124566336E+01  5.4787144233E+00  1.1213721208E+01
                       5.4282245485E+00  1.1200868674E+01  1.1160325506E+01
                      -1.7955161076E-01 -3.9476121093E-18  1.7955161076E-01
            xcart2     5.6621376132E+00  5.5580866818E+00  5.6110568543E+00
                       1.6739600414E+01  1.6727230218E+01  1.6780200390E+01
                       1.1200869013E+01  1.0959840420E+01  4.9060638144E+00
                       1.1200869013E+01  1.1177962093E+01  1.6910062299E+01
                       1.6923023587E+01  1.1124566116E+01  1.1213720956E+01
                       1.1200869013E+01  1.7432223258E+01  1.1378446652E+01
                       1.1200869013E+01  5.4282247732E+00  1.1160324980E+01
                       5.4787144396E+00  1.1124566117E+01  1.1213720956E+01
                      -1.2695397417E-17 -1.7955138773E-01  1.7955138773E-01
            xcart3     5.5371466525E+00  5.4528792903E+00  5.4528792903E+00
                       1.6863826618E+01  1.6410320441E+01  1.6410320441E+01
                       1.1200486635E+01  1.0965527037E+01  5.2160351078E+00
                       1.1200486635E+01  1.0747771474E+01  1.7220616616E+01
                       1.6922297360E+01  1.0913066691E+01  1.0913066691E+01
                       1.1200486635E+01  1.7220616616E+01  1.0747771474E+01
                       1.1200486635E+01  5.2160351078E+00  1.0965527037E+01
                       5.4786759109E+00  1.0913066691E+01  1.0913066691E+01
                       8.4448391513E-33 -1.7975414422E-01 -1.7975414422E-01
            xcart4     5.6477185274E+00  5.6477185274E+00  5.3412025933E+00
                       1.6943155582E+01  1.6943155582E+01  1.6023607780E+01
                       1.1295437055E+01  1.1295437055E+01  4.6245786307E+00
                       1.1295437055E+01  1.1295437055E+01  1.6740231743E+01
                       1.7097151805E+01  1.1295437055E+01  1.0682405187E+01
                       1.1295437055E+01  1.7097151805E+01  1.0682405187E+01
                       1.1295437055E+01  5.4937223048E+00  1.0682405187E+01
                       5.4937223048E+00  1.1295437055E+01  1.0682405187E+01
                       7.1217768897E-20 -2.2807191977E-20 -2.7678588731E-20
             xred1     2.5517158367E-01  2.4724557682E-01  2.5033726268E-01
                       7.4966273732E-01  7.5275442318E-01  7.4482841633E-01
                       2.2374423846E-01  2.1025607261E-01  7.7625576154E-01
                       7.6157654999E-01  7.5739383461E-01  2.3842345001E-01
                       2.2374423846E-01  7.8974392739E-01  7.7625576154E-01
                       7.5950196332E-01  2.4456649671E-01  7.5136504326E-01
                       2.4863495674E-01  7.5543350329E-01  2.4049803668E-01
                       7.6157654999E-01  2.4260616539E-01  2.3842345001E-01
                       1.6387182025E-02  4.3075102207E-20 -1.6387182025E-02
             xred2     2.4724561075E-01  2.5517161033E-01  2.5033716817E-01
                       7.5275438925E-01  7.4966283183E-01  7.4482838967E-01
                       2.1025608112E-01  2.2374421819E-01  7.7625578181E-01
                       7.5739383242E-01  7.6157652108E-01  2.3842347892E-01
                       2.4456649002E-01  7.5950196864E-01  7.5136505132E-01
                       7.8974391888E-01  2.2374421819E-01  7.7625578181E-01
                       2.4260616758E-01  7.6157652108E-01  2.3842347892E-01
                       7.5543350998E-01  2.4863494868E-01  2.4049803136E-01
                       4.7390786311E-19  1.6387162005E-02 -1.6387162005E-02
             xred3     2.5045836096E-01  2.4718330697E-01  2.4718330697E-01
                       7.4482497490E-01  7.5281669303E-01  7.5281669303E-01
                       2.3838234321E-01  2.4261757029E-01  7.5738242971E-01
                       7.7622807669E-01  7.8976414446E-01  2.1023585554E-01
                       2.4052340941E-01  7.5542688058E-01  7.5542688058E-01
                       7.7622807669E-01  2.1023585554E-01  7.8976414446E-01
                       2.3838234321E-01  7.5738242971E-01  2.4261757029E-01
                       7.5137717057E-01  2.4457311942E-01  2.4457311942E-01
                      -1.6404755614E-02 -2.8862260748E-19  2.8862260748E-19
             xred4     2.5000000000E-01  2.5000000000E-01  2.5000000000E-01
                       7.5000000000E-01  7.5000000000E-01  7.5000000000E-01
                       2.1645774289E-01  2.1645774289E-01  7.8354225711E-01
                       7.8354225711E-01  7.8354225711E-01  2.1645774289E-01
                       2.4318325524E-01  7.5681674476E-01  7.5681674476E-01
                       7.5681674476E-01  2.4318325524E-01  7.5681674476E-01
                       2.4318325524E-01  7.5681674476E-01  2.4318325524E-01
                       7.5681674476E-01  2.4318325524E-01  2.4318325524E-01
                      -5.4575994689E-21  2.8665548261E-21  3.4384485616E-21
            znucl       55.00000   53.00000   40.00000   17.00000

================================================================================


- Timing analysis has been suppressed with timopt=0



================================================================================

 Suggested references for the acknowledgment of ABINIT usage.

 The users of ABINIT have little formal obligations with respect to the ABINIT group
 (those specified in the GNU General Public License, http://www.gnu.org/copyleft/gpl.txt).
 However, it is common practice in the scientific literature,
 to acknowledge the efforts of people that have made the research possible.
 In this spirit, please find below suggested citations of work written by ABINIT developers,
 corresponding to implementations inside of ABINIT that you have used in the present run.
 Note also that it will be of great value to readers of publications presenting these results,
 to read papers enabling them to understand the theoretical formalism and details
 of the ABINIT implementation.
 For information on why they are suggested, see also https://docs.abinit.org/theory/acknowledgments.
-
- [1] Implementation of the Projector Augmented-Wave Method in the ABINIT code.
- M. Torrent, F. Jollet, F. Bottin, G. Zerah, and X. Gonze Comput. Mat. Science 42, 337, (2008).
- Comment: PAW calculations. Strong suggestion to cite this paper.
- DOI and bibtex: see https://docs.abinit.org/theory/bibliography/#torrent2008
-
- [2] Libxc: A library of exchange and correlation functionals for density functional theory.
- M.A.L. Marques, M.J.T. Oliveira, T. Burnus, Computer Physics Communications 183, 2227 (2012).
- Comment: to be cited when LibXC is used (negative value of ixc)
- Strong suggestion to cite this paper.
- DOI and bibtex: see https://docs.abinit.org/theory/bibliography/#marques2012
-
- [3] The Abinit project: Impact, environment and recent developments.
- Computer Phys. Comm. 248, 107042 (2020).
- X.Gonze, B. Amadon, G. Antonius, F.Arnardi, L.Baguet, J.-M.Beuken,
- J.Bieder, F.Bottin, J.Bouchet, E.Bousquet, N.Brouwer, F.Bruneval,
- G.Brunin, T.Cavignac, J.-B. Charraud, Wei Chen, M.Cote, S.Cottenier,
- J.Denier, G.Geneste, Ph.Ghosez, M.Giantomassi, Y.Gillet, O.Gingras,
- D.R.Hamann, G.Hautier, Xu He, N.Helbig, N.Holzwarth, Y.Jia, F.Jollet,
- W.Lafargue-Dit-Hauret, K.Lejaeghere, M.A.L.Marques, A.Martin, C.Martins,
- H.P.C. Miranda, F.Naccarato, K. Persson, G.Petretto, V.Planes, Y.Pouillon,
- S.Prokhorenko, F.Ricci, G.-M.Rignanese, A.H.Romero, M.M.Schmitt, M.Torrent,
- M.J.van Setten, B.Van Troeye, M.J.Verstraete, G.Zerah and J.W.Zwanzig
- Comment: the fifth generic paper describing the ABINIT project.
- Note that a version of this paper, that is not formatted for Computer Phys. Comm. 
- is available at https://www.abinit.org/sites/default/files/ABINIT20.pdf .
- The licence allows the authors to put it on the Web.
- DOI and bibtex: see https://docs.abinit.org/theory/bibliography/#gonze2020
-
- [4] ABINIT: Overview, and focus on selected capabilities
- J. Chem. Phys. 152, 124102 (2020).
- A. Romero, D.C. Allan, B. Amadon, G. Antonius, T. Applencourt, L.Baguet,
- J.Bieder, F.Bottin, J.Bouchet, E.Bousquet, F.Bruneval,
- G.Brunin, D.Caliste, M.Cote,
- J.Denier, C. Dreyer, Ph.Ghosez, M.Giantomassi, Y.Gillet, O.Gingras,
- D.R.Hamann, G.Hautier, F.Jollet, G. Jomard,
- A.Martin, 
- H.P.C. Miranda, F.Naccarato, G.Petretto, N.A. Pike, V.Planes,
- S.Prokhorenko, T. Rangel, F.Ricci, G.-M.Rignanese, M.Royo, M.Stengel, M.Torrent,
- M.J.van Setten, B.Van Troeye, M.J.Verstraete, J.Wiktor, J.W.Zwanziger, and X.Gonze.
- Comment: a global overview of ABINIT, with focus on selected capabilities .
- Note that a version of this paper, that is not formatted for J. Chem. Phys 
- is available at https://www.abinit.org/sites/default/files/ABINIT20_JPC.pdf .
- The licence allows the authors to put it on the Web.
- DOI and bibtex: see https://docs.abinit.org/theory/bibliography/#romero2020
-
- [5] Recent developments in the ABINIT software package.
- Computer Phys. Comm. 205, 106 (2016).
- X.Gonze, F.Jollet, F.Abreu Araujo, D.Adams, B.Amadon, T.Applencourt,
- C.Audouze, J.-M.Beuken, J.Bieder, A.Bokhanchuk, E.Bousquet, F.Bruneval
- D.Caliste, M.Cote, F.Dahm, F.Da Pieve, M.Delaveau, M.Di Gennaro,
- B.Dorado, C.Espejo, G.Geneste, L.Genovese, A.Gerossier, M.Giantomassi,
- Y.Gillet, D.R.Hamann, L.He, G.Jomard, J.Laflamme Janssen, S.Le Roux,
- A.Levitt, A.Lherbier, F.Liu, I.Lukacevic, A.Martin, C.Martins,
- M.J.T.Oliveira, S.Ponce, Y.Pouillon, T.Rangel, G.-M.Rignanese,
- A.H.Romero, B.Rousseau, O.Rubel, A.A.Shukri, M.Stankovski, M.Torrent,
- M.J.Van Setten, B.Van Troeye, M.J.Verstraete, D.Waroquier, J.Wiktor,
- B.Xu, A.Zhou, J.W.Zwanziger.
- Comment: the fourth generic paper describing the ABINIT project.
- Note that a version of this paper, that is not formatted for Computer Phys. Comm. 
- is available at https://www.abinit.org/sites/default/files/ABINIT16.pdf .
- The licence allows the authors to put it on the Web.
- DOI and bibtex: see https://docs.abinit.org/theory/bibliography/#gonze2016
-
- Proc.   0 individual time (sec): cpu=     103844.7  wall=     103847.6

================================================================================

 Calculation completed.
.Delivered   0 WARNINGs and 203 COMMENTs to log file.
+Overall time at end (sec) : cpu=     623069.8  wall=     623085.3
