
.Version 9.2.2 of ABINIT 
.(MPI version, prepared for a x86_64_linux_gnu9.3 computer) 

.Copyright (C) 1998-2020 ABINIT group . 
 ABINIT comes with ABSOLUTELY NO WARRANTY.
 It is free software, and you are welcome to redistribute it
 under certain conditions (GNU General Public License,
 see ~abinit/COPYING or http://www.gnu.org/copyleft/gpl.txt).

 ABINIT is a project of the Universite Catholique de Louvain,
 Corning Inc. and other collaborators, see ~abinit/doc/developers/contributors.txt .
 Please read https://docs.abinit.org/theory/acknowledgments for suggested
 acknowledgments of the ABINIT effort.
 For more information, see https://www.abinit.org .

.Starting date : Sun  6 Nov 2022.
- ( at 06h20 )
  
- input  file    -> Cs2TiI6.in
- output file    -> Cs2TiI6.out
- root for input  files -> Cs2TiI6i
- root for output files -> Cs2TiI6o

- inpspheads : Reading pseudopotential header in XML form from 
-   ../../../Psps_for_tests/ATOMICDATA/Cs.GGA_PBE-JTH.xml
- inpspheads : Reading pseudopotential header in XML form from 
-   ../../../Psps_for_tests/ATOMICDATA/I.GGA_PBE-JTH.xml
- inpspheads : Reading pseudopotential header in XML form from 
-   ../../../Psps_for_tests/ATOMICDATA/Hf.GGA_PBE-JTH.xml
- inpspheads : Reading pseudopotential header in XML form from 
-   ../../../Psps_for_tests/ATOMICDATA/Cl.GGA_PBE-JTH.xml

 DATASET    1 : space group Fm m 2 (# 42); Bravais oF (face-center ortho.)
================================================================================
 Values of the parameters that define the memory need for DATASET  1.
     intxc =       0    ionmov =       2      iscf =      17    lmnmax =      18
     lnmax =       6     mgfft =      64  mpssoang =       3    mqgrid =    3916
     natom =       9  nloc_mem =       2    nspden =       1   nspinor =       1
    nsppol =       1      nsym =       4    n1xccc =       1    ntypat =       4
    occopt =       1   xclevel =       2
-    mband =          42        mffmem =           1         mkmem =           6
       mpw =       10371          nfft =      262144          nkpt =          32
Pmy_natom=         2
 PAW method is used; the additional fine FFT grid is defined by:
   mgfftf=       100    nfftf =   1000000
================================================================================
P This job should need less than                     345.875 Mbytes of memory.
  Rough estimation (10% accuracy) of disk space for files :
_ WF disk file :    212.689 Mbytes ; DEN or POT disk file :      7.631 Mbytes.
================================================================================


 DATASET    2 : space group Fm m 2 (# 42); Bravais oF (face-center ortho.)
================================================================================
 Values of the parameters that define the memory need for DATASET  2.
     intxc =       0    ionmov =       2      iscf =      17    lmnmax =      18
     lnmax =       6     mgfft =      64  mpssoang =       3    mqgrid =    3912
     natom =       9  nloc_mem =       2    nspden =       1   nspinor =       1
    nsppol =       1      nsym =       4    n1xccc =       1    ntypat =       4
    occopt =       1   xclevel =       2
-    mband =          42        mffmem =           1         mkmem =           6
       mpw =       10336          nfft =      262144          nkpt =          32
Pmy_natom=         2
 PAW method is used; the additional fine FFT grid is defined by:
   mgfftf=       100    nfftf =   1000000
================================================================================
P This job should need less than                     345.795 Mbytes of memory.
  Rough estimation (10% accuracy) of disk space for files :
_ WF disk file :    211.971 Mbytes ; DEN or POT disk file :      7.631 Mbytes.
================================================================================


 DATASET    3 : space group Fm m 2 (# 42); Bravais oF (face-center ortho.)
================================================================================
 Values of the parameters that define the memory need for DATASET  3.
     intxc =       0    ionmov =       2      iscf =      17    lmnmax =      18
     lnmax =       6     mgfft =      64  mpssoang =       3    mqgrid =    3908
     natom =       9  nloc_mem =       2    nspden =       1   nspinor =       1
    nsppol =       1      nsym =       4    n1xccc =       1    ntypat =       4
    occopt =       1   xclevel =       2
-    mband =          42        mffmem =           1         mkmem =           6
       mpw =       10305          nfft =      262144          nkpt =          32
Pmy_natom=         2
 PAW method is used; the additional fine FFT grid is defined by:
   mgfftf=       100    nfftf =   1000000
================================================================================
P This job should need less than                     345.733 Mbytes of memory.
  Rough estimation (10% accuracy) of disk space for files :
_ WF disk file :    211.335 Mbytes ; DEN or POT disk file :      7.631 Mbytes.
================================================================================


 DATASET    4 : space group Fm m 2 (# 42); Bravais oF (face-center ortho.)
================================================================================
 Values of the parameters that define the memory need for DATASET  4.
     intxc =       0    ionmov =       2      iscf =      17    lmnmax =      18
     lnmax =       6     mgfft =      64  mpssoang =       3    mqgrid =    3905
     natom =       9  nloc_mem =       2    nspden =       1   nspinor =       1
    nsppol =       1      nsym =       4    n1xccc =       1    ntypat =       4
    occopt =       1   xclevel =       2
-    mband =          42        mffmem =           1         mkmem =           6
       mpw =       10270          nfft =      262144          nkpt =          32
Pmy_natom=         2
 PAW method is used; the additional fine FFT grid is defined by:
   mgfftf=       100    nfftf =   1000000
================================================================================
P This job should need less than                     345.653 Mbytes of memory.
  Rough estimation (10% accuracy) of disk space for files :
_ WF disk file :    210.617 Mbytes ; DEN or POT disk file :      7.631 Mbytes.
================================================================================


 DATASET    5 : space group Fm m 2 (# 42); Bravais oF (face-center ortho.)
================================================================================
 Values of the parameters that define the memory need for DATASET  5.
     intxc =       0    ionmov =       2      iscf =      17    lmnmax =      18
     lnmax =       6     mgfft =      64  mpssoang =       3    mqgrid =    3901
     natom =       9  nloc_mem =       2    nspden =       1   nspinor =       1
    nsppol =       1      nsym =       4    n1xccc =       1    ntypat =       4
    occopt =       1   xclevel =       2
-    mband =          42        mffmem =           1         mkmem =           6
       mpw =       10234          nfft =      262144          nkpt =          32
Pmy_natom=         2
 PAW method is used; the additional fine FFT grid is defined by:
   mgfftf=       100    nfftf =   1000000
================================================================================
P This job should need less than                     345.570 Mbytes of memory.
  Rough estimation (10% accuracy) of disk space for files :
_ WF disk file :    209.879 Mbytes ; DEN or POT disk file :      7.631 Mbytes.
================================================================================


 DATASET    6 : space group Fm m 2 (# 42); Bravais oF (face-center ortho.)
================================================================================
 Values of the parameters that define the memory need for DATASET  6.
     intxc =       0    ionmov =       2      iscf =      17    lmnmax =      18
     lnmax =       6     mgfft =      64  mpssoang =       3    mqgrid =    3897
     natom =       9  nloc_mem =       2    nspden =       1   nspinor =       1
    nsppol =       1      nsym =       4    n1xccc =       1    ntypat =       4
    occopt =       1   xclevel =       2
-    mband =          42        mffmem =           1         mkmem =           6
       mpw =       10207          nfft =      262144          nkpt =          32
Pmy_natom=         2
 PAW method is used; the additional fine FFT grid is defined by:
   mgfftf=       100    nfftf =   1000000
================================================================================
P This job should need less than                     345.525 Mbytes of memory.
  Rough estimation (10% accuracy) of disk space for files :
_ WF disk file :    209.325 Mbytes ; DEN or POT disk file :      7.631 Mbytes.
================================================================================


 DATASET    7 : space group Fm m 2 (# 42); Bravais oF (face-center ortho.)
================================================================================
 Values of the parameters that define the memory need for DATASET  7.
     intxc =       0    ionmov =       2      iscf =      17    lmnmax =      18
     lnmax =       6     mgfft =      64  mpssoang =       3    mqgrid =    3893
     natom =       9  nloc_mem =       2    nspden =       1   nspinor =       1
    nsppol =       1      nsym =       4    n1xccc =       1    ntypat =       4
    occopt =       1   xclevel =       2
-    mband =          42        mffmem =           1         mkmem =           6
       mpw =       10176          nfft =      262144          nkpt =          32
Pmy_natom=         2
 PAW method is used; the additional fine FFT grid is defined by:
   mgfftf=       100    nfftf =   1000000
================================================================================
P This job should need less than                     345.464 Mbytes of memory.
  Rough estimation (10% accuracy) of disk space for files :
_ WF disk file :    208.690 Mbytes ; DEN or POT disk file :      7.631 Mbytes.
================================================================================


 DATASET    8 : space group Fm m 2 (# 42); Bravais oF (face-center ortho.)
================================================================================
 Values of the parameters that define the memory need for DATASET  8.
     intxc =       0    ionmov =       2      iscf =      17    lmnmax =      18
     lnmax =       6     mgfft =      64  mpssoang =       3    mqgrid =    3889
     natom =       9  nloc_mem =       2    nspden =       1   nspinor =       1
    nsppol =       1      nsym =       4    n1xccc =       1    ntypat =       4
    occopt =       1   xclevel =       2
-    mband =          42        mffmem =           1         mkmem =           6
       mpw =       10148          nfft =      262144          nkpt =          32
Pmy_natom=         2
 PAW method is used; the additional fine FFT grid is defined by:
   mgfftf=       100    nfftf =   1000000
================================================================================
P This job should need less than                     345.415 Mbytes of memory.
  Rough estimation (10% accuracy) of disk space for files :
_ WF disk file :    208.115 Mbytes ; DEN or POT disk file :      7.631 Mbytes.
================================================================================


 DATASET    9 : space group Fm m 2 (# 42); Bravais oF (face-center ortho.)
================================================================================
 Values of the parameters that define the memory need for DATASET  9.
     intxc =       0    ionmov =       2      iscf =      17    lmnmax =      18
     lnmax =       6     mgfft =      64  mpssoang =       3    mqgrid =    3885
     natom =       9  nloc_mem =       2    nspden =       1   nspinor =       1
    nsppol =       1      nsym =       4    n1xccc =       1    ntypat =       4
    occopt =       1   xclevel =       2
-    mband =          42        mffmem =           1         mkmem =           6
       mpw =       10118          nfft =      262144          nkpt =          32
Pmy_natom=         2
 PAW method is used; the additional fine FFT grid is defined by:
   mgfftf=       100    nfftf =   1000000
================================================================================
P This job should need less than                     345.358 Mbytes of memory.
  Rough estimation (10% accuracy) of disk space for files :
_ WF disk file :    207.500 Mbytes ; DEN or POT disk file :      7.631 Mbytes.
================================================================================


 DATASET   10 : space group Fm m 2 (# 42); Bravais oF (face-center ortho.)
================================================================================
 Values of the parameters that define the memory need for DATASET 10.
     intxc =       0    ionmov =       2      iscf =      17    lmnmax =      18
     lnmax =       6     mgfft =      64  mpssoang =       3    mqgrid =    3881
     natom =       9  nloc_mem =       2    nspden =       1   nspinor =       1
    nsppol =       1      nsym =       4    n1xccc =       1    ntypat =       4
    occopt =       1   xclevel =       2
-    mband =          42        mffmem =           1         mkmem =           6
       mpw =       10087          nfft =      262144          nkpt =          32
Pmy_natom=         2
 PAW method is used; the additional fine FFT grid is defined by:
   mgfftf=       100    nfftf =   1000000
================================================================================
P This job should need less than                     345.298 Mbytes of memory.
  Rough estimation (10% accuracy) of disk space for files :
_ WF disk file :    206.864 Mbytes ; DEN or POT disk file :      7.631 Mbytes.
================================================================================

--------------------------------------------------------------------------------
------------- Echo of variables that govern the present computation ------------
--------------------------------------------------------------------------------
-
- outvars: echo of selected default values                                      
-   iomode0 =  0 , fftalg0 =112 , wfoptalg0 = 10
-
- outvars: echo of global parameters not present in the input file              
-  max_nthreads =    0
-
 -outvars: echo values of preprocessed input variables --------
            acell1     1.4689164403E+01  1.4799241942E+01  1.4481435856E+01 Bohr
            acell2     1.4674460534E+01  1.4784427886E+01  1.4466939924E+01 Bohr
            acell3     1.4659756666E+01  1.4769613830E+01  1.4452443993E+01 Bohr
            acell4     1.4645052798E+01  1.4754799774E+01  1.4437948061E+01 Bohr
            acell5     1.4630348930E+01  1.4739985718E+01  1.4423452129E+01 Bohr
            acell6     1.4615645061E+01  1.4725171662E+01  1.4408956197E+01 Bohr
            acell7     1.4600941193E+01  1.4710357606E+01  1.4394460265E+01 Bohr
            acell8     1.4586237325E+01  1.4695543550E+01  1.4379964334E+01 Bohr
            acell9     1.4571533457E+01  1.4680729494E+01  1.4365468402E+01 Bohr
            acell10    1.4556829588E+01  1.4665915438E+01  1.4350972470E+01 Bohr
              amu      1.32905430E+02  1.26904470E+02  1.78490000E+02
                       3.54527000E+01
           diemac      1.20000000E+01
          dilatmx      1.15000000E+00
             ecut      1.60000000E+01 Hartree
           ecutsm      5.00000000E-01 Hartree
-          fftalg         112
          getxred1          0
          getxred2         -1
          getxred3         -1
          getxred4         -1
          getxred5         -1
          getxred6         -1
          getxred7         -1
          getxred8         -1
          getxred9         -1
          getxred10        -1
           ionmov           2
              ixc     -101130
           jdtset        1    2    3    4    5    6    7    8    9   10
              kpt      0.00000000E+00 -1.25000000E-01  0.00000000E+00
                       0.00000000E+00 -3.75000000E-01  0.00000000E+00
                       1.25000000E-01 -2.50000000E-01  0.00000000E+00
                       0.00000000E+00 -2.50000000E-01  1.25000000E-01
                       1.25000000E-01 -1.25000000E-01  1.25000000E-01
                       1.25000000E-01  5.00000000E-01  0.00000000E+00
                       2.50000000E-01 -3.75000000E-01  0.00000000E+00
                       0.00000000E+00  5.00000000E-01  1.25000000E-01
                       1.25000000E-01 -3.75000000E-01  1.25000000E-01
                       2.50000000E-01 -2.50000000E-01  1.25000000E-01
                       0.00000000E+00 -3.75000000E-01  2.50000000E-01
                       1.25000000E-01 -2.50000000E-01  2.50000000E-01
                       2.50000000E-01 -1.25000000E-01  2.50000000E-01
                       1.25000000E-01  2.50000000E-01  0.00000000E+00
                       2.50000000E-01  3.75000000E-01  0.00000000E+00
                       3.75000000E-01  5.00000000E-01  0.00000000E+00
                       0.00000000E+00  2.50000000E-01  1.25000000E-01
                       1.25000000E-01  3.75000000E-01  1.25000000E-01
                       2.50000000E-01  5.00000000E-01  1.25000000E-01
                       3.75000000E-01 -3.75000000E-01  1.25000000E-01
                       0.00000000E+00  3.75000000E-01  2.50000000E-01
                       1.25000000E-01  5.00000000E-01  2.50000000E-01
                       2.50000000E-01 -3.75000000E-01  2.50000000E-01
                       3.75000000E-01 -2.50000000E-01  2.50000000E-01
                       0.00000000E+00  5.00000000E-01  3.75000000E-01
                       1.25000000E-01 -3.75000000E-01  3.75000000E-01
                       2.50000000E-01 -2.50000000E-01  3.75000000E-01
                       3.75000000E-01 -1.25000000E-01  3.75000000E-01
                       5.00000000E-01  2.50000000E-01  1.25000000E-01
                      -3.75000000E-01  3.75000000E-01  1.25000000E-01
                       1.25000000E-01  2.50000000E-01  5.00000000E-01
                       1.25000000E-01  3.75000000E-01 -3.75000000E-01
         kptrlatt        4    4   -4     -4    4    4      4   -4    4
          kptrlen1     8.12829081E+01
          kptrlen2     8.12015438E+01
          kptrlen3     8.11201795E+01
          kptrlen4     8.10388152E+01
          kptrlen5     8.09574510E+01
          kptrlen6     8.08760867E+01
          kptrlen7     8.07947224E+01
          kptrlen8     8.07133582E+01
          kptrlen9     8.06319939E+01
          kptrlen10    8.05506296E+01
P           mkmem           6
            natom           9
            nband          42
           ndtset          10
            ngfft          64      64      64
          ngfftdg         100     100     100
             nkpt          32
            nstep        2500
             nsym           4
            ntime        1000
           ntypat           4
              occ      2.000000  2.000000  2.000000  2.000000  2.000000  2.000000
                       2.000000  2.000000  2.000000  2.000000  2.000000  2.000000
                       2.000000  2.000000  2.000000  2.000000  2.000000  2.000000
                       2.000000  2.000000  2.000000  2.000000  2.000000  2.000000
                       2.000000  2.000000  2.000000  2.000000  2.000000  2.000000
                       2.000000  2.000000  2.000000  2.000000  2.000000  2.000000
                       0.000000  0.000000  0.000000  0.000000  0.000000  0.000000
          optcell           3
        optforces           1
        pawecutdg      4.00000000E+01 Hartree
            prtwf           0
            rprim      0.0000000000E+00  6.9169104714E-01  7.2219353037E-01
                       6.9725639674E-01  0.0000000000E+00  7.1682181691E-01
                       7.1255821692E-01  7.0161298983E-01  0.0000000000E+00
           shiftk     -5.00000000E-01  5.00000000E-01  5.00000000E-01
          spgroup          42
           symrel      1  0  0   0  1  0   0  0  1       0  1 -1   1  0 -1   0  0 -1
                       1  0  0   1  0 -1   1 -1  0       0  1 -1   0  1  0  -1  1  0
           toldff      1.00000000E-08
           tolmxf      1.00000000E-05
            typat      1  1  4  4  2  4  2  2  3
           useylm           1
              wtk        0.03125    0.03125    0.03125    0.03125    0.03125    0.03125
                         0.03125    0.03125    0.03125    0.03125    0.03125    0.03125
                         0.03125    0.03125    0.03125    0.03125    0.03125    0.03125
                         0.03125    0.03125    0.03125    0.03125    0.03125    0.03125
                         0.03125    0.03125    0.03125    0.03125    0.03125    0.03125
                         0.03125    0.03125
           xangst1     2.7302543824E+00  2.6883163996E+00  2.8100931944E+00
                       8.1907631471E+00  8.0649491989E+00  8.4238270119E+00
                       5.4605087649E+00  8.3199188570E+00  5.6858233802E+00
                       5.4605087649E+00  5.3766327994E+00  2.5420464809E+00
                       5.4605087646E+00  5.3766327992E+00  8.4622520337E+00
                       5.4605087646E+00  2.4333467415E+00  5.6858233800E+00
                       8.0682580270E+00  5.3766327994E+00  5.5963642588E+00
                       2.8527595024E+00  5.3766327992E+00  5.5963642589E+00
                      -5.9662334661E-12 -3.9086169315E-12  1.0727654118E-01
           xangst2     2.7275213950E+00  2.6856253922E+00  2.8072802883E+00
                       8.1825641850E+00  8.0568761767E+00  8.4153947527E+00
                       5.4550427902E+00  8.3115906099E+00  5.6801318653E+00
                       5.4550427902E+00  5.3712507846E+00  2.5395018899E+00
                       5.4550427898E+00  5.3712507844E+00  8.4537813109E+00
                       5.4550427898E+00  2.4309109590E+00  5.6801318651E+00
                       8.0601816927E+00  5.3712507846E+00  5.5907622925E+00
                       2.8499038873E+00  5.3712507844E+00  5.5907622927E+00
                      -5.9602621683E-12 -3.9047040693E-12  1.0716915725E-01
           xangst3     2.7247884076E+00  2.6829343848E+00  2.8044673822E+00
                       8.1743652229E+00  8.0488031545E+00  8.4069624934E+00
                       5.4495768154E+00  8.3032623628E+00  5.6744403504E+00
                       5.4495768154E+00  5.3658687698E+00  2.5369572988E+00
                       5.4495768151E+00  5.3658687695E+00  8.4453105882E+00
                       5.4495768151E+00  2.4284751765E+00  5.6744403502E+00
                       8.0521053583E+00  5.3658687697E+00  5.5851603263E+00
                       2.8470482722E+00  5.3658687696E+00  5.5851603264E+00
                      -5.9542872931E-12 -3.9007842086E-12  1.0706177332E-01
           xangst4     2.7220554203E+00  2.6802433774E+00  2.8016544761E+00
                       8.1661662608E+00  8.0407301323E+00  8.3985302341E+00
                       5.4441108407E+00  8.2949341157E+00  5.6687488355E+00
                       5.4441108407E+00  5.3604867549E+00  2.5344127077E+00
                       5.4441108403E+00  5.3604867547E+00  8.4368398654E+00
                       5.4441108403E+00  2.4260393939E+00  5.6687488353E+00
                       8.0440290239E+00  5.3604867549E+00  5.5795583601E+00
                       2.8441926571E+00  5.3604867547E+00  5.5795583602E+00
                      -5.9483124180E-12 -3.8968806734E-12  1.0695438940E-01
           xangst5     2.7193224329E+00  2.6775523700E+00  2.7988415700E+00
                       8.1579672987E+00  8.0326571100E+00  8.3900979748E+00
                       5.4386448659E+00  8.2866058686E+00  5.6630573206E+00
                       5.4386448659E+00  5.3551047401E+00  2.5318681166E+00
                       5.4386448656E+00  5.3551047399E+00  8.4283691427E+00
                       5.4386448656E+00  2.4236036114E+00  5.6630573205E+00
                       8.0359526896E+00  5.3551047401E+00  5.5739563939E+00
                       2.8413370420E+00  5.3551047399E+00  5.5739563940E+00
                      -5.9423306520E-12 -3.8929554148E-12  1.0684700547E-01
           xangst6     2.7165894455E+00  2.6748613626E+00  2.7960286639E+00
                       8.1497683365E+00  8.0245840878E+00  8.3816657156E+00
                       5.4331788912E+00  8.2782776215E+00  5.6573658057E+00
                       5.4331788912E+00  5.3497227253E+00  2.5293235256E+00
                       5.4331788909E+00  5.3497227251E+00  8.4198984199E+00
                       5.4331788909E+00  2.4211678289E+00  5.6573658056E+00
                       8.0278763552E+00  5.3497227253E+00  5.5683544276E+00
                       2.8384814268E+00  5.3497227251E+00  5.5683544278E+00
                      -5.9363631112E-12 -3.8890445264E-12  1.0673962155E-01
           xangst7     2.7138564581E+00  2.6721703552E+00  2.7932157578E+00
                       8.1415693744E+00  8.0165110656E+00  8.3732334563E+00
                       5.4277129165E+00  8.2699493744E+00  5.6516742908E+00
                       5.4277129165E+00  5.3443407105E+00  2.5267789345E+00
                       5.4277129161E+00  5.3443407103E+00  8.4114276971E+00
                       5.4277129161E+00  2.4187320464E+00  5.6516742907E+00
                       8.0198000209E+00  5.3443407105E+00  5.5627524614E+00
                       2.8356258117E+00  5.3443407103E+00  5.5627524615E+00
                      -5.9304029142E-12 -3.8851320003E-12  1.0663223762E-01
           xangst8     2.7111234708E+00  2.6694793478E+00  2.7904028517E+00
                       8.1333704123E+00  8.0084380434E+00  8.3648011970E+00
                       5.4222469417E+00  8.2616211273E+00  5.6459827759E+00
                       5.4222469417E+00  5.3389586957E+00  2.5242343434E+00
                       5.4222469414E+00  5.3389586955E+00  8.4029569744E+00
                       5.4222469414E+00  2.4162962638E+00  5.6459827758E+00
                       8.0117236865E+00  5.3389586957E+00  5.5571504952E+00
                       2.8327701966E+00  5.3389586955E+00  5.5571504953E+00
                      -5.9244149234E-12 -3.8812246201E-12  1.0652485370E-01
           xangst9     2.7083904834E+00  2.6667883404E+00  2.7875899456E+00
                       8.1251714502E+00  8.0003650211E+00  8.3563689378E+00
                       5.4167809670E+00  8.2532928802E+00  5.6402912610E+00
                       5.4167809670E+00  5.3335766809E+00  2.5216897524E+00
                       5.4167809667E+00  5.3335766807E+00  8.3944862516E+00
                       5.4167809666E+00  2.4138604813E+00  5.6402912609E+00
                       8.0036473521E+00  5.3335766809E+00  5.5515485290E+00
                       2.8299145815E+00  5.3335766807E+00  5.5515485291E+00
                      -5.9184494543E-12 -3.8773156589E-12  1.0641746977E-01
           xangst10    2.7056574960E+00  2.6640973330E+00  2.7847770395E+00
                       8.1169724881E+00  7.9922919989E+00  8.3479366785E+00
                       5.4113149922E+00  8.2449646331E+00  5.6345997461E+00
                       5.4113149922E+00  5.3281946661E+00  2.5191451613E+00
                       5.4113149919E+00  5.3281946658E+00  8.3860155289E+00
                       5.4113149919E+00  2.4114246988E+00  5.6345997460E+00
                       7.9955710178E+00  5.3281946660E+00  5.5459465627E+00
                       2.8270589664E+00  5.3281946659E+00  5.5459465628E+00
                      -5.9124672354E-12 -3.8733884544E-12  1.0631008585E-01
            xcart1     5.1594330558E+00  5.0801817539E+00  5.3103065454E+00
                       1.5478299167E+01  1.5240545262E+01  1.5918726043E+01
                       1.0318866112E+01  1.5722368088E+01  1.0744649028E+01
                       1.0318866112E+01  1.0160363508E+01  4.8037716660E+00
                       1.0318866111E+01  1.0160363508E+01  1.5991338811E+01
                       1.0318866111E+01  4.5983589278E+00  1.0744649028E+01
                       1.5246798041E+01  1.0160363508E+01  1.0575595789E+01
                       5.3909341826E+00  1.0160363508E+01  1.0575595789E+01
                      -1.1274547296E-11 -7.3862155588E-12  2.0272328330E-01
            xcart2     5.1542684581E+00  5.0750964868E+00  5.3049909232E+00
                       1.5462805374E+01  1.5225289461E+01  1.5902791383E+01
                       1.0308536917E+01  1.5706629981E+01  1.0733893624E+01
                       1.0308536917E+01  1.0150192974E+01  4.7989630858E+00
                       1.0308536916E+01  1.0150192973E+01  1.5975331465E+01
                       1.0308536916E+01  4.5937559659E+00  1.0733893624E+01
                       1.5231535980E+01  1.0150192974E+01  1.0565009607E+01
                       5.3855378521E+00  1.0150192973E+01  1.0565009607E+01
                      -1.1263263178E-11 -7.3788213209E-12  2.0252035709E-01
            xcart3     5.1491038605E+00  5.0700112198E+00  5.2996753010E+00
                       1.5447311581E+01  1.5210033659E+01  1.5886856722E+01
                       1.0298207721E+01  1.5690891875E+01  1.0723138220E+01
                       1.0298207721E+01  1.0140022440E+01  4.7941545055E+00
                       1.0298207721E+01  1.0140022439E+01  1.5959324119E+01
                       1.0298207721E+01  4.5891530040E+00  1.0723138219E+01
                       1.5216273920E+01  1.0140022440E+01  1.0554423425E+01
                       5.3801415216E+00  1.0140022439E+01  1.0554423425E+01
                      -1.1251972301E-11 -7.3714138578E-12  2.0231743089E-01
            xcart4     5.1439392628E+00  5.0649259528E+00  5.2943596789E+00
                       1.5431817788E+01  1.5194777858E+01  1.5870922061E+01
                       1.0287878526E+01  1.5675153769E+01  1.0712382815E+01
                       1.0287878526E+01  1.0129851906E+01  4.7893459253E+00
                       1.0287878525E+01  1.0129851905E+01  1.5943316773E+01
                       1.0287878525E+01  4.5845500421E+00  1.0712382815E+01
                       1.5201011860E+01  1.0129851906E+01  1.0543837243E+01
                       5.3747451910E+00  1.0129851905E+01  1.0543837243E+01
                      -1.1240681423E-11 -7.3640372453E-12  2.0211450468E-01
            xcart5     5.1387746652E+00  5.0598406858E+00  5.2890440567E+00
                       1.5416323995E+01  1.5179522057E+01  1.5854987401E+01
                       1.0277549331E+01  1.5659415663E+01  1.0701627411E+01
                       1.0277549331E+01  1.0119681372E+01  4.7845373450E+00
                       1.0277549330E+01  1.0119681371E+01  1.5927309426E+01
                       1.0277549330E+01  4.5799470802E+00  1.0701627410E+01
                       1.5185749800E+01  1.0119681372E+01  1.0533251061E+01
                       5.3693488605E+00  1.0119681371E+01  1.0533251061E+01
                      -1.1229377523E-11 -7.3566195815E-12  2.0191157847E-01
            xcart6     5.1336100675E+00  5.0547554188E+00  5.2837284345E+00
                       1.5400830203E+01  1.5164266256E+01  1.5839052740E+01
                       1.0267220135E+01  1.5643677557E+01  1.0690872006E+01
                       1.0267220135E+01  1.0109510838E+01  4.7797287648E+00
                       1.0267220135E+01  1.0109510837E+01  1.5911302080E+01
                       1.0267220135E+01  4.5753441183E+00  1.0690872006E+01
                       1.5170487740E+01  1.0109510838E+01  1.0522664879E+01
                       5.3639525300E+00  1.0109510837E+01  1.0522664879E+01
                      -1.1218100505E-11 -7.3492290735E-12  2.0170865226E-01
            xcart7     5.1284454699E+00  5.0496701517E+00  5.2784128124E+00
                       1.5385336410E+01  1.5149010455E+01  1.5823118079E+01
                       1.0256890940E+01  1.5627939450E+01  1.0680116602E+01
                       1.0256890940E+01  1.0099340304E+01  4.7749201846E+00
                       1.0256890939E+01  1.0099340303E+01  1.5895294734E+01
                       1.0256890939E+01  4.5707411565E+00  1.0680116602E+01
                       1.5155225680E+01  1.0099340304E+01  1.0512078697E+01
                       5.3585561995E+00  1.0099340303E+01  1.0512078697E+01
                      -1.1206837365E-11 -7.3418354706E-12  2.0150572605E-01
            xcart8     5.1232808722E+00  5.0445848847E+00  5.2730971902E+00
                       1.5369842617E+01  1.5133754654E+01  1.5807183418E+01
                       1.0246561745E+01  1.5612201344E+01  1.0669361197E+01
                       1.0246561745E+01  1.0089169770E+01  4.7701116043E+00
                       1.0246561744E+01  1.0089169769E+01  1.5879287388E+01
                       1.0246561744E+01  4.5661381946E+00  1.0669361197E+01
                       1.5139963620E+01  1.0089169770E+01  1.0501492515E+01
                       5.3531598690E+00  1.0089169769E+01  1.0501492515E+01
                      -1.1195521703E-11 -7.3344515922E-12  2.0130279984E-01
            xcart9     5.1181162745E+00  5.0394996177E+00  5.2677815680E+00
                       1.5354348824E+01  1.5118498853E+01  1.5791248758E+01
                       1.0236232549E+01  1.5596463238E+01  1.0658605793E+01
                       1.0236232549E+01  1.0078999236E+01  4.7653030241E+00
                       1.0236232549E+01  1.0078999235E+01  1.5863280042E+01
                       1.0236232549E+01  4.5615352327E+00  1.0658605793E+01
                       1.5124701560E+01  1.0078999236E+01  1.0490906333E+01
                       5.3477635385E+00  1.0078999235E+01  1.0490906333E+01
                      -1.1184248600E-11 -7.3270647260E-12  2.0109987363E-01
            xcart10    5.1129516769E+00  5.0344143507E+00  5.2624659459E+00
                       1.5338855031E+01  1.5103243052E+01  1.5775314097E+01
                       1.0225903354E+01  1.5580725132E+01  1.0647850389E+01
                       1.0225903354E+01  1.0068828702E+01  4.7604944438E+00
                       1.0225903353E+01  1.0068828701E+01  1.5847272696E+01
                       1.0225903353E+01  4.5569322708E+00  1.0647850388E+01
                       1.5109439500E+01  1.0068828702E+01  1.0480320151E+01
                       5.3423672080E+00  1.0068828701E+01  1.0480320151E+01
                      -1.1172943845E-11 -7.3196433851E-12  2.0089694742E-01
             xred      2.5028735649E-01  2.5028735649E-01  2.4971264351E-01
                       7.5028735649E-01  7.5028735649E-01  7.4971264351E-01
                       7.8013172615E-01  2.3270991632E-01  7.6729008368E-01
                       2.2641316489E-01  2.2641316489E-01  7.7358683511E-01
                       7.5370976865E-01  7.5370976865E-01  2.4629023135E-01
                       2.3270991632E-01  7.8013172615E-01  2.1986827385E-01
                       2.5967031301E-01  7.3723556831E-01  7.4032968699E-01
                       7.3723556831E-01  2.5967031301E-01  2.6276443169E-01
                       9.5548296965E-03  9.5548296965E-03 -9.5548296965E-03
            znucl       55.00000   53.00000   72.00000   17.00000

================================================================================

 chkinp: Checking input parameters for consistency, jdtset=   1.

 chkinp: Checking input parameters for consistency, jdtset=   2.

 chkinp: Checking input parameters for consistency, jdtset=   3.

 chkinp: Checking input parameters for consistency, jdtset=   4.

 chkinp: Checking input parameters for consistency, jdtset=   5.

 chkinp: Checking input parameters for consistency, jdtset=   6.

 chkinp: Checking input parameters for consistency, jdtset=   7.

 chkinp: Checking input parameters for consistency, jdtset=   8.

 chkinp: Checking input parameters for consistency, jdtset=   9.

 chkinp: Checking input parameters for consistency, jdtset=  10.

================================================================================
== DATASET  1 ==================================================================
-   mpi_nproc: 6, omp_nthreads: -1 (-1 if OMP is not activated)


--- !DatasetInfo
iteration_state: {dtset: 1, }
dimensions: {natom: 9, nkpt: 32, mband: 42, nsppol: 1, nspinor: 1, nspden: 1, mpw: 10371, }
cutoff_energies: {ecut:  16.0, pawecutdg:  40.0, }
electrons: {nelect:   7.20000000E+01, charge:   0.00000000E+00, occopt:   1.00000000E+00, tsmear:   1.00000000E-02, }
meta: {optdriver: 0, ionmov: 2, optcell: 3, iscf: 17, paral_kgb: 0, }
...

 Real(R)+Recip(G) space primitive vectors, cartesian coordinates (Bohr,Bohr^-1):
 R(1)=  0.0000000 10.1603635 10.6084195  G(1)= -0.0484549  0.0492108  0.0471324
 R(2)= 10.3188661  0.0000000 10.6084195  G(2)=  0.0484549 -0.0492108  0.0471324
 R(3)= 10.3188661 10.1603635  0.0000000  G(3)=  0.0484549  0.0492108 -0.0471324
 Unit cell volume ucvol=  2.2244462E+03 bohr^3
 Angles (23,13,12)=  6.02091236E+01  6.09679083E+01  5.88229681E+01 degrees

 Coarse grid specifications (used for wave-functions):

 getcut: wavevector=  0.0000  0.0000  0.0000  ngfft=  64  64  64
         ecut(hartree)=     21.160   => boxcut(ratio)=   2.08897

 Fine grid specifications (used for densities):

 getcut: wavevector=  0.0000  0.0000  0.0000  ngfft= 100 100 100
         ecut(hartree)=     52.900   => boxcut(ratio)=   2.06396

--- Pseudopotential description ------------------------------------------------
- pspini: atom type   1  psp file is ../../../Psps_for_tests/ATOMICDATA/Cs.GGA_PBE-JTH.xml
- pspatm: opening atomic psp file    ../../../Psps_for_tests/ATOMICDATA/Cs.GGA_PBE-JTH.xml
- pspatm : Reading pseudopotential header in XML form from ../../../Psps_for_tests/ATOMICDATA/Cs.GGA_PBE-JTH.xml
 Pseudopotential format is: paw10
 basis_size (lnmax)=  6 (lmn_size= 18), orbitals=   0   0   1   1   2   2
 Spheres core radius: rc_sph= 2.20660278
 1 radial meshes are used:
  - mesh 1: r(i)=AA*[exp(BB*(i-1))-1], size=1500 , AA= 0.15922E-03 BB= 0.87573E-02
 Shapefunction is SIN type: shapef(r)=[sin(pi*r/rshp)/(pi*r/rshp)]**2
 Radius for shape functions =  2.00394208
 mmax= 1500
 Radial grid used for partial waves is grid 1
 Radial grid used for projectors is grid 1
 Radial grid used for (t)core density is grid 1
 Radial grid used for Vloc is grid 1
 Radial grid used for pseudo valence density is grid 1
 Mesh size for Vloc has been set to 1341 to avoid numerical noise.
 Compensation charge density is not taken into account in XC energy/potential
 pspatm: atomic psp has been read  and splines computed

- pspini: atom type   2  psp file is ../../../Psps_for_tests/ATOMICDATA/I.GGA_PBE-JTH.xml
- pspatm: opening atomic psp file    ../../../Psps_for_tests/ATOMICDATA/I.GGA_PBE-JTH.xml
- pspatm : Reading pseudopotential header in XML form from ../../../Psps_for_tests/ATOMICDATA/I.GGA_PBE-JTH.xml
 Pseudopotential format is: paw10
 basis_size (lnmax)=  4 (lmn_size=  8), orbitals=   0   0   1   1
 Spheres core radius: rc_sph= 2.30022271
 1 radial meshes are used:
  - mesh 1: r(i)=AA*[exp(BB*(i-1))-1], size=2000 , AA= 0.12610E-03 BB= 0.66836E-02
 Shapefunction is SIN type: shapef(r)=[sin(pi*r/rshp)/(pi*r/rshp)]**2
 Radius for shape functions =  2.10879093
 mmax= 2000
 Radial grid used for partial waves is grid 1
 Radial grid used for projectors is grid 1
 Radial grid used for (t)core density is grid 1
 Radial grid used for Vloc is grid 1
 Radial grid used for pseudo valence density is grid 1
 Mesh size for Vloc has been set to 1792 to avoid numerical noise.
 Compensation charge density is not taken into account in XC energy/potential
 pspatm: atomic psp has been read  and splines computed

- pspini: atom type   3  psp file is ../../../Psps_for_tests/ATOMICDATA/Hf.GGA_PBE-JTH.xml
- pspatm: opening atomic psp file    ../../../Psps_for_tests/ATOMICDATA/Hf.GGA_PBE-JTH.xml
- pspatm : Reading pseudopotential header in XML form from ../../../Psps_for_tests/ATOMICDATA/Hf.GGA_PBE-JTH.xml
 Pseudopotential format is: paw10
 basis_size (lnmax)=  6 (lmn_size= 18), orbitals=   0   0   1   1   2   2
 Spheres core radius: rc_sph= 2.41000000
 1 radial meshes are used:
  - mesh 1: r(i)=AA*[exp(BB*(i-1))-1], size= 972 , AA= 0.19796E-03 BB= 0.14253E-01
 Shapefunction is SIN type: shapef(r)=[sin(pi*r/rshp)/(pi*r/rshp)]**2
 Radius for shape functions =  2.41000000
 mmax=  972
 Radial grid used for partial waves is grid 1
 Radial grid used for projectors is grid 1
 Radial grid used for (t)core density is grid 1
 Radial grid used for Vloc is grid 1
 Radial grid used for pseudo valence density is grid 1
 Mesh size for Vloc has been set to  809 to avoid numerical noise.
 Compensation charge density is not taken into account in XC energy/potential
 pspatm: atomic psp has been read  and splines computed

- pspini: atom type   4  psp file is ../../../Psps_for_tests/ATOMICDATA/Cl.GGA_PBE-JTH.xml
- pspatm: opening atomic psp file    ../../../Psps_for_tests/ATOMICDATA/Cl.GGA_PBE-JTH.xml
- pspatm : Reading pseudopotential header in XML form from ../../../Psps_for_tests/ATOMICDATA/Cl.GGA_PBE-JTH.xml
 Pseudopotential format is: paw10
 basis_size (lnmax)=  4 (lmn_size=  8), orbitals=   0   0   1   1
 Spheres core radius: rc_sph= 1.80315674
 1 radial meshes are used:
  - mesh 1: r(i)=AA*[exp(BB*(i-1))-1], size=1400 , AA= 0.50355E-03 BB= 0.85603E-02
 Shapefunction is SIN type: shapef(r)=[sin(pi*r/rshp)/(pi*r/rshp)]**2
 Radius for shape functions =  1.61320365
 mmax= 1400
 Radial grid used for partial waves is grid 1
 Radial grid used for projectors is grid 1
 Radial grid used for (t)core density is grid 1
 Radial grid used for Vloc is grid 1
 Radial grid used for pseudo valence density is grid 1
 Mesh size for Vloc has been set to 1238 to avoid numerical noise.
 Compensation charge density is not taken into account in XC energy/potential
 pspatm: atomic psp has been read  and splines computed

   3.28895151E+04                                ecore*ucvol(ha*bohr**3)
--------------------------------------------------------------------------------

_setup2: Arith. and geom. avg. npw (full set) are   10340.844   10340.836

================================================================================

=== [ionmov= 2] Broyden-Fletcher-Goldfard-Shanno method (forces)            
================================================================================

--- Iteration: (   1/1000) Internal Cycle: (1/1)
--------------------------------------------------------------------------------

---SELF-CONSISTENT-FIELD CONVERGENCE--------------------------------------------

--- !BeginCycle
iteration_state: {dtset: 1, itime: 1, icycle: 1, }
solver: {iscf: 17, nstep: 2500, nline: 4, wfoptalg: 10, }
tolerances: {toldff: 1.00E-08, }
...

     iter   Etot(hartree)      deltaE(h)  residm     nres2    diffor    maxfor
 ETOT  1  -170.19164980635    -1.702E+02 4.711E+00 9.107E+00 6.922E-02 6.922E-02
 ETOT  2  -171.85399780397    -1.662E+00 2.690E-02 4.661E+00 8.021E-02 3.282E-02
 ETOT  3  -171.83874521362     1.525E-02 1.919E-02 6.720E-01 6.619E-02 3.397E-02
 ETOT  4  -171.84024181382    -1.497E-03 9.974E-03 1.768E-01 3.984E-02 5.865E-03
 ETOT  5  -171.84033787486    -9.606E-05 2.916E-03 2.563E-02 1.415E-02 8.284E-03
 ETOT  6  -171.84039725290    -5.938E-05 1.740E-03 2.302E-03 7.859E-03 6.969E-04
 ETOT  7  -171.84041082519    -1.357E-05 1.382E-03 7.988E-04 5.557E-04 2.297E-04
 ETOT  8  -171.84041630260    -5.477E-06 8.861E-04 1.597E-04 7.076E-04 4.779E-04
 ETOT  9  -171.84041684860    -5.460E-07 9.290E-04 9.654E-05 2.894E-04 6.092E-04
 ETOT 10  -171.84041685429    -5.687E-09 5.269E-04 5.971E-06 9.212E-05 5.536E-04
 ETOT 11  -171.84041690201    -4.772E-08 4.356E-04 7.927E-06 7.908E-05 6.327E-04
 ETOT 12  -171.84041689281     9.195E-09 1.911E-04 9.815E-07 2.276E-05 6.100E-04
 ETOT 13  -171.84041689666    -3.852E-09 1.456E-04 4.207E-07 2.726E-05 6.095E-04
 ETOT 14  -171.84041689603     6.359E-10 1.082E-04 4.222E-08 5.949E-06 6.070E-04
 ETOT 15  -171.84041689611    -7.935E-11 1.056E-04 3.050E-08 3.355E-06 6.098E-04
 ETOT 16  -171.84041689601     9.871E-11 7.183E-05 1.211E-08 2.066E-06 6.089E-04
 ETOT 17  -171.84041689603    -1.603E-11 8.587E-05 6.210E-10 4.682E-07 6.088E-04
 ETOT 18  -171.84041689604    -1.242E-11 4.932E-05 1.379E-09 5.059E-07 6.089E-04
 ETOT 19  -171.84041689603     8.100E-12 6.620E-05 1.074E-10 4.189E-07 6.090E-04
 ETOT 20  -171.84041689603    -4.206E-12 3.650E-05 2.799E-10 9.254E-08 6.090E-04
 ETOT 21  -171.84041689603     9.095E-13 5.199E-05 2.387E-11 1.192E-07 6.090E-04
 ETOT 22  -171.84041689603     2.842E-13 2.700E-05 3.394E-11 1.068E-07 6.089E-04
 ETOT 23  -171.84041689603     2.558E-12 4.129E-05 1.122E-11 2.441E-08 6.089E-04
 ETOT 24  -171.84041689604    -6.082E-12 2.003E-05 9.351E-14 2.670E-08 6.089E-04
 ETOT 25  -171.84041689604     7.674E-13 3.189E-05 8.364E-13 1.025E-08 6.090E-04
 ETOT 26  -171.84041689603     1.251E-12 1.636E-05 1.160E-13 6.259E-09 6.089E-04
 ETOT 27  -171.84041689604    -3.894E-12 2.412E-05 7.101E-14 4.941E-09 6.089E-04

 At SCF step   27, forces are converged : 
  for the second time, max diff in force=  4.941E-09 < toldff=  1.000E-08

 Cartesian components of stress tensor (hartree/bohr^3)
  sigma(1 1)= -6.03934922E-05  sigma(3 2)=  9.87590419E-14
  sigma(2 2)= -6.09750804E-05  sigma(3 1)=  5.05332753E-13
  sigma(3 3)= -6.06810908E-05  sigma(2 1)= -6.29147694E-13


--- !ResultsGS
iteration_state: {dtset: 1, itime: 1, icycle: 1, }
comment   : Summary of ground state results
lattice_vectors:
- [  0.0000000,  10.1603635,  10.6084195, ]
- [ 10.3188661,   0.0000000,  10.6084195, ]
- [ 10.3188661,  10.1603635,   0.0000000, ]
lattice_lengths: [  14.68916,   14.79924,   14.48144, ]
lattice_angles: [ 60.209,  60.968,  58.823, ] # degrees, (23, 13, 12)
lattice_volume:   2.2244462E+03
convergence: {deltae: -3.894E-12, res2:  7.101E-14, residm:  2.412E-05, diffor:  4.941E-09, }
etotal    :  -1.71840417E+02
entropy   :   0.00000000E+00
fermie    :  -6.13547900E-02
cartesian_stress_tensor: # hartree/bohr^3
- [ -6.03934922E-05,  -6.29147694E-13,   5.05332753E-13, ]
- [ -6.29147694E-13,  -6.09750804E-05,   9.87590419E-14, ]
- [  5.05332753E-13,   9.87590419E-14,  -6.06810908E-05, ]
pressure_GPa:   1.7854E+00
xred      :
- [  2.5029E-01,   2.5029E-01,   2.4971E-01, Cs]
- [  7.5029E-01,   7.5029E-01,   7.4971E-01, Cs]
- [  7.8013E-01,   2.3271E-01,   7.6729E-01, Cl]
- [  2.2641E-01,   2.2641E-01,   7.7359E-01, Cl]
- [  7.5371E-01,   7.5371E-01,   2.4629E-01,  I]
- [  2.3271E-01,   7.8013E-01,   2.1987E-01, Cl]
- [  2.5967E-01,   7.3724E-01,   7.4033E-01,  I]
- [  7.3724E-01,   2.5967E-01,   2.6276E-01,  I]
- [  9.5548E-03,   9.5548E-03,  -9.5548E-03, Hf]
cartesian_forces: # hartree/bohr
- [ -8.97859181E-17,   9.11799074E-17,  -4.25318769E-06, ]
- [ -8.97857540E-17,   9.11797407E-17,  -4.25318769E-06, ]
- [  2.24651512E-14,  -6.08945581E-04,  -1.63141795E-05, ]
- [  1.25880662E-14,  -1.27844832E-14,   5.96342943E-04, ]
- [ -8.23577574E-15,   8.36427064E-15,  -3.90157969E-04, ]
- [ -2.31538080E-14,   6.08945581E-04,  -1.63141795E-05, ]
- [ -4.08818588E-04,   2.42219825E-14,  -2.25180880E-05, ]
- [  4.08818588E-04,  -2.32564667E-14,  -2.25180880E-05, ]
- [ -2.53335208E-15,   2.57286657E-15,  -1.20014064E-04, ]
force_length_stats: {min:   4.25318769E-06, max:   6.09164078E-04, mean:   3.50247340E-04, }
...

 Integrated electronic density in atomic spheres:
 ------------------------------------------------
 Atom  Sphere_radius  Integrated_density
    1        2.20660          5.37317507
    2        2.20660          5.37317507
    3        1.80316          4.36532653
    4        1.80316          4.37697704
    5        2.30022          4.03748616
    6        1.80316          4.36532653
    7        2.30022          4.03062494
    8        2.30022          4.03062494
    9        2.41000          9.32284571

 PAW TEST:
 ==== Compensation charge inside spheres ============
 The following values must be close to each other ...
 Compensation charge over spherical meshes =     -1.024652481988214
 Compensation charge over fine fft grid    =     -1.024646794764510

 ==== Results concerning PAW augmentation regions ====

 Total pseudopotential strength Dij (hartree):
 Atom #  1
   0.43293  -0.14340   0.00000   0.00000   0.00000   0.00000  -0.00001   0.00000   0.00000   0.00000  -0.00000   0.00000 ...
  -0.14340   0.04316   0.00000  -0.00000   0.00000   0.00000   0.00000   0.00000  -0.00000   0.00000   0.00000   0.00000 ...
   0.00000   0.00000  -0.09267   0.00000   0.00000  -0.16711   0.00000  -0.00000   0.00000   0.00000   0.00000  -0.00000 ...
   0.00000  -0.00000   0.00000  -0.09267   0.00000   0.00000  -0.16711   0.00000  -0.00000   0.00000   0.00000   0.00000 ...
   0.00000   0.00000   0.00000   0.00000  -0.09267  -0.00000   0.00000  -0.16711   0.00000  -0.00000   0.00000   0.00000 ...
   0.00000   0.00000  -0.16711   0.00000  -0.00000   0.40180   0.00000   0.00002   0.00000  -0.00000   0.00000   0.00000 ...
  -0.00001   0.00000   0.00000  -0.16711   0.00000   0.00000   0.40181   0.00000   0.00000   0.00000  -0.00000   0.00000 ...
   0.00000   0.00000  -0.00000   0.00000  -0.16711   0.00002   0.00000   0.40182   0.00000   0.00000   0.00000  -0.00000 ...
   0.00000  -0.00000   0.00000  -0.00000   0.00000   0.00000   0.00000   0.00000   0.00535   0.00000  -0.00000   0.00000 ...
   0.00000   0.00000   0.00000   0.00000  -0.00000  -0.00000   0.00000   0.00000   0.00000   0.00535   0.00000   0.00000 ...
  -0.00000   0.00000   0.00000   0.00000   0.00000   0.00000  -0.00000   0.00000  -0.00000   0.00000   0.00535   0.00000 ...
   0.00000   0.00000  -0.00000   0.00000   0.00000   0.00000   0.00000  -0.00000   0.00000   0.00000   0.00000   0.00535 ...
   ...  only 12  components have been written...
 Atom #  9
  -3.50854   0.42473   0.00000   0.00027   0.00000   0.00000  -0.00005   0.00000   0.00000   0.00000  -0.00006   0.00000 ...
   0.42473   0.00354   0.00000  -0.00003   0.00000   0.00000   0.00001   0.00000   0.00000   0.00000   0.00001   0.00000 ...
   0.00000   0.00000  -1.43930   0.00000   0.00000   0.12005   0.00000   0.00000   0.00000   0.00012   0.00000   0.00000 ...
   0.00027  -0.00003   0.00000  -1.44010   0.00000   0.00000   0.12019   0.00000   0.00000   0.00000   0.00014   0.00000 ...
   0.00000   0.00000   0.00000   0.00000  -1.44039   0.00000   0.00000   0.12024   0.00000   0.00000   0.00000   0.00011 ...
   0.00000   0.00000   0.12005   0.00000   0.00000   0.01394   0.00000   0.00000   0.00000  -0.00002   0.00000   0.00000 ...
  -0.00005   0.00001   0.00000   0.12019   0.00000   0.00000   0.01392   0.00000   0.00000   0.00000  -0.00002   0.00000 ...
   0.00000   0.00000   0.00000   0.00000   0.12024   0.00000   0.00000   0.01391   0.00000   0.00000   0.00000  -0.00002 ...
   0.00000   0.00000   0.00000   0.00000   0.00000   0.00000   0.00000   0.00000  -0.39088   0.00000   0.00000   0.00000 ...
   0.00000   0.00000   0.00012   0.00000   0.00000  -0.00002   0.00000   0.00000   0.00000  -0.39082   0.00000   0.00000 ...
  -0.00006   0.00001   0.00000   0.00014   0.00000   0.00000  -0.00002   0.00000   0.00000   0.00000  -0.39028   0.00000 ...
   0.00000   0.00000   0.00000   0.00000   0.00011   0.00000   0.00000  -0.00002   0.00000   0.00000   0.00000  -0.39102 ...
   ...  only 12  components have been written...


 Augmentation waves occupancies Rhoij:
 Atom #  1
   1.99801  -0.01397   0.00000  -0.00003   0.00000   0.00000   0.00002   0.00000   0.00432   0.00000  -0.00054   0.00000 ...
  -0.01397   0.17236   0.00000   0.00142   0.00000   0.00000  -0.00001   0.00000  -0.03075   0.00000  -0.00185   0.00000 ...
   0.00000   0.00000   2.01002   0.00000  -0.00305  -0.00527   0.00000   0.00047   0.00000  -0.00076   0.00000  -0.00113 ...
  -0.00003   0.00142   0.00000   2.00898   0.00000   0.00000  -0.00503   0.00000  -0.00132   0.00000   0.00036   0.00000 ...
   0.00000   0.00000  -0.00305   0.00000   2.00658   0.00047   0.00000  -0.00466   0.00000  -0.00134   0.00000   0.00364 ...
   0.00000   0.00000  -0.00527   0.00000   0.00047   0.00015   0.00000  -0.00003   0.00000   0.00008   0.00000   0.00003 ...
   0.00002  -0.00001   0.00000  -0.00503   0.00000   0.00000   0.00012   0.00000   0.00004   0.00000   0.00001   0.00000 ...
   0.00000   0.00000   0.00047   0.00000  -0.00466  -0.00003   0.00000   0.00010   0.00000   0.00004   0.00000  -0.00014 ...
   0.00432  -0.03075   0.00000  -0.00132   0.00000   0.00000   0.00004   0.00000   0.06325   0.00000   0.02216   0.00000 ...
   0.00000   0.00000  -0.00076   0.00000  -0.00134   0.00008   0.00000   0.00004   0.00000   0.08169   0.00000  -0.00015 ...
  -0.00054  -0.00185   0.00000   0.00036   0.00000   0.00000   0.00001   0.00000   0.02216   0.00000   0.04153   0.00000 ...
   0.00000   0.00000  -0.00113   0.00000   0.00364   0.00003   0.00000  -0.00014   0.00000  -0.00015   0.00000   0.02613 ...
   ...  only 12  components have been written...
 Atom #  9
   1.99789  -0.02194   0.00000  -0.00002   0.00000   0.00000  -0.00056   0.00000   0.00000   0.00000  -0.00065   0.00000 ...
  -0.02194   1.00910   0.00000  -0.00286   0.00000   0.00000   0.04290   0.00000   0.00000   0.00000  -0.00842   0.00000 ...
   0.00000   0.00000   1.99193   0.00000   0.00000  -0.07253   0.00000   0.00000   0.00000   0.00129   0.00000   0.00000 ...
  -0.00002  -0.00286   0.00000   1.99241   0.00000   0.00000  -0.06608   0.00000   0.00000   0.00000   0.00009   0.00000 ...
   0.00000   0.00000   0.00000   0.00000   1.99275   0.00000   0.00000  -0.06089   0.00000   0.00000   0.00000   0.00158 ...
   0.00000   0.00000  -0.07253   0.00000   0.00000   1.53201   0.00000   0.00000   0.00000  -0.01679   0.00000   0.00000 ...
  -0.00056   0.04290   0.00000  -0.06608   0.00000   0.00000   1.32724   0.00000   0.00000   0.00000   0.17982   0.00000 ...
   0.00000   0.00000   0.00000   0.00000  -0.06089   0.00000   0.00000   1.17202   0.00000   0.00000   0.00000  -0.05089 ...
   0.00000   0.00000   0.00000   0.00000   0.00000   0.00000   0.00000   0.00000   0.51263   0.00000   0.00000   0.00000 ...
   0.00000   0.00000   0.00129   0.00000   0.00000  -0.01679   0.00000   0.00000   0.00000   0.53860   0.00000   0.00000 ...
  -0.00065  -0.00842   0.00000   0.00009   0.00000   0.00000   0.17982   0.00000   0.00000   0.00000   1.54204   0.00000 ...
   0.00000   0.00000   0.00000   0.00000   0.00158   0.00000   0.00000  -0.05089   0.00000   0.00000   0.00000   0.47731 ...
   ...  only 12  components have been written...



---OUTPUT-----------------------------------------------------------------------

 Cartesian coordinates (xcart) [bohr]
  5.15943305577655E+00  5.08018175386065E+00  5.31030654536996E+00
  1.54782991673303E+01  1.52405452615824E+01  1.59187260433443E+01
  1.03188661118692E+01  1.57223680876445E+01  1.07446490284584E+01
  1.03188661118766E+01  1.01603635079332E+01  4.80377166603432E+00
  1.03188661112544E+01  1.01603635075256E+01  1.59913388111208E+01
  1.03188661112232E+01  4.59835892778906E+00  1.07446490282199E+01
  1.52467980405263E+01  1.01603635079075E+01  1.05755957889364E+01
  5.39093418258491E+00  1.01603635075384E+01  1.05755957891444E+01
 -1.12745472957523E-11 -7.38621555883667E-12  2.02723283304350E-01
 Reduced coordinates (xred)
  2.50287356490000E-01  2.50287356490000E-01  2.49712643510000E-01
  7.50287356490000E-01  7.50287356490000E-01  7.49712643510000E-01
  7.80131726150000E-01  2.32709916320000E-01  7.67290083680000E-01
  2.26413164890000E-01  2.26413164890000E-01  7.73586835110000E-01
  7.53709768650000E-01  7.53709768650000E-01  2.46290231350000E-01
  2.32709916320000E-01  7.80131726150000E-01  2.19868273850000E-01
  2.59670313010000E-01  7.37235568310000E-01  7.40329686990000E-01
  7.37235568310000E-01  2.59670313010000E-01  2.62764431690000E-01
  9.55482969650000E-03  9.55482969650000E-03 -9.55482969650000E-03
 Cartesian forces (fcart) [Ha/bohr]; max,rms= 6.08946E-04 2.43412E-04 (free atoms)
 -8.97859181357513E-17  9.11799074308817E-17 -4.25318768544372E-06
 -8.97857539640413E-17  9.11797406980780E-17 -4.25318768544372E-06
  2.24651511934628E-14 -6.08945581266932E-04 -1.63141795391638E-05
  1.25880661858610E-14 -1.27844832248078E-14  5.96342942664019E-04
 -8.23577573516961E-15  8.36427063979961E-15 -3.90157968705913E-04
 -2.31538079874305E-14  6.08945581267631E-04 -1.63141794947902E-05
 -4.08818588479353E-04  2.42219825007180E-14 -2.25180880271483E-05
  4.08818588478402E-04 -2.32564667357524E-14 -2.25180879816751E-05
 -2.53335207999255E-15  2.57286656921947E-15 -1.20014063544441E-04
 Reduced forces (fred)
  4.51195991708056E-05  4.51195991708057E-05  6.78638652989463E-20
  4.51195991708056E-05  4.51195991708057E-05  6.78638652988440E-20
  6.36017612217785E-03  1.73067660081352E-04  6.18710846209650E-03
 -6.32625610043639E-03 -6.32625610043639E-03  4.27244655392616E-19
  4.13895940250989E-03  4.13895940250989E-03 -1.63039703668833E-19
 -6.01404080201514E-03  1.73067660081353E-04 -6.18710846209650E-03
  2.38881323843104E-04  4.45742560227104E-03  4.21854427842794E-03
  2.38881323843103E-04 -3.97966295458483E-03 -4.21854427842794E-03
  1.27315953173598E-03  1.27315953173598E-03  6.13272349038203E-20
 Scale of Primitive Cell (acell) [bohr]
  1.46891644027290E+01  1.47992419420020E+01  1.44814358562120E+01
 Real space primitive translations (rprimd) [bohr]
  0.00000000000000E+00  1.01603635073352E+01  1.06084194981922E+01
  1.03188661109638E+01  0.00000000000000E+00  1.06084194977566E+01
  1.03188661121438E+01  1.01603635081083E+01  0.00000000000000E+00
 Unitary Cell Volume (ucvol) [Bohr^3]=  2.22444618853952E+03
 Angles (23,13,12)= [degrees]
  6.02091235790358E+01  6.09679083095837E+01  5.88229681113805E+01
 Lengths [Bohr]
  1.46891644027431E+01  1.47992419419502E+01  1.44814358562004E+01
 Stress tensor in cartesian coordinates (strten) [Ha/bohr^3]
 -6.03934922300256E-05 -6.29147693762304E-13  5.05332752948538E-13
 -6.29147693762304E-13 -6.09750804059853E-05  9.87590418992077E-14
  5.05332752948538E-13  9.87590418992077E-14 -6.06810907967052E-05
 Total energy (etotal) [Ha]= -1.71840416896038E+02

--- Iteration: (   2/1000) Internal Cycle: (1/1)
--------------------------------------------------------------------------------

---SELF-CONSISTENT-FIELD CONVERGENCE--------------------------------------------

--- !BeginCycle
iteration_state: {dtset: 1, itime: 2, icycle: 1, }
solver: {iscf: 17, nstep: 2500, nline: 4, wfoptalg: 10, }
tolerances: {toldff: 1.00E-08, }
...

     iter   Etot(hartree)      deltaE(h)  residm     nres2    diffor    maxfor
 ETOT  1  -171.84042207117    -1.718E+02 1.955E-05 7.520E-04 3.094E-03 3.690E-03
 ETOT  2  -171.84041863656     3.435E-06 1.555E-05 8.016E-05 3.332E-03 3.589E-04
 ETOT  3  -171.84041838600     2.506E-07 8.188E-06 7.613E-06 3.978E-04 7.566E-04
 ETOT  4  -171.84041837896     7.036E-09 1.228E-05 1.595E-06 2.179E-04 5.419E-04
 ETOT  5  -171.84041838156    -2.594E-09 6.458E-06 5.061E-07 2.000E-05 5.573E-04
 ETOT  6  -171.84041838482    -3.261E-09 9.644E-06 7.742E-08 3.275E-05 5.261E-04
 ETOT  7  -171.84041838549    -6.729E-10 5.060E-06 3.671E-08 2.639E-06 5.287E-04
 ETOT  8  -171.84041838635    -8.579E-10 7.536E-06 4.076E-09 6.799E-06 5.244E-04
 ETOT  9  -171.84041838645    -1.015E-10 3.947E-06 2.956E-09 2.679E-07 5.242E-04
 ETOT 10  -171.84041838648    -2.984E-11 5.868E-06 3.850E-10 3.844E-07 5.238E-04
 ETOT 11  -171.84041838645     2.979E-11 3.069E-06 3.472E-10 2.765E-07 5.236E-04
 ETOT 12  -171.84041838645    -4.775E-12 4.555E-06 6.016E-11 1.649E-07 5.236E-04
 ETOT 13  -171.84041838643     2.353E-11 2.534E-06 3.906E-11 1.485E-07 5.236E-04
 ETOT 14  -171.84041838642     7.901E-12 3.527E-06 3.526E-12 6.392E-08 5.236E-04
 ETOT 15  -171.84041838642     5.514E-12 2.217E-06 1.980E-12 2.300E-08 5.236E-04
 ETOT 16  -171.84041838642    -5.286E-12 2.726E-06 9.027E-13 8.809E-09 5.236E-04
 ETOT 17  -171.84041838642     3.126E-12 1.940E-06 4.412E-14 7.829E-09 5.236E-04

 At SCF step   17, forces are converged : 
  for the second time, max diff in force=  7.829E-09 < toldff=  1.000E-08

 Cartesian components of stress tensor (hartree/bohr^3)
  sigma(1 1)= -6.02238293E-05  sigma(3 2)=  9.87661812E-14
  sigma(2 2)= -6.06636769E-05  sigma(3 1)=  5.05351168E-13
  sigma(3 3)= -6.04409419E-05  sigma(2 1)= -6.29169955E-13


--- !ResultsGS
iteration_state: {dtset: 1, itime: 2, icycle: 1, }
comment   : Summary of ground state results
lattice_vectors:
- [  0.0000000,  10.1604525,  10.6084188, ]
- [ 10.3187764,   0.0000000,  10.6084188, ]
- [ 10.3187764,  10.1604525,   0.0000000, ]
lattice_lengths: [  14.68923,   14.79918,   14.48143, ]
lattice_angles: [ 60.210,  60.967,  58.823, ] # degrees, (23, 13, 12)
lattice_volume:   2.2244462E+03
convergence: {deltae:  3.126E-12, res2:  4.412E-14, residm:  1.940E-06, diffor:  7.829E-09, }
etotal    :  -1.71840418E+02
entropy   :   0.00000000E+00
fermie    :  -6.13584685E-02
cartesian_stress_tensor: # hartree/bohr^3
- [ -6.02238293E-05,  -6.29169955E-13,   5.05351168E-13, ]
- [ -6.29169955E-13,  -6.06636769E-05,   9.87661812E-14, ]
- [  5.05351168E-13,   9.87661812E-14,  -6.04409419E-05, ]
pressure_GPa:   1.7783E+00
xred      :
- [  2.5029E-01,   2.5029E-01,   2.4971E-01, Cs]
- [  7.5029E-01,   7.5029E-01,   7.4971E-01, Cs]
- [  7.8010E-01,   2.3274E-01,   7.6726E-01, Cl]
- [  2.2644E-01,   2.2644E-01,   7.7356E-01, Cl]
- [  7.5369E-01,   7.5369E-01,   2.4631E-01,  I]
- [  2.3274E-01,   7.8010E-01,   2.1990E-01, Cl]
- [  2.5969E-01,   7.3721E-01,   7.4031E-01,  I]
- [  7.3721E-01,   2.5969E-01,   2.6279E-01,  I]
- [  9.5492E-03,   9.5492E-03,  -9.5492E-03, Hf]
cartesian_forces: # hartree/bohr
- [ -8.33406925E-17,   8.46270039E-17,  -3.94767913E-06, ]
- [ -8.33406925E-17,   8.46270039E-17,  -3.94767913E-06, ]
- [  1.92966453E-14,  -5.23604361E-04,  -1.49822726E-05, ]
- [  1.08073375E-14,  -1.09757881E-14,   5.11976845E-04, ]
- [ -7.31034048E-15,   7.42427690E-15,  -3.46312160E-04, ]
- [ -1.99291753E-14,   5.23604361E-04,  -1.49822726E-05, ]
- [ -3.64258376E-04,   2.16334412E-14,  -2.24708928E-05, ]
- [  3.64258376E-04,  -2.06699581E-14,  -2.24708928E-05, ]
- [ -1.74917161E-15,   1.77642078E-15,  -8.28629966E-05, ]
force_length_stats: {min:   3.94767913E-06, max:   5.23818667E-04, mean:   3.02954038E-04, }
...

 Integrated electronic density in atomic spheres:
 ------------------------------------------------
 Atom  Sphere_radius  Integrated_density
    1        2.20660          5.37317551
    2        2.20660          5.37317551
    3        1.80316          4.36432429
    4        1.80316          4.37559372
    5        2.30022          4.03689253
    6        1.80316          4.36432429
    7        2.30022          4.03026440
    8        2.30022          4.03026440
    9        2.41000          9.32238072

 PAW TEST:
 ==== Compensation charge inside spheres ============
 The following values must be close to each other ...
 Compensation charge over spherical meshes =     -1.024687054330993
 Compensation charge over fine fft grid    =     -1.024681336889495

 ==== Results concerning PAW augmentation regions ====

 Total pseudopotential strength Dij (hartree):
 Atom #  1
   0.43293  -0.14340   0.00000   0.00000   0.00000   0.00000  -0.00001   0.00000   0.00000   0.00000  -0.00000   0.00000 ...
  -0.14340   0.04316   0.00000  -0.00000   0.00000   0.00000   0.00000   0.00000  -0.00000   0.00000   0.00000   0.00000 ...
   0.00000   0.00000  -0.09267   0.00000   0.00000  -0.16711   0.00000  -0.00000   0.00000   0.00000   0.00000  -0.00000 ...
   0.00000  -0.00000   0.00000  -0.09267   0.00000   0.00000  -0.16711   0.00000  -0.00000   0.00000   0.00000   0.00000 ...
   0.00000   0.00000   0.00000   0.00000  -0.09267  -0.00000   0.00000  -0.16711   0.00000  -0.00000   0.00000   0.00000 ...
   0.00000   0.00000  -0.16711   0.00000  -0.00000   0.40180   0.00000   0.00002   0.00000  -0.00000   0.00000   0.00000 ...
  -0.00001   0.00000   0.00000  -0.16711   0.00000   0.00000   0.40180   0.00000   0.00000   0.00000  -0.00000   0.00000 ...
   0.00000   0.00000  -0.00000   0.00000  -0.16711   0.00002   0.00000   0.40182   0.00000   0.00000   0.00000  -0.00000 ...
   0.00000  -0.00000   0.00000  -0.00000   0.00000   0.00000   0.00000   0.00000   0.00535   0.00000  -0.00000   0.00000 ...
   0.00000   0.00000   0.00000   0.00000  -0.00000  -0.00000   0.00000   0.00000   0.00000   0.00535   0.00000   0.00000 ...
  -0.00000   0.00000   0.00000   0.00000   0.00000   0.00000  -0.00000   0.00000  -0.00000   0.00000   0.00535   0.00000 ...
   0.00000   0.00000  -0.00000   0.00000   0.00000   0.00000   0.00000  -0.00000   0.00000   0.00000   0.00000   0.00535 ...
   ...  only 12  components have been written...
 Atom #  9
  -3.50856   0.42474   0.00000   0.00027   0.00000   0.00000  -0.00005   0.00000   0.00000   0.00000  -0.00006   0.00000 ...
   0.42474   0.00354   0.00000  -0.00003   0.00000   0.00000   0.00001   0.00000   0.00000   0.00000   0.00001   0.00000 ...
   0.00000   0.00000  -1.43934   0.00000   0.00000   0.12006   0.00000   0.00000   0.00000   0.00012   0.00000   0.00000 ...
   0.00027  -0.00003   0.00000  -1.44014   0.00000   0.00000   0.12020   0.00000   0.00000   0.00000   0.00014   0.00000 ...
   0.00000   0.00000   0.00000   0.00000  -1.44043   0.00000   0.00000   0.12025   0.00000   0.00000   0.00000   0.00011 ...
   0.00000   0.00000   0.12006   0.00000   0.00000   0.01394   0.00000   0.00000   0.00000  -0.00002   0.00000   0.00000 ...
  -0.00005   0.00001   0.00000   0.12020   0.00000   0.00000   0.01392   0.00000   0.00000   0.00000  -0.00002   0.00000 ...
   0.00000   0.00000   0.00000   0.00000   0.12025   0.00000   0.00000   0.01391   0.00000   0.00000   0.00000  -0.00002 ...
   0.00000   0.00000   0.00000   0.00000   0.00000   0.00000   0.00000   0.00000  -0.39089   0.00000   0.00000   0.00000 ...
   0.00000   0.00000   0.00012   0.00000   0.00000  -0.00002   0.00000   0.00000   0.00000  -0.39083   0.00000   0.00000 ...
  -0.00006   0.00001   0.00000   0.00014   0.00000   0.00000  -0.00002   0.00000   0.00000   0.00000  -0.39029   0.00000 ...
   0.00000   0.00000   0.00000   0.00000   0.00011   0.00000   0.00000  -0.00002   0.00000   0.00000   0.00000  -0.39103 ...
   ...  only 12  components have been written...


 Augmentation waves occupancies Rhoij:
 Atom #  1
   1.99801  -0.01397   0.00000  -0.00003   0.00000   0.00000   0.00002   0.00000   0.00432   0.00000  -0.00054   0.00000 ...
  -0.01397   0.17236   0.00000   0.00141   0.00000   0.00000  -0.00001   0.00000  -0.03074   0.00000  -0.00185   0.00000 ...
   0.00000   0.00000   2.01002   0.00000  -0.00305  -0.00527   0.00000   0.00047   0.00000  -0.00076   0.00000  -0.00113 ...
  -0.00003   0.00141   0.00000   2.00898   0.00000   0.00000  -0.00503   0.00000  -0.00132   0.00000   0.00036   0.00000 ...
   0.00000   0.00000  -0.00305   0.00000   2.00658   0.00047   0.00000  -0.00466   0.00000  -0.00134   0.00000   0.00364 ...
   0.00000   0.00000  -0.00527   0.00000   0.00047   0.00015   0.00000  -0.00003   0.00000   0.00008   0.00000   0.00003 ...
   0.00002  -0.00001   0.00000  -0.00503   0.00000   0.00000   0.00012   0.00000   0.00004   0.00000   0.00001   0.00000 ...
   0.00000   0.00000   0.00047   0.00000  -0.00466  -0.00003   0.00000   0.00010   0.00000   0.00004   0.00000  -0.00014 ...
   0.00432  -0.03074   0.00000  -0.00132   0.00000   0.00000   0.00004   0.00000   0.06325   0.00000   0.02216   0.00000 ...
   0.00000   0.00000  -0.00076   0.00000  -0.00134   0.00008   0.00000   0.00004   0.00000   0.08169   0.00000  -0.00015 ...
  -0.00054  -0.00185   0.00000   0.00036   0.00000   0.00000   0.00001   0.00000   0.02216   0.00000   0.04153   0.00000 ...
   0.00000   0.00000  -0.00113   0.00000   0.00364   0.00003   0.00000  -0.00014   0.00000  -0.00015   0.00000   0.02613 ...
   ...  only 12  components have been written...
 Atom #  9
   1.99789  -0.02195   0.00000  -0.00002   0.00000   0.00000  -0.00056   0.00000   0.00000   0.00000  -0.00065   0.00000 ...
  -0.02195   1.00891   0.00000  -0.00286   0.00000   0.00000   0.04272   0.00000   0.00000   0.00000  -0.00843   0.00000 ...
   0.00000   0.00000   1.99192   0.00000   0.00000  -0.07260   0.00000   0.00000   0.00000   0.00129   0.00000   0.00000 ...
  -0.00002  -0.00286   0.00000   1.99240   0.00000   0.00000  -0.06614   0.00000   0.00000   0.00000   0.00008   0.00000 ...
   0.00000   0.00000   0.00000   0.00000   1.99274   0.00000   0.00000  -0.06095   0.00000   0.00000   0.00000   0.00158 ...
   0.00000   0.00000  -0.07260   0.00000   0.00000   1.53089   0.00000   0.00000   0.00000  -0.01676   0.00000   0.00000 ...
  -0.00056   0.04272   0.00000  -0.06614   0.00000   0.00000   1.32653   0.00000   0.00000   0.00000   0.17937   0.00000 ...
   0.00000   0.00000   0.00000   0.00000  -0.06095   0.00000   0.00000   1.17167   0.00000   0.00000   0.00000  -0.05089 ...
   0.00000   0.00000   0.00000   0.00000   0.00000   0.00000   0.00000   0.00000   0.51229   0.00000   0.00000   0.00000 ...
   0.00000   0.00000   0.00129   0.00000   0.00000  -0.01676   0.00000   0.00000   0.00000   0.53818   0.00000   0.00000 ...
  -0.00065  -0.00843   0.00000   0.00008   0.00000   0.00000   0.17937   0.00000   0.00000   0.00000   1.54108   0.00000 ...
   0.00000   0.00000   0.00000   0.00000   0.00158   0.00000   0.00000  -0.05089   0.00000   0.00000   0.00000   0.47707 ...
   ...  only 12  components have been written...



---OUTPUT-----------------------------------------------------------------------

 Cartesian coordinates (xcart) [bohr]
  5.15938821079933E+00  5.08022623493242E+00  5.31030195293331E+00
  1.54781646323987E+01  1.52406787047977E+01  1.59187207731882E+01
  1.03187764219147E+01  1.57218967986926E+01  1.07446320278574E+01
  1.03187764219221E+01  1.01604524700768E+01  4.80436770204967E+00
  1.03187764213000E+01  1.01604524696692E+01  1.59909476315695E+01
  1.03187764212688E+01  4.59900814102805E+00  1.07446320276189E+01
  1.52462567027308E+01  1.01604524700511E+01  1.05755725952273E+01
  5.39129614047155E+00  1.01604524696819E+01  1.05755725954353E+01
 -1.12679560139928E-11 -7.38185055490718E-12  2.02603256297485E-01
 Reduced coordinates (xred)
  2.50287156027165E-01  2.50287156027165E-01  2.49712843972835E-01
  7.50287156027166E-01  7.50287156027165E-01  7.49712843972835E-01
  7.80100990501788E-01  2.32739114116177E-01  7.67260885883823E-01
  2.26441271948869E-01  2.26441271948869E-01  7.73558728051131E-01
  7.53691379578528E-01  7.53691379578528E-01  2.46308620421472E-01
  2.32739114116177E-01  7.80100990501788E-01  2.19899009498212E-01
  2.59689060957703E-01  7.37214697700387E-01  7.40310939042297E-01
  7.37214697700387E-01  2.59689060957703E-01  2.62785302299613E-01
  9.54917314871890E-03  9.54917314871890E-03 -9.54917314871891E-03
 Cartesian forces (fcart) [Ha/bohr]; max,rms= 5.23604E-04 2.11178E-04 (free atoms)
 -8.33406925125575E-17  8.46270038766865E-17 -3.94767913003993E-06
 -8.33406925125575E-17  8.46270038766865E-17 -3.94767913003993E-06
  1.92966452964212E-14 -5.23604361064431E-04 -1.49822726281084E-05
  1.08073374911031E-14 -1.09757880764239E-14  5.11976845376841E-04
 -7.31034048035747E-15  7.42427689565433E-15 -3.46312159708160E-04
 -1.99291753353230E-14  5.23604361065074E-04 -1.49822725899535E-05
 -3.64258376187575E-04  2.16334411512662E-14 -2.24708928348976E-05
  3.64258376186627E-04 -2.06699580928444E-14 -2.24708927943806E-05
 -1.74917160908437E-15  1.77642077792054E-15 -8.28629965612606E-05
 Reduced forces (fred)
  4.18786335794431E-05  4.18786335794431E-05  1.25322318621082E-19
  4.18786335794431E-05  4.18786335794431E-05  1.25322318621082E-19
  5.47899544632843E-03  1.58938222715833E-04  5.32005722361260E-03
 -5.43126480203040E-03 -5.43126480203040E-03  4.73784223404760E-19
  3.67382443273116E-03  3.67382443273116E-03 -2.43537395543037E-19
 -5.16111900089677E-03  1.58938222715833E-04 -5.32005722361260E-03
  2.38380642242748E-04  3.99708138581227E-03  3.75870074356952E-03
  2.38380642242748E-04 -3.52032010132677E-03 -3.75870074356952E-03
  8.79045372223194E-04  8.79045372223194E-04  7.18769534065477E-20
 Scale of Primitive Cell (acell) [bohr]
  1.46892254477592E+01  1.47991789193892E+01  1.44814343644328E+01
 Real space primitive translations (rprimd) [bohr]
  0.00000000000000E+00  1.01604524694788E+01  1.06084188204727E+01
  1.03187764210093E+01  0.00000000000000E+00  1.06084188200371E+01
  1.03187764221893E+01  1.01604524702518E+01  0.00000000000000E+00
 Unitary Cell Volume (ucvol) [Bohr^3]=  2.22444618853952E+03
 Angles (23,13,12)= [degrees]
  6.02095507241487E+01  6.09674802964274E+01  5.88229689794239E+01
 Lengths [Bohr]
  1.46892254477592E+01  1.47991789193892E+01  1.44814343644328E+01
 Stress tensor in cartesian coordinates (strten) [Ha/bohr^3]
 -6.02238293391302E-05 -6.29169955095805E-13  5.05351168365133E-13
 -6.29169955095805E-13 -6.06636769186226E-05  9.87661812093512E-14
  5.05351168365133E-13  9.87661812093512E-14 -6.04409418818539E-05
 Total energy (etotal) [Ha]= -1.71840418386418E+02

 Difference of energy with previous step (new-old):
           Absolute (Ha)=-1.49038E-06
           Relative     =-8.67305E-09

--- Iteration: (   3/1000) Internal Cycle: (1/1)
--------------------------------------------------------------------------------

---SELF-CONSISTENT-FIELD CONVERGENCE--------------------------------------------

--- !BeginCycle
iteration_state: {dtset: 1, itime: 3, icycle: 1, }
solver: {iscf: 17, nstep: 2500, nline: 4, wfoptalg: 10, }
tolerances: {toldff: 1.00E-08, }
...

     iter   Etot(hartree)      deltaE(h)  residm     nres2    diffor    maxfor
 ETOT  1  -171.84057807330    -1.718E+02 2.229E-02 3.212E-02 1.996E-02 2.048E-02
 ETOT  2  -171.84043461905     1.435E-04 2.111E-03 3.650E-03 2.166E-02 1.239E-03
 ETOT  3  -171.84042296497     1.165E-05 3.330E-04 3.522E-04 2.775E-03 1.590E-03
 ETOT  4  -171.84042280997     1.550E-07 2.319E-05 7.079E-05 1.458E-03 1.588E-04
 ETOT  5  -171.84042281538    -5.408E-09 2.686E-06 2.200E-05 1.407E-04 2.707E-04
 ETOT  6  -171.84042287419    -5.882E-08 1.094E-06 3.360E-06 2.135E-04 1.287E-04
 ETOT  7  -171.84042288941    -1.521E-08 9.568E-07 1.587E-06 1.724E-05 1.282E-04
 ETOT  8  -171.84042290398    -1.457E-08 9.362E-07 1.717E-07 4.379E-05 1.350E-04
 ETOT  9  -171.84042290606    -2.081E-09 8.219E-07 1.239E-07 1.910E-06 1.346E-04
 ETOT 10  -171.84042290642    -3.666E-10 8.081E-07 1.628E-08 2.558E-06 1.320E-04
 ETOT 11  -171.84042290645    -2.473E-11 7.115E-07 1.400E-08 1.785E-06 1.314E-04
 ETOT 12  -171.84042290648    -3.266E-11 7.007E-07 2.381E-09 8.621E-07 1.320E-04
 ETOT 13  -171.84042290633     1.464E-10 6.184E-07 1.613E-09 9.889E-07 1.323E-04
 ETOT 14  -171.84042290632     1.651E-11 6.092E-07 2.142E-10 3.913E-07 1.321E-04
 ETOT 15  -171.84042290631     6.764E-12 5.387E-07 6.400E-11 1.715E-07 1.319E-04
 ETOT 16  -171.84042290631    -2.871E-12 5.305E-07 3.980E-11 1.718E-08 1.319E-04
 ETOT 17  -171.84042290632    -3.752E-12 4.698E-07 1.329E-12 9.316E-08 1.320E-04
 ETOT 18  -171.84042290633    -1.029E-11 4.623E-07 2.238E-12 1.208E-08 1.320E-04
 ETOT 19  -171.84042290633    -4.576E-12 4.100E-07 2.521E-13 1.284E-08 1.320E-04
 ETOT 20  -171.84042290633    -2.018E-12 4.031E-07 4.480E-13 8.656E-09 1.320E-04
 ETOT 21  -171.84042290634    -4.150E-12 3.579E-07 2.153E-13 5.175E-09 1.320E-04

 At SCF step   21, forces are converged : 
  for the second time, max diff in force=  5.175E-09 < toldff=  1.000E-08

 Cartesian components of stress tensor (hartree/bohr^3)
  sigma(1 1)= -5.90877626E-05  sigma(3 2)=  9.88089311E-14
  sigma(2 2)= -5.86594466E-05  sigma(3 1)=  5.05459758E-13
  sigma(3 3)= -5.88916802E-05  sigma(2 1)= -6.29305704E-13


--- !ResultsGS
iteration_state: {dtset: 1, itime: 3, icycle: 1, }
comment   : Summary of ground state results
lattice_vectors:
- [  0.0000000,  10.1609597,  10.6084143, ]
- [ 10.3182657,   0.0000000,  10.6084143, ]
- [ 10.3182657,  10.1609597,   0.0000000, ]
lattice_lengths: [  14.68957,   14.79882,   14.48143, ]
lattice_angles: [ 60.212,  60.965,  58.823, ] # degrees, (23, 13, 12)
lattice_volume:   2.2244462E+03
convergence: {deltae: -4.150E-12, res2:  2.153E-13, residm:  3.579E-07, diffor:  5.175E-09, }
etotal    :  -1.71840423E+02
entropy   :   0.00000000E+00
fermie    :  -6.13769754E-02
cartesian_stress_tensor: # hartree/bohr^3
- [ -5.90877626E-05,  -6.29305704E-13,   5.05459758E-13, ]
- [ -6.29305704E-13,  -5.86594466E-05,   9.88089311E-14, ]
- [  5.05459758E-13,   9.88089311E-14,  -5.88916802E-05, ]
pressure_GPa:   1.7323E+00
xred      :
- [  2.5029E-01,   2.5029E-01,   2.4971E-01, Cs]
- [  7.5029E-01,   7.5029E-01,   7.4971E-01, Cs]
- [  7.7990E-01,   2.3293E-01,   7.6707E-01, Cl]
- [  2.2662E-01,   2.2662E-01,   7.7338E-01, Cl]
- [  7.5357E-01,   7.5357E-01,   2.4643E-01,  I]
- [  2.3293E-01,   7.7990E-01,   2.2010E-01, Cl]
- [  2.5981E-01,   7.3707E-01,   7.4019E-01,  I]
- [  7.3707E-01,   2.5981E-01,   2.6293E-01,  I]
- [  9.5197E-03,   9.5197E-03,  -9.5197E-03, Hf]
cartesian_forces: # hartree/bohr
- [ -4.87787513E-17,   4.95342022E-17,  -2.31073032E-06, ]
- [ -4.87787923E-17,   4.95342439E-17,  -2.31073032E-06, ]
- [ -1.01255379E-15,   2.36086882E-05,  -6.07348139E-06, ]
- [ -4.14154511E-16,   4.20566916E-16,  -1.96188926E-05, ]
- [ -1.08324611E-15,   1.10001222E-15,  -5.13142189E-05, ]
- [  7.56132874E-16,  -2.36086882E-05,  -6.07348139E-06, ]
- [ -6.58142961E-05,   4.29591887E-15,  -2.21270049E-05, ]
- [  6.58142961E-05,  -3.34724991E-15,  -2.21270049E-05, ]
- [  2.78558925E-15,  -2.82870591E-15,   1.31955545E-04, ]
force_length_stats: {min:   2.31073032E-06, max:   1.31955545E-04, mean:   4.39037290E-05, }
...

 Integrated electronic density in atomic spheres:
 ------------------------------------------------
 Atom  Sphere_radius  Integrated_density
    1        2.20660          5.37317866
    2        2.20660          5.37317866
    3        1.80316          4.36627663
    4        1.80316          4.37243895
    5        2.30022          4.03859031
    6        1.80316          4.36627663
    7        2.30022          4.02968635
    8        2.30022          4.02968635
    9        2.41000          9.31980115

 PAW TEST:
 ==== Compensation charge inside spheres ============
 The following values must be close to each other ...
 Compensation charge over spherical meshes =     -1.024914097112299
 Compensation charge over fine fft grid    =     -1.024908284237980

 ==== Results concerning PAW augmentation regions ====

 Total pseudopotential strength Dij (hartree):
 Atom #  1
   0.43292  -0.14340   0.00000   0.00000   0.00000   0.00000  -0.00001   0.00000   0.00000   0.00000  -0.00000   0.00000 ...
  -0.14340   0.04316   0.00000  -0.00000   0.00000   0.00000   0.00000   0.00000  -0.00000   0.00000   0.00000   0.00000 ...
   0.00000   0.00000  -0.09267   0.00000   0.00000  -0.16711   0.00000  -0.00000   0.00000   0.00000   0.00000  -0.00000 ...
   0.00000  -0.00000   0.00000  -0.09267   0.00000   0.00000  -0.16711   0.00000  -0.00000   0.00000   0.00000   0.00000 ...
   0.00000   0.00000   0.00000   0.00000  -0.09267  -0.00000   0.00000  -0.16711   0.00000  -0.00000   0.00000   0.00000 ...
   0.00000   0.00000  -0.16711   0.00000  -0.00000   0.40180   0.00000   0.00002   0.00000  -0.00000   0.00000   0.00000 ...
  -0.00001   0.00000   0.00000  -0.16711   0.00000   0.00000   0.40180   0.00000   0.00000   0.00000  -0.00000   0.00000 ...
   0.00000   0.00000  -0.00000   0.00000  -0.16711   0.00002   0.00000   0.40182   0.00000   0.00000   0.00000  -0.00000 ...
   0.00000  -0.00000   0.00000  -0.00000   0.00000   0.00000   0.00000   0.00000   0.00535   0.00000  -0.00000   0.00000 ...
   0.00000   0.00000   0.00000   0.00000  -0.00000  -0.00000   0.00000   0.00000   0.00000   0.00535   0.00000   0.00000 ...
  -0.00000   0.00000   0.00000   0.00000   0.00000   0.00000  -0.00000   0.00000  -0.00000   0.00000   0.00535   0.00000 ...
[...]
                       7.9776283042E+00  5.3319506153E+00  5.5505602663E+00
                       2.8475583287E+00  5.3319506151E+00  5.5505602664E+00
                      -6.0980340093E-12 -3.9940303214E-12  1.0972229379E-01
           xangst10    2.7033568083E+00  2.6632450227E+00  2.7838011067E+00
                       8.1100704248E+00  7.9897350680E+00  8.3534771408E+00
                       5.4067136167E+00  8.2187771166E+00  5.6454320383E+00
                       5.4067136167E+00  5.3264900455E+00  2.5464581840E+00
                       5.4067136164E+00  5.3264900453E+00  8.3834921333E+00
                       5.4067136164E+00  2.4342029741E+00  5.6454320382E+00
                       7.9669022190E+00  5.3264900455E+00  5.5446945261E+00
                       2.8465250140E+00  5.3264900453E+00  5.5446945262E+00
                      -6.1090632179E-12 -4.0011152500E-12  1.0992657928E-01
            xcart1     5.1593868658E+00  5.0800141449E+00  5.3102910116E+00
                       1.5478160597E+01  1.5240042435E+01  1.5919155498E+01
                       1.0318773732E+01  1.5717332619E+01  1.0744865276E+01
                       1.0318773732E+01  1.0160028290E+01  4.8089896423E+00
                       1.0318773731E+01  1.0160028290E+01  1.5989205715E+01
                       1.0318773731E+01  4.6027239604E+00  1.0744865276E+01
                       1.5242900705E+01  1.0160028290E+01  1.0575081254E+01
                       5.3946467586E+00  1.0160028290E+01  1.0575081254E+01
                      -1.1309525699E-11 -7.4097654443E-12  2.0338096402E-01
            xcart2     5.1541526774E+00  5.0747213561E+00  5.3053091930E+00
                       1.5462458032E+01  1.5224164068E+01  1.5904131139E+01
                       1.0308305355E+01  1.5696454572E+01  1.0734839519E+01
                       1.0308305355E+01  1.0149442712E+01  4.8091042510E+00
                       1.0308305355E+01  1.0149442712E+01  1.5971124397E+01
                       1.0308305355E+01  4.6024308527E+00  1.0734839519E+01
                       1.5223590901E+01  1.0149442712E+01  1.0563834586E+01
                       5.3930198084E+00  1.0149442712E+01  1.0563834586E+01
                      -1.1320055015E-11 -7.4161601405E-12  2.0355838051E-01
            xcart3     5.1484216365E+00  5.0690237924E+00  5.2998061538E+00
                       1.5445264909E+01  1.5207071377E+01  1.5890453114E+01
                       1.0296843273E+01  1.5673957639E+01  1.0728232029E+01
                       1.0296843273E+01  1.0138047585E+01  4.8095405669E+00
                       1.0296843273E+01  1.0138047585E+01  1.5956802117E+01
                       1.0296843273E+01  4.6021375310E+00  1.0728232028E+01
                       1.5202394870E+01  1.0138047585E+01  1.0554007302E+01
                       5.3912916758E+00  1.0138047585E+01  1.0554007302E+01
                      -1.1347871051E-11 -7.4345035196E-12  2.0409506620E-01
            xcart4     5.1431954870E+00  5.0641698743E+00  5.2943293612E+00
                       1.5429586461E+01  1.5192509623E+01  1.5874000563E+01
                       1.0286390974E+01  1.5654755827E+01  1.0717029163E+01
                       1.0286390974E+01  1.0128339749E+01  4.8098183432E+00
                       1.0286390974E+01  1.0128339748E+01  1.5937320706E+01
                       1.0286390974E+01  4.6019236700E+00  1.0717029163E+01
                       1.5183143508E+01  1.0128339749E+01  1.0541641663E+01
                       5.3896384405E+00  1.0128339748E+01  1.0541641663E+01
                      -1.1374545020E-11 -7.4516804983E-12  2.0455898698E-01
            xcart5     5.1369536959E+00  5.0585016460E+00  5.2892461415E+00
                       1.5410861088E+01  1.5175504938E+01  1.5861732856E+01
                       1.0273907392E+01  1.5632453956E+01  1.0711516974E+01
                       1.0273907392E+01  1.0117003292E+01  4.8100633011E+00
                       1.0273907392E+01  1.0117003292E+01  1.5925017259E+01
                       1.0273907392E+01  4.6015526284E+00  1.0711516973E+01
                       1.5159861044E+01  1.0117003292E+01  1.0532927739E+01
                       5.3879537399E+00  1.0117003292E+01  1.0532927739E+01
                      -1.1393048509E-11 -7.4635013692E-12  2.0494473534E-01
            xcart6     5.1315047926E+00  5.0531697237E+00  5.2828431283E+00
                       1.5394514378E+01  1.5159509171E+01  1.5845811551E+01
                       1.0263009586E+01  1.5611431241E+01  1.0703323499E+01
                       1.0263009586E+01  1.0106339448E+01  4.8106398190E+00
                       1.0263009585E+01  1.0106339447E+01  1.5908605499E+01
                       1.0263009585E+01  4.6012476543E+00  1.0703323499E+01
                       1.5139679811E+01  1.0106339448E+01  1.0521719590E+01
                       5.3863393600E+00  1.0106339447E+01  1.0521719591E+01
                      -1.1437527889E-11 -7.4926246832E-12  2.0576120684E-01
            xcart7     5.1256798964E+00  5.0479486317E+00  5.2779370397E+00
                       1.5377039689E+01  1.5143845895E+01  1.5831929768E+01
                       1.0251359793E+01  1.5590879115E+01  1.0695180098E+01
                       1.0251359793E+01  1.0095897264E+01  4.8107385789E+00
                       1.0251359792E+01  1.0095897263E+01  1.5892778500E+01
                       1.0251359792E+01  4.6009154117E+00  1.0695180098E+01
                       1.5118046731E+01  1.0095897264E+01  1.0511113262E+01
                       5.3846728548E+00  1.0095897263E+01  1.0511113262E+01
                      -1.1448194546E-11 -7.4992063825E-12  2.0597121766E-01
            xcart8     5.1196843449E+00  5.0430173893E+00  5.2721994843E+00
                       1.5359053035E+01  1.5129052168E+01  1.5816962360E+01
                       1.0239368690E+01  1.5571406933E+01  1.0686757632E+01
                       1.0239368690E+01  1.0086034779E+01  4.8112774279E+00
                       1.0239368690E+01  1.0086034778E+01  1.5876755711E+01
                       1.0239368690E+01  4.6006626241E+00  1.0686757632E+01
                       1.5096034868E+01  1.0086034779E+01  1.0500401970E+01
                       5.3827025116E+00  1.0086034778E+01  1.0500401970E+01
                      -1.1481234979E-11 -7.5204550826E-12  2.0658881567E-01
            xcart9     5.1141595184E+00  5.0379632084E+00  5.2660902880E+00
                       1.5342478555E+01  1.5113889625E+01  1.5800911129E+01
                       1.0228319037E+01  1.5551588968E+01  1.0677362244E+01
                       1.0228319037E+01  1.0075926417E+01  4.8118831084E+00
                       1.0228319037E+01  1.0075926417E+01  1.5859535050E+01
                       1.0228319036E+01  4.6002638650E+00  1.0677362244E+01
                       1.5075532685E+01  1.0075926417E+01  1.0489038787E+01
                       5.3811053887E+00  1.0075926417E+01  1.0489038788E+01
                      -1.1523614227E-11 -7.5476234739E-12  2.0734508593E-01
            xcart10    5.1086040071E+00  5.0328037176E+00  5.2606217001E+00
                       1.5325812021E+01  1.5098411153E+01  1.5785784053E+01
                       1.0217208014E+01  1.5531237898E+01  1.0668320454E+01
                       1.0217208014E+01  1.0065607435E+01  4.8121085766E+00
                       1.0217208014E+01  1.0065607435E+01  1.5842504169E+01
                       1.0217208014E+01  4.5999769729E+00  1.0668320454E+01
                       1.5055263321E+01  1.0065607435E+01  1.0477954145E+01
                       5.3791527069E+00  1.0065607435E+01  1.0477954145E+01
                      -1.1544456410E-11 -7.5610120486E-12  2.0773112956E-01
             xred1     2.5027612609E-01  2.5027612609E-01  2.4972387391E-01
                       7.5027612609E-01  7.5027612609E-01  7.4972387391E-01
                       7.7989839606E-01  2.3292114649E-01  7.6707885351E-01
                       2.2664959330E-01  2.2664959330E-01  7.7335040670E-01
                       7.5357762067E-01  7.5357762067E-01  2.4642237933E-01
                       2.3292114649E-01  7.7989839606E-01  2.2010160394E-01
                       2.5980738799E-01  7.3700817765E-01  7.4019261201E-01
                       7.3700817765E-01  2.5980738799E-01  2.6299182235E-01
                       9.5854256733E-03  9.5854256733E-03 -9.5854256733E-03
             xred2     2.5027824884E-01  2.5027824884E-01  2.4972175116E-01
                       7.5027824884E-01  7.5027824884E-01  7.4972175116E-01
                       7.7968345587E-01  2.3314981686E-01  7.6685018314E-01
                       2.2686975380E-01  2.2686975380E-01  7.7313024620E-01
                       7.5343865941E-01  7.5343865941E-01  2.4656134059E-01
                       2.3314981686E-01  7.7968345587E-01  2.2031654413E-01
                       2.5993561873E-01  7.3676332001E-01  7.4006438127E-01
                       7.3676332001E-01  2.5993561873E-01  2.6323667999E-01
                       9.6028776381E-03  9.6028776381E-03 -9.6028776381E-03
             xred3     2.5021163362E-01  2.5021163362E-01  2.4978836638E-01
                       7.5021163362E-01  7.5021163362E-01  7.4978836638E-01
                       7.7952203185E-01  2.3346915456E-01  7.6653084544E-01
                       2.2706547509E-01  2.2706547509E-01  7.7293452491E-01
                       7.5334406752E-01  7.5334406752E-01  2.4665593248E-01
                       2.3346915456E-01  7.7952203185E-01  2.2047796815E-01
                       2.6006361009E-01  7.3647676576E-01  7.3993638991E-01
                       7.3647676576E-01  2.6006361009E-01  2.6352323424E-01
                       9.6356278790E-03  9.6356278790E-03 -9.6356278790E-03
             xred4     2.5021237713E-01  2.5021237713E-01  2.4978762287E-01
                       7.5021237713E-01  7.5021237713E-01  7.4978762287E-01
                       7.7931104482E-01  2.3367215278E-01  7.6632784722E-01
                       2.2731416939E-01  2.2731416939E-01  7.7268583061E-01
                       7.5320491547E-01  7.5320491547E-01  2.4679508453E-01
                       2.3367215278E-01  7.7931104482E-01  2.2068895518E-01
                       2.6018178466E-01  7.3622362926E-01  7.3981821534E-01
                       7.3622362926E-01  2.6018178466E-01  2.6377637074E-01
                       9.6675493539E-03  9.6675493539E-03 -9.6675493539E-03
             xred5     2.5014200936E-01  2.5014200936E-01  2.4985799064E-01
                       7.5014200936E-01  7.5014200936E-01  7.4985799064E-01
                       7.7915831712E-01  2.3399187757E-01  7.6600812243E-01
                       2.2748022442E-01  2.2748022442E-01  7.7251977558E-01
                       7.5313489099E-01  7.5313489099E-01  2.4686510901E-01
                       2.3399187757E-01  7.7915831712E-01  2.2084168288E-01
                       2.6034456763E-01  7.3591374162E-01  7.3965543237E-01
                       7.3591374162E-01  2.6034456763E-01  2.6408625838E-01
                       9.6923619236E-03  9.6923619236E-03 -9.6923619236E-03
             xred6     2.5006432457E-01  2.5006432457E-01  2.4993567543E-01
                       7.5006432457E-01  7.5006432457E-01  7.4993567543E-01
                       7.7900207868E-01  2.3428538658E-01  7.6571461342E-01
                       2.2771249645E-01  2.2771249645E-01  7.7228750355E-01
                       7.5303668733E-01  7.5303668733E-01  2.4696331267E-01
                       2.3428538658E-01  7.7900207868E-01  2.2099792132E-01
                       2.6046267593E-01  7.3563228235E-01  7.3953732407E-01
                       7.3563228235E-01  2.6046267593E-01  2.6436771765E-01
                       9.7397435362E-03  9.7397435362E-03 -9.7397435362E-03
             xred7     2.5004456492E-01  2.5004456492E-01  2.4995543508E-01
                       7.5004456492E-01  7.5004456492E-01  7.4995543508E-01
                       7.7882816380E-01  2.3454946243E-01  7.6545053757E-01
                       2.2791083445E-01  2.2791083445E-01  7.7208916555E-01
                       7.5292730010E-01  7.5292730010E-01  2.4707269990E-01
                       2.3454946243E-01  7.7882816380E-01  2.2117183620E-01
                       2.6060069367E-01  7.3533643960E-01  7.3939930633E-01
                       7.3533643960E-01  2.6060069367E-01  2.6466356040E-01
                       9.7579761031E-03  9.7579761031E-03 -9.7579761031E-03
             xred8     2.4999137234E-01  2.4999137234E-01  2.5000862766E-01
                       7.4999137234E-01  7.4999137234E-01  7.5000862766E-01
                       7.7866202361E-01  2.3480387966E-01  7.6519612034E-01
                       2.2813587583E-01  2.2813587583E-01  7.7186412417E-01
                       7.5282658790E-01  7.5282658790E-01  2.4717341210E-01
                       2.3480387966E-01  7.7866202361E-01  2.2133797639E-01
                       2.6074001898E-01  7.3505306750E-01  7.3925998102E-01
                       7.3505306750E-01  2.6074001898E-01  2.6494693250E-01
                       9.7958018643E-03  9.7958018643E-03 -9.7958018643E-03
             xred9     2.4993734434E-01  2.4993734434E-01  2.5006265566E-01
                       7.4993734434E-01  7.4993734434E-01  7.5006265566E-01
                       7.7848530507E-01  2.3504519592E-01  7.6495480408E-01
                       2.2837992127E-01  2.2837992127E-01  7.7162007873E-01
                       7.5271973251E-01  7.5271973251E-01  2.4728026749E-01
                       2.3504519592E-01  7.7848530507E-01  2.2151469493E-01
                       2.6087646010E-01  7.3477775616E-01  7.3912353990E-01
                       7.3477775616E-01  2.6087646010E-01  2.6522224384E-01
                       9.8409403001E-03  9.8409403001E-03 -9.8409403001E-03
             xred10    2.4990691466E-01  2.4990691466E-01  2.5009308534E-01
                       7.4990691466E-01  7.4990691466E-01  7.5009308534E-01
                       7.7830103441E-01  2.3530047557E-01  7.6469952443E-01
                       2.2860020659E-01  2.2860020659E-01  7.7139979341E-01
                       7.5260141541E-01  7.5260141541E-01  2.4739858459E-01
                       2.3530047557E-01  7.7830103441E-01  2.2169896559E-01
                       2.6099721909E-01  7.3451750963E-01  7.3900278091E-01
                       7.3451750963E-01  2.6099721909E-01  2.6548249037E-01
                       9.8683099883E-03  9.8683099883E-03 -9.8683099883E-03
            znucl       55.00000   53.00000   72.00000   17.00000

================================================================================


- Timing analysis has been suppressed with timopt=0



================================================================================

 Suggested references for the acknowledgment of ABINIT usage.

 The users of ABINIT have little formal obligations with respect to the ABINIT group
 (those specified in the GNU General Public License, http://www.gnu.org/copyleft/gpl.txt).
 However, it is common practice in the scientific literature,
 to acknowledge the efforts of people that have made the research possible.
 In this spirit, please find below suggested citations of work written by ABINIT developers,
 corresponding to implementations inside of ABINIT that you have used in the present run.
 Note also that it will be of great value to readers of publications presenting these results,
 to read papers enabling them to understand the theoretical formalism and details
 of the ABINIT implementation.
 For information on why they are suggested, see also https://docs.abinit.org/theory/acknowledgments.
-
- [1] Implementation of the Projector Augmented-Wave Method in the ABINIT code.
- M. Torrent, F. Jollet, F. Bottin, G. Zerah, and X. Gonze Comput. Mat. Science 42, 337, (2008).
- Comment: PAW calculations. Strong suggestion to cite this paper.
- DOI and bibtex: see https://docs.abinit.org/theory/bibliography/#torrent2008
-
- [2] Libxc: A library of exchange and correlation functionals for density functional theory.
- M.A.L. Marques, M.J.T. Oliveira, T. Burnus, Computer Physics Communications 183, 2227 (2012).
- Comment: to be cited when LibXC is used (negative value of ixc)
- Strong suggestion to cite this paper.
- DOI and bibtex: see https://docs.abinit.org/theory/bibliography/#marques2012
-
- [3] The Abinit project: Impact, environment and recent developments.
- Computer Phys. Comm. 248, 107042 (2020).
- X.Gonze, B. Amadon, G. Antonius, F.Arnardi, L.Baguet, J.-M.Beuken,
- J.Bieder, F.Bottin, J.Bouchet, E.Bousquet, N.Brouwer, F.Bruneval,
- G.Brunin, T.Cavignac, J.-B. Charraud, Wei Chen, M.Cote, S.Cottenier,
- J.Denier, G.Geneste, Ph.Ghosez, M.Giantomassi, Y.Gillet, O.Gingras,
- D.R.Hamann, G.Hautier, Xu He, N.Helbig, N.Holzwarth, Y.Jia, F.Jollet,
- W.Lafargue-Dit-Hauret, K.Lejaeghere, M.A.L.Marques, A.Martin, C.Martins,
- H.P.C. Miranda, F.Naccarato, K. Persson, G.Petretto, V.Planes, Y.Pouillon,
- S.Prokhorenko, F.Ricci, G.-M.Rignanese, A.H.Romero, M.M.Schmitt, M.Torrent,
- M.J.van Setten, B.Van Troeye, M.J.Verstraete, G.Zerah and J.W.Zwanzig
- Comment: the fifth generic paper describing the ABINIT project.
- Note that a version of this paper, that is not formatted for Computer Phys. Comm. 
- is available at https://www.abinit.org/sites/default/files/ABINIT20.pdf .
- The licence allows the authors to put it on the Web.
- DOI and bibtex: see https://docs.abinit.org/theory/bibliography/#gonze2020
-
- [4] ABINIT: Overview, and focus on selected capabilities
- J. Chem. Phys. 152, 124102 (2020).
- A. Romero, D.C. Allan, B. Amadon, G. Antonius, T. Applencourt, L.Baguet,
- J.Bieder, F.Bottin, J.Bouchet, E.Bousquet, F.Bruneval,
- G.Brunin, D.Caliste, M.Cote,
- J.Denier, C. Dreyer, Ph.Ghosez, M.Giantomassi, Y.Gillet, O.Gingras,
- D.R.Hamann, G.Hautier, F.Jollet, G. Jomard,
- A.Martin, 
- H.P.C. Miranda, F.Naccarato, G.Petretto, N.A. Pike, V.Planes,
- S.Prokhorenko, T. Rangel, F.Ricci, G.-M.Rignanese, M.Royo, M.Stengel, M.Torrent,
- M.J.van Setten, B.Van Troeye, M.J.Verstraete, J.Wiktor, J.W.Zwanziger, and X.Gonze.
- Comment: a global overview of ABINIT, with focus on selected capabilities .
- Note that a version of this paper, that is not formatted for J. Chem. Phys 
- is available at https://www.abinit.org/sites/default/files/ABINIT20_JPC.pdf .
- The licence allows the authors to put it on the Web.
- DOI and bibtex: see https://docs.abinit.org/theory/bibliography/#romero2020
-
- [5] Recent developments in the ABINIT software package.
- Computer Phys. Comm. 205, 106 (2016).
- X.Gonze, F.Jollet, F.Abreu Araujo, D.Adams, B.Amadon, T.Applencourt,
- C.Audouze, J.-M.Beuken, J.Bieder, A.Bokhanchuk, E.Bousquet, F.Bruneval
- D.Caliste, M.Cote, F.Dahm, F.Da Pieve, M.Delaveau, M.Di Gennaro,
- B.Dorado, C.Espejo, G.Geneste, L.Genovese, A.Gerossier, M.Giantomassi,
- Y.Gillet, D.R.Hamann, L.He, G.Jomard, J.Laflamme Janssen, S.Le Roux,
- A.Levitt, A.Lherbier, F.Liu, I.Lukacevic, A.Martin, C.Martins,
- M.J.T.Oliveira, S.Ponce, Y.Pouillon, T.Rangel, G.-M.Rignanese,
- A.H.Romero, B.Rousseau, O.Rubel, A.A.Shukri, M.Stankovski, M.Torrent,
- M.J.Van Setten, B.Van Troeye, M.J.Verstraete, D.Waroquier, J.Wiktor,
- B.Xu, A.Zhou, J.W.Zwanziger.
- Comment: the fourth generic paper describing the ABINIT project.
- Note that a version of this paper, that is not formatted for Computer Phys. Comm. 
- is available at https://www.abinit.org/sites/default/files/ABINIT16.pdf .
- The licence allows the authors to put it on the Web.
- DOI and bibtex: see https://docs.abinit.org/theory/bibliography/#gonze2016
-
- Proc.   0 individual time (sec): cpu=      57822.7  wall=      57824.0

================================================================================

 Calculation completed.
.Delivered   0 WARNINGs and 190 COMMENTs to log file.
+Overall time at end (sec) : cpu=     346936.7  wall=     346943.9
