
.Version 9.2.2 of ABINIT 
.(MPI version, prepared for a x86_64_linux_gnu9.3 computer) 

.Copyright (C) 1998-2020 ABINIT group . 
 ABINIT comes with ABSOLUTELY NO WARRANTY.
 It is free software, and you are welcome to redistribute it
 under certain conditions (GNU General Public License,
 see ~abinit/COPYING or http://www.gnu.org/copyleft/gpl.txt).

 ABINIT is a project of the Universite Catholique de Louvain,
 Corning Inc. and other collaborators, see ~abinit/doc/developers/contributors.txt .
 Please read https://docs.abinit.org/theory/acknowledgments for suggested
 acknowledgments of the ABINIT effort.
 For more information, see https://www.abinit.org .

.Starting date : Sun 27 Nov 2022.
- ( at 14h16 )
  
- input  file    -> Cs2TiI6.in
- output file    -> Cs2TiI6.out
- root for input  files -> Cs2TiI6i
- root for output files -> Cs2TiI6o

- inpspheads : Reading pseudopotential header in XML form from 
-   ../../../Psps_for_tests/ATOMICDATA/Cs.GGA_PBE-JTH.xml
- inpspheads : Reading pseudopotential header in XML form from 
-   ../../../Psps_for_tests/ATOMICDATA/I.GGA_PBE-JTH.xml
- inpspheads : Reading pseudopotential header in XML form from 
-   ../../../Psps_for_tests/ATOMICDATA/Zr.GGA_PBE-JTH.xml
- inpspheads : Reading pseudopotential header in XML form from 
-   ../../../Psps_for_tests/ATOMICDATA/Br.GGA_PBE-JTH.xml

 DATASET    1 : space group I4/m m m (#139); Bravais tI (body-center tetrag.)
================================================================================
 Values of the parameters that define the memory need for DATASET  1.
     intxc =       0    ionmov =       0      iscf =      17    lmnmax =      18
     lnmax =       6     mgfft =      54  mpssoang =       3    mqgrid =    3369
     natom =       9  nloc_mem =       2    nspden =       1   nspinor =       1
    nsppol =       1      nsym =      16    n1xccc =       1    ntypat =       4
    occopt =       1   xclevel =       2
-    mband =          42        mffmem =           1         mkmem =          28
       mpw =        6620          nfft =      157464          nkpt =         163
Pmy_natom=         2
 PAW method is used; the additional fine FFT grid is defined by:
   mgfftf=        90    nfftf =    729000
================================================================================
P This job should need less than                     336.322 Mbytes of memory.
  Rough estimation (10% accuracy) of disk space for files :
_ WF disk file :    691.538 Mbytes ; DEN or POT disk file :      5.564 Mbytes.
================================================================================


 DATASET    2 : space group I4/m m m (#139); Bravais tI (body-center tetrag.)
================================================================================
 Values of the parameters that define the memory need for DATASET  2.
     intxc =       0    ionmov =       0      iscf =      17    lmnmax =      18
     lnmax =       6     mgfft =      54  mpssoang =       3    mqgrid =    3365
     natom =       9  nloc_mem =       2    nspden =       1   nspinor =       1
    nsppol =       1      nsym =      16    n1xccc =       1    ntypat =       4
    occopt =       1   xclevel =       2
-    mband =          42        mffmem =           1         mkmem =          28
       mpw =        6608          nfft =      157464          nkpt =         163
Pmy_natom=         2
 PAW method is used; the additional fine FFT grid is defined by:
   mgfftf=        90    nfftf =    729000
================================================================================
P This job should need less than                     336.092 Mbytes of memory.
  Rough estimation (10% accuracy) of disk space for files :
_ WF disk file :    690.285 Mbytes ; DEN or POT disk file :      5.564 Mbytes.
================================================================================


 DATASET    3 : space group I4/m m m (#139); Bravais tI (body-center tetrag.)
================================================================================
 Values of the parameters that define the memory need for DATASET  3.
     intxc =       0    ionmov =       0      iscf =      17    lmnmax =      18
     lnmax =       6     mgfft =      54  mpssoang =       3    mqgrid =    3362
     natom =       9  nloc_mem =       2    nspden =       1   nspinor =       1
    nsppol =       1      nsym =      16    n1xccc =       1    ntypat =       4
    occopt =       1   xclevel =       2
-    mband =          42        mffmem =           1         mkmem =          28
       mpw =        6581          nfft =      157464          nkpt =         163
Pmy_natom=         2
 PAW method is used; the additional fine FFT grid is defined by:
   mgfftf=        90    nfftf =    729000
================================================================================
P This job should need less than                     335.560 Mbytes of memory.
  Rough estimation (10% accuracy) of disk space for files :
_ WF disk file :    687.464 Mbytes ; DEN or POT disk file :      5.564 Mbytes.
================================================================================


 DATASET    4 : space group I4/m m m (#139); Bravais tI (body-center tetrag.)
================================================================================
 Values of the parameters that define the memory need for DATASET  4.
     intxc =       0    ionmov =       0      iscf =      17    lmnmax =      18
     lnmax =       6     mgfft =      54  mpssoang =       3    mqgrid =    3359
     natom =       9  nloc_mem =       2    nspden =       1   nspinor =       1
    nsppol =       1      nsym =      16    n1xccc =       1    ntypat =       4
    occopt =       1   xclevel =       2
-    mband =          42        mffmem =           1         mkmem =          28
       mpw =        6557          nfft =      157464          nkpt =         163
Pmy_natom=         2
 PAW method is used; the additional fine FFT grid is defined by:
   mgfftf=        90    nfftf =    729000
================================================================================
P This job should need less than                     335.088 Mbytes of memory.
  Rough estimation (10% accuracy) of disk space for files :
_ WF disk file :    684.957 Mbytes ; DEN or POT disk file :      5.564 Mbytes.
================================================================================


 DATASET    5 : space group I4/m m m (#139); Bravais tI (body-center tetrag.)
================================================================================
 Values of the parameters that define the memory need for DATASET  5.
     intxc =       0    ionmov =       0      iscf =      17    lmnmax =      18
     lnmax =       6     mgfft =      54  mpssoang =       3    mqgrid =    3355
     natom =       9  nloc_mem =       2    nspden =       1   nspinor =       1
    nsppol =       1      nsym =      16    n1xccc =       1    ntypat =       4
    occopt =       1   xclevel =       2
-    mband =          42        mffmem =           1         mkmem =          28
       mpw =        6542          nfft =      157464          nkpt =         163
Pmy_natom=         2
 PAW method is used; the additional fine FFT grid is defined by:
   mgfftf=        90    nfftf =    729000
================================================================================
P This job should need less than                     334.798 Mbytes of memory.
  Rough estimation (10% accuracy) of disk space for files :
_ WF disk file :    683.390 Mbytes ; DEN or POT disk file :      5.564 Mbytes.
================================================================================


 DATASET    6 : space group I4/m m m (#139); Bravais tI (body-center tetrag.)
================================================================================
 Values of the parameters that define the memory need for DATASET  6.
     intxc =       0    ionmov =       0      iscf =      17    lmnmax =      18
     lnmax =       6     mgfft =      54  mpssoang =       3    mqgrid =    3352
     natom =       9  nloc_mem =       2    nspden =       1   nspinor =       1
    nsppol =       1      nsym =      16    n1xccc =       1    ntypat =       4
    occopt =       1   xclevel =       2
-    mband =          42        mffmem =           1         mkmem =          28
       mpw =        6525          nfft =      157464          nkpt =         163
Pmy_natom=         2
 PAW method is used; the additional fine FFT grid is defined by:
   mgfftf=        90    nfftf =    729000
================================================================================
P This job should need less than                     334.468 Mbytes of memory.
  Rough estimation (10% accuracy) of disk space for files :
_ WF disk file :    681.614 Mbytes ; DEN or POT disk file :      5.564 Mbytes.
================================================================================


 DATASET    7 : space group I4/m m m (#139); Bravais tI (body-center tetrag.)
================================================================================
 Values of the parameters that define the memory need for DATASET  7.
     intxc =       0    ionmov =       0      iscf =      17    lmnmax =      18
     lnmax =       6     mgfft =      54  mpssoang =       3    mqgrid =    3348
     natom =       9  nloc_mem =       2    nspden =       1   nspinor =       1
    nsppol =       1      nsym =      16    n1xccc =       1    ntypat =       4
    occopt =       1   xclevel =       2
-    mband =          42        mffmem =           1         mkmem =          28
       mpw =        6498          nfft =      157464          nkpt =         163
Pmy_natom=         2
 PAW method is used; the additional fine FFT grid is defined by:
   mgfftf=        90    nfftf =    729000
================================================================================
P This job should need less than                     333.936 Mbytes of memory.
  Rough estimation (10% accuracy) of disk space for files :
_ WF disk file :    678.794 Mbytes ; DEN or POT disk file :      5.564 Mbytes.
================================================================================


 DATASET    8 : space group I4/m m m (#139); Bravais tI (body-center tetrag.)
================================================================================
 Values of the parameters that define the memory need for DATASET  8.
     intxc =       0    ionmov =       0      iscf =      17    lmnmax =      18
     lnmax =       6     mgfft =      54  mpssoang =       3    mqgrid =    3345
     natom =       9  nloc_mem =       2    nspden =       1   nspinor =       1
    nsppol =       1      nsym =      16    n1xccc =       1    ntypat =       4
    occopt =       1   xclevel =       2
-    mband =          42        mffmem =           1         mkmem =          28
       mpw =        6476          nfft =      157464          nkpt =         163
Pmy_natom=         2
 PAW method is used; the additional fine FFT grid is defined by:
   mgfftf=        90    nfftf =    729000
================================================================================
P This job should need less than                     333.505 Mbytes of memory.
  Rough estimation (10% accuracy) of disk space for files :
_ WF disk file :    676.496 Mbytes ; DEN or POT disk file :      5.564 Mbytes.
================================================================================


 DATASET    9 : space group I4/m m m (#139); Bravais tI (body-center tetrag.)
================================================================================
 Values of the parameters that define the memory need for DATASET  9.
     intxc =       0    ionmov =       0      iscf =      17    lmnmax =      18
     lnmax =       6     mgfft =      54  mpssoang =       3    mqgrid =    3342
     natom =       9  nloc_mem =       2    nspden =       1   nspinor =       1
    nsppol =       1      nsym =      16    n1xccc =       1    ntypat =       4
    occopt =       1   xclevel =       2
-    mband =          42        mffmem =           1         mkmem =          28
       mpw =        6473          nfft =      157464          nkpt =         163
Pmy_natom=         2
 PAW method is used; the additional fine FFT grid is defined by:
   mgfftf=        90    nfftf =    729000
================================================================================
P This job should need less than                     333.457 Mbytes of memory.
  Rough estimation (10% accuracy) of disk space for files :
_ WF disk file :    676.182 Mbytes ; DEN or POT disk file :      5.564 Mbytes.
================================================================================

--------------------------------------------------------------------------------
------------- Echo of variables that govern the present computation ------------
--------------------------------------------------------------------------------
-
- outvars: echo of selected default values                                      
-   iomode0 =  0 , fftalg0 =112 , wfoptalg0 = 10
-
- outvars: echo of global parameters not present in the input file              
-  max_nthreads =    0
-
 -outvars: echo values of preprocessed input variables --------
            acell1     1.4384706481E+01  1.4384706481E+01  1.4747893610E+01 Bohr
            acell2     1.4369309462E+01  1.4369309462E+01  1.4735550327E+01 Bohr
            acell3     1.4354095397E+01  1.4354095397E+01  1.4722767050E+01 Bohr
            acell4     1.4339183546E+01  1.4339183546E+01  1.4709251409E+01 Bohr
            acell5     1.4324353198E+01  1.4324353198E+01  1.4695538553E+01 Bohr
            acell6     1.4309261839E+01  1.4309261839E+01  1.4682462993E+01 Bohr
            acell7     1.4294258083E+01  1.4294258083E+01  1.4669175878E+01 Bohr
            acell8     1.4279408026E+01  1.4279408026E+01  1.4655514888E+01 Bohr
            acell9     1.4264520704E+01  1.4264520704E+01  1.4641946082E+01 Bohr
              amu      1.32905430E+02  1.26904470E+02  9.12240000E+01
                       7.99040000E+01
           diemac      1.20000000E+01
             ecut      1.60000000E+01 Hartree
-          fftalg         112
           istwfk        2    0    0    0    0    0    3    0    0    0
                         0    0    0    0    0    0    0    0    0    0
                         0    0    0    0    0    0    0    0    0    0
                         0    0    0    0    0    0    0    0    0    0
                         0    0    7    0    0    0    0    0    0    0
                       outvar_i_n : Printing only first  50 k-points.
              ixc     -101130
           jdtset        1    2    3    4    5    6    7    8    9
              kpt      0.00000000E+00  0.00000000E+00  0.00000000E+00
                       8.33333333E-02  0.00000000E+00  0.00000000E+00
                       1.66666667E-01  0.00000000E+00  0.00000000E+00
                       2.50000000E-01  0.00000000E+00  0.00000000E+00
                       3.33333333E-01  0.00000000E+00  0.00000000E+00
                       4.16666667E-01  0.00000000E+00  0.00000000E+00
                       5.00000000E-01  0.00000000E+00  0.00000000E+00
                       8.33333333E-02  8.33333333E-02  0.00000000E+00
                       1.66666667E-01  8.33333333E-02  0.00000000E+00
                       2.50000000E-01  8.33333333E-02  0.00000000E+00
                       3.33333333E-01  8.33333333E-02  0.00000000E+00
                       4.16666667E-01  8.33333333E-02  0.00000000E+00
                       5.00000000E-01  8.33333333E-02  0.00000000E+00
                      -4.16666667E-01  8.33333333E-02  0.00000000E+00
                      -3.33333333E-01  8.33333333E-02  0.00000000E+00
                      -2.50000000E-01  8.33333333E-02  0.00000000E+00
                      -1.66666667E-01  8.33333333E-02  0.00000000E+00
                      -8.33333333E-02  8.33333333E-02  0.00000000E+00
                       1.66666667E-01  1.66666667E-01  0.00000000E+00
                       2.50000000E-01  1.66666667E-01  0.00000000E+00
                       3.33333333E-01  1.66666667E-01  0.00000000E+00
                       4.16666667E-01  1.66666667E-01  0.00000000E+00
                       5.00000000E-01  1.66666667E-01  0.00000000E+00
                      -4.16666667E-01  1.66666667E-01  0.00000000E+00
                      -3.33333333E-01  1.66666667E-01  0.00000000E+00
                      -2.50000000E-01  1.66666667E-01  0.00000000E+00
                      -1.66666667E-01  1.66666667E-01  0.00000000E+00
                       2.50000000E-01  2.50000000E-01  0.00000000E+00
                       3.33333333E-01  2.50000000E-01  0.00000000E+00
                       4.16666667E-01  2.50000000E-01  0.00000000E+00
                       5.00000000E-01  2.50000000E-01  0.00000000E+00
                      -4.16666667E-01  2.50000000E-01  0.00000000E+00
                      -3.33333333E-01  2.50000000E-01  0.00000000E+00
                      -2.50000000E-01  2.50000000E-01  0.00000000E+00
                       3.33333333E-01  3.33333333E-01  0.00000000E+00
                       4.16666667E-01  3.33333333E-01  0.00000000E+00
                       5.00000000E-01  3.33333333E-01  0.00000000E+00
                      -4.16666667E-01  3.33333333E-01  0.00000000E+00
                      -3.33333333E-01  3.33333333E-01  0.00000000E+00
                       4.16666667E-01  4.16666667E-01  0.00000000E+00
                       5.00000000E-01  4.16666667E-01  0.00000000E+00
                      -4.16666667E-01  4.16666667E-01  0.00000000E+00
                       5.00000000E-01  5.00000000E-01  0.00000000E+00
                       8.33333333E-02  0.00000000E+00  8.33333333E-02
                       1.66666667E-01  0.00000000E+00  8.33333333E-02
                       2.50000000E-01  0.00000000E+00  8.33333333E-02
                       3.33333333E-01  0.00000000E+00  8.33333333E-02
                       4.16666667E-01  0.00000000E+00  8.33333333E-02
                       5.00000000E-01  0.00000000E+00  8.33333333E-02
                      -4.16666667E-01  0.00000000E+00  8.33333333E-02
                       outvar_i_n : Printing only first  50 k-points.
         kptrlatt       12    0    0      0   12    0      0    0   12
          kptrlen1     1.72616478E+02
          kptrlen2     1.72431714E+02
          kptrlen3     1.72249145E+02
          kptrlen4     1.72070203E+02
          kptrlen5     1.71892238E+02
          kptrlen6     1.71711142E+02
          kptrlen7     1.71531097E+02
          kptrlen8     1.71352896E+02
          kptrlen9     1.71174248E+02
P           mkmem          28
            natom           9
            nband          42
           ndtset           9
            ngfft          54      54      54
          ngfftdg          90      90      90
             nkpt         163
            nstep        2500
             nsym          16
           ntypat           4
              occ      2.000000  2.000000  2.000000  2.000000  2.000000  2.000000
                       2.000000  2.000000  2.000000  2.000000  2.000000  2.000000
                       2.000000  2.000000  2.000000  2.000000  2.000000  2.000000
                       2.000000  2.000000  2.000000  2.000000  2.000000  2.000000
                       2.000000  2.000000  2.000000  2.000000  2.000000  2.000000
                       2.000000  2.000000  2.000000  2.000000  2.000000  2.000000
                       0.000000  0.000000  0.000000  0.000000  0.000000  0.000000
        pawecutdg      4.00000000E+01 Hartree
            prtwf           0
            rprim1     0.0000000000E+00  7.2495991442E-01  6.8879105866E-01
                       7.2495991442E-01  0.0000000000E+00  6.8879105866E-01
                       7.0710678119E-01  7.0710678119E-01  0.0000000000E+00
            rprim2     0.0000000000E+00  7.2512931732E-01  6.8861271638E-01
                       7.2512931732E-01  0.0000000000E+00  6.8861271638E-01
                       7.0710678119E-01  7.0710678119E-01  0.0000000000E+00
            rprim3     0.0000000000E+00  7.2526816430E-01  6.8846647693E-01
                       7.2526816430E-01  0.0000000000E+00  6.8846647693E-01
                       7.0710678119E-01  7.0710678119E-01  0.0000000000E+00
            rprim4     0.0000000000E+00  7.2535590210E-01  6.8837403735E-01
                       7.2535590210E-01  0.0000000000E+00  6.8837403735E-01
                       7.0710678119E-01  7.0710678119E-01  0.0000000000E+00
            rprim5     0.0000000000E+00  7.2542995973E-01  6.8829599268E-01
                       7.2542995973E-01  0.0000000000E+00  6.8829599268E-01
                       7.0710678119E-01  7.0710678119E-01  0.0000000000E+00
            rprim6     0.0000000000E+00  7.2554889716E-01  6.8817061680E-01
                       7.2554889716E-01  0.0000000000E+00  6.8817061680E-01
                       7.0710678119E-01  7.0710678119E-01  0.0000000000E+00
            rprim7     0.0000000000E+00  7.2565317329E-01  6.8806066019E-01
                       7.2565317329E-01  0.0000000000E+00  6.8806066019E-01
                       7.0710678119E-01  7.0710678119E-01  0.0000000000E+00
            rprim8     0.0000000000E+00  7.2573134262E-01  6.8797821066E-01
                       7.2573134262E-01  0.0000000000E+00  6.8797821066E-01
                       7.0710678119E-01  7.0710678119E-01  0.0000000000E+00
            rprim9     0.0000000000E+00  7.2581614051E-01  6.8788874840E-01
                       7.2581614051E-01  0.0000000000E+00  6.8788874840E-01
                       7.0710678119E-01  7.0710678119E-01  0.0000000000E+00
          spgroup         139
           symrel      1  0  0   0  1  0   0  0  1      -1  0  0   0 -1  0   0  0 -1
                      -1  0  1   0 -1  1   0  0  1       1  0 -1   0  1 -1   0  0 -1
                       0  1 -1   1  0 -1   0  0 -1       0 -1  1  -1  0  1   0  0  1
                       0 -1  0  -1  0  0   0  0 -1       0  1  0   1  0  0   0  0  1
                       1  0  0   1  0 -1   1 -1  0      -1  0  0  -1  0  1  -1  1  0
                       0 -1  0   0 -1  1   1 -1  0       0  1  0   0  1 -1  -1  1  0
                       0  1 -1   0  1  0  -1  1  0       0 -1  1   0 -1  0   1 -1  0
                      -1  0  1  -1  0  0  -1  1  0       1  0 -1   1  0  0   1 -1  0
           toldfe      1.00000000E-08 Hartree
            typat      1  1  4  4  2  2  2  2  3
           useylm           1
              wtk        0.00058    0.00463    0.00463    0.00463    0.00463    0.00463
                         0.00231    0.00116    0.00463    0.00463    0.00463    0.00463
                         0.00463    0.00463    0.00463    0.00463    0.00463    0.00231
                         0.00116    0.00463    0.00463    0.00463    0.00463    0.00463
                         0.00463    0.00463    0.00231    0.00116    0.00463    0.00463
                         0.00463    0.00463    0.00463    0.00231    0.00116    0.00463
                         0.00463    0.00463    0.00231    0.00116    0.00463    0.00231
                         0.00058    0.00231    0.00926    0.00926    0.00926    0.00926
                         0.00926    0.00926
                       outvars : Printing only first  50 k-points.
           xangst1     2.7592187561E+00  2.7592187561E+00  2.6215590273E+00
                       8.2776562684E+00  8.2776562684E+00  7.8646770819E+00
                       5.5184375123E+00  5.5184375123E+00  2.5938066009E+00
                       5.5184375122E+00  5.5184375122E+00  7.8924295083E+00
                       8.2016193468E+00  5.5184375123E+00  5.2431180546E+00
                       5.5184375123E+00  8.2016193468E+00  5.2431180546E+00
                       5.5184375122E+00  2.8352556778E+00  5.2431180546E+00
                       2.8352556778E+00  5.5184375122E+00  5.2431180546E+00
                      -1.8808286421E-21  4.1798548024E-21 -1.0238307785E-20
           xangst2     2.7569094218E+00  2.7569094218E+00  2.6180749287E+00
                       8.2707282653E+00  8.2707282653E+00  7.8542247860E+00
                       5.5138188436E+00  5.5138188436E+00  2.5930661684E+00
                       5.5138188435E+00  5.5138188435E+00  7.8792335463E+00
                       8.1935327802E+00  5.5138188436E+00  5.2361498573E+00
                       5.5138188436E+00  8.1935327802E+00  5.2361498573E+00
                       5.5138188435E+00  2.8341049070E+00  5.2361498573E+00
                       2.8341049070E+00  5.5138188435E+00  5.2361498573E+00
                      -1.1855165264E-21  2.7699748766E-21 -1.1055650311E-20
           xangst3     2.7545177679E+00  2.7545177679E+00  2.6147475329E+00
                       8.2635533036E+00  8.2635533036E+00  7.8442425986E+00
                       5.5090355357E+00  5.5090355357E+00  2.5923181785E+00
                       5.5090355357E+00  5.5090355357E+00  7.8666719529E+00
                       8.1850992419E+00  5.5090355357E+00  5.2294950657E+00
                       5.5090355357E+00  8.1850992419E+00  5.2294950657E+00
                       5.5090355357E+00  2.8329718296E+00  5.2294950657E+00
                       2.8329718296E+00  5.5090355357E+00  5.2294950657E+00
                       5.1834455840E-21 -9.5340391378E-22  6.1494698566E-21
           xangst4     2.7519890941E+00  2.7519890941E+00  2.6116804700E+00
                       8.2559672822E+00  8.2559672822E+00  7.8350414100E+00
                       5.5039781883E+00  5.5039781883E+00  2.5916736477E+00
                       5.5039781880E+00  5.5039781880E+00  7.8550482324E+00
                       8.1761950715E+00  5.5039781883E+00  5.2233609400E+00
                       5.5039781883E+00  8.1761950715E+00  5.2233609400E+00
                       5.5039781880E+00  2.8317613048E+00  5.2233609400E+00
                       2.8317613048E+00  5.5039781880E+00  5.2233609400E+00
                      -1.5353739851E-21  3.7932831977E-21 -9.8631161525E-21
           xangst5     2.7494235231E+00  2.7494235231E+00  2.6086835368E+00
                       8.2482705692E+00  8.2482705692E+00  7.8260506105E+00
                       5.4988470462E+00  5.4988470462E+00  2.5909507396E+00
                       5.4988470461E+00  5.4988470461E+00  7.8437834077E+00
                       8.1671403468E+00  5.4988470462E+00  5.2173670736E+00
                       5.4988470462E+00  8.1671403468E+00  5.2173670736E+00
                       5.4988470461E+00  2.8305537454E+00  5.2173670736E+00
                       2.8305537454E+00  5.4988470461E+00  5.2173670736E+00
                      -1.7764861787E-21  4.1927201925E-21 -9.7323708936E-21
           xangst6     2.7469771852E+00  2.7469771852E+00  2.6054604883E+00
                       8.2409315557E+00  8.2409315557E+00  7.8163814648E+00
                       5.4939543705E+00  5.4939543705E+00  2.5901987341E+00
                       5.4939543704E+00  5.4939543704E+00  7.8316432189E+00
                       8.1585849419E+00  5.4939543705E+00  5.2109209765E+00
                       5.4939543705E+00  8.1585849419E+00  5.2109209765E+00
                       5.4939543704E+00  2.8293237989E+00  5.2109209765E+00
                       2.8293237989E+00  5.4939543704E+00  5.2109209765E+00
                      -1.8724841434E-21  4.1613104268E-21 -1.0175436113E-20
           xangst7     2.7444912671E+00  2.7444912671E+00  2.6023127062E+00
                       8.2334738013E+00  8.2334738013E+00  7.8069381185E+00
                       5.4889825342E+00  5.4889825342E+00  2.5894905191E+00
                       5.4889825342E+00  5.4889825342E+00  7.8197603056E+00
                       8.1498536807E+00  5.4889825342E+00  5.2046254123E+00
                       5.4889825342E+00  8.1498536807E+00  5.2046254123E+00
                       5.4889825342E+00  2.8281113877E+00  5.2046254123E+00
                       2.8281113877E+00  5.4889825342E+00  5.2046254123E+00
                      -1.6577591910E-21  3.2949294707E-21 -9.6050221362E-21
           xangst8     2.7419353997E+00  2.7419353997E+00  2.5992977004E+00
                       8.2258061990E+00  8.2258061990E+00  7.7978931011E+00
                       5.4838707994E+00  5.4838707994E+00  2.5887644461E+00
                       5.4838707992E+00  5.4838707992E+00  7.8084263553E+00
                       8.1408525588E+00  5.4838707994E+00  5.1985954007E+00
                       5.4838707994E+00  8.1408525588E+00  5.1985954007E+00
                       5.4838707992E+00  2.8268890398E+00  5.1985954007E+00
                       2.8268890398E+00  5.4838707992E+00  5.1985954007E+00
                      -5.5793381307E-21  7.0889169006E-21 -4.5377694098E-21
           xangst9     2.7393967792E+00  2.7393967792E+00  2.5962500922E+00
                       8.2181903376E+00  8.2181903376E+00  7.7887502767E+00
                       5.4787935585E+00  5.4787935585E+00  2.5880373814E+00
                       5.4787935583E+00  5.4787935583E+00  7.7969629876E+00
                       8.1319482404E+00  5.4787935585E+00  5.1925001845E+00
                       5.4787935585E+00  8.1319482404E+00  5.1925001845E+00
                       5.4787935583E+00  2.8256388764E+00  5.1925001845E+00
                       2.8256388764E+00  5.4787935583E+00  5.1925001845E+00
                      -8.5219591063E-21  1.0127419032E-20 -9.1768720714E-21
            xcart1     5.2141677898E+00  5.2141677898E+00  4.9540286028E+00
                       1.5642503369E+01  1.5642503369E+01  1.4862085808E+01
                       1.0428335580E+01  1.0428335580E+01  4.9015841174E+00
                       1.0428335580E+01  1.0428335580E+01  1.4914530294E+01
                       1.5498814412E+01  1.0428335580E+01  9.9080572056E+00
                       1.0428335580E+01  1.5498814412E+01  9.9080572056E+00
                       1.0428335580E+01  5.3578567478E+00  9.9080572056E+00
                       5.3578567478E+00  1.0428335580E+01  9.9080572056E+00
                      -3.5542510364E-21  7.8987808518E-21 -1.9347597778E-20
            xcart2     5.2098037803E+00  5.2098037803E+00  4.9474446106E+00
                       1.5629411341E+01  1.5629411341E+01  1.4842333832E+01
                       1.0419607561E+01  1.0419607561E+01  4.9001849027E+00
                       1.0419607561E+01  1.0419607561E+01  1.4889593540E+01
                       1.5483533015E+01  1.0419607561E+01  9.8948892211E+00
                       1.0419607561E+01  1.5483533015E+01  9.8948892211E+00
                       1.0419607561E+01  5.3556821060E+00  9.8948892211E+00
                       5.3556821060E+00  1.0419607561E+01  9.8948892211E+00
                      -2.2403015609E-21  5.2344939117E-21 -2.0892151309E-20
            xcart3     5.2052842094E+00  5.2052842094E+00  4.9411567437E+00
                       1.5615852628E+01  1.5615852628E+01  1.4823470231E+01
                       1.0410568419E+01  1.0410568419E+01  4.8987714067E+00
                       1.0410568419E+01  1.0410568419E+01  1.4865855568E+01
                       1.5467595938E+01  1.0410568419E+01  9.8823134875E+00
                       1.0410568419E+01  1.5467595938E+01  9.8823134875E+00
                       1.0410568419E+01  5.3535409000E+00  9.8823134875E+00
                       5.3535409000E+00  1.0410568419E+01  9.8823134875E+00
                       9.7952925784E-21 -1.8016722911E-21  1.1620813891E-20
            xcart4     5.2005057085E+00  5.2005057085E+00  4.9353608349E+00
                       1.5601517125E+01  1.5601517125E+01  1.4806082505E+01
                       1.0401011417E+01  1.0401011417E+01  4.8975534199E+00
                       1.0401011417E+01  1.0401011417E+01  1.4843889920E+01
                       1.5450769494E+01  1.0401011417E+01  9.8707216699E+00
                       1.0401011417E+01  1.5450769494E+01  9.8707216699E+00
                       1.0401011417E+01  5.3512533397E+00  9.8707216699E+00
                       5.3512533397E+00  1.0401011417E+01  9.8707216699E+00
                      -2.9014363435E-21  7.1682663881E-21 -1.8638588345E-20
            xcart5     5.1956574819E+00  5.1956574819E+00  4.9296974520E+00
                       1.5586972446E+01  1.5586972446E+01  1.4789092356E+01
                       1.0391314964E+01  1.0391314964E+01  4.8961873216E+00
                       1.0391314964E+01  1.0391314964E+01  1.4822602486E+01
                       1.5433658544E+01  1.0391314964E+01  9.8593949039E+00
                       1.0391314964E+01  1.5433658544E+01  9.8593949039E+00
                       1.0391314964E+01  5.3489713833E+00  9.8593949039E+00
                       5.3489713833E+00  1.0391314964E+01  9.8593949039E+00
                      -3.3570723566E-21  7.9230929156E-21 -1.8391515613E-20
            xcart6     5.1910345733E+00  5.1910345733E+00  4.9236067728E+00
                       1.5573103720E+01  1.5573103720E+01  1.4770820319E+01
                       1.0382069147E+01  1.0382069147E+01  4.8947662373E+00
                       1.0382069147E+01  1.0382069147E+01  1.4799660854E+01
                       1.5417491172E+01  1.0382069147E+01  9.8472135457E+00
                       1.0382069147E+01  1.5417491172E+01  9.8472135457E+00
                       1.0382069147E+01  5.3466471212E+00  9.8472135457E+00
                       5.3466471212E+00  1.0382069147E+01  9.8472135457E+00
                      -3.5384822192E-21  7.8637370606E-21 -1.9228787537E-20
            xcart7     5.1863368689E+00  5.1863368689E+00  4.9176583268E+00
                       1.5559010607E+01  1.5559010607E+01  1.4752974980E+01
                       1.0372673738E+01  1.0372673738E+01  4.8934279047E+00
                       1.0372673738E+01  1.0372673738E+01  1.4777205402E+01
                       1.5400991480E+01  1.0372673738E+01  9.8353166535E+00
                       1.0372673738E+01  1.5400991480E+01  9.8353166535E+00
                       1.0372673738E+01  5.3443559960E+00  9.8353166535E+00
                       5.3443559960E+00  1.0372673738E+01  9.8353166535E+00
                      -3.1327108653E-21  6.2265143268E-21 -1.8150861338E-20
            xcart8     5.1815069794E+00  5.1815069794E+00  4.9119607915E+00
                       1.5544520938E+01  1.5544520938E+01  1.4735882375E+01
                       1.0363013959E+01  1.0363013959E+01  4.8920558257E+00
                       1.0363013959E+01  1.0363013959E+01  1.4755787340E+01
                       1.5383981824E+01  1.0363013959E+01  9.8239215830E+00
                       1.0363013959E+01  1.5383981824E+01  9.8239215830E+00
                       1.0363013959E+01  5.3420460933E+00  9.8239215830E+00
                       5.3420460933E+00  1.0363013959E+01  9.8239215830E+00
                      -1.0543421070E-20  1.3396111521E-20 -8.5751414388E-21
            xcart9     5.1767096820E+00  5.1767096820E+00  4.9062016468E+00
                       1.5530129046E+01  1.5530129046E+01  1.4718604940E+01
                       1.0353419364E+01  1.0353419364E+01  4.8906818725E+00
                       1.0353419364E+01  1.0353419364E+01  1.4734124715E+01
                       1.5367155101E+01  1.0353419364E+01  9.8124032936E+00
                       1.0353419364E+01  1.5367155101E+01  9.8124032936E+00
                       1.0353419364E+01  5.3396836269E+00  9.8124032936E+00
                       5.3396836269E+00  1.0353419364E+01  9.8124032936E+00
                      -1.6104168827E-20  1.9138048404E-20 -1.7341774971E-20
             xred1     2.5000000000E-01  2.5000000000E-01  2.5000000000E-01
                       7.5000000000E-01  7.5000000000E-01  7.5000000000E-01
                       2.4735344254E-01  2.4735344254E-01  7.5264655746E-01
                       7.5264655746E-01  7.5264655746E-01  2.4735344254E-01
                       2.5688935242E-01  7.4311064758E-01  7.4311064758E-01
                       7.4311064758E-01  2.5688935242E-01  7.4311064758E-01
                       2.5688935242E-01  7.4311064758E-01  2.5688935242E-01
                       7.4311064758E-01  2.5688935242E-01  2.5688935242E-01
                      -4.2722639981E-22 -1.5254871722E-21  1.1846608716E-21
             xred2     2.5000000000E-01  2.5000000000E-01  2.5000000000E-01
                       7.5000000000E-01  7.5000000000E-01  7.5000000000E-01
                       2.4761191324E-01  2.4761191324E-01  7.5238808676E-01
                       7.5238808676E-01  7.5238808676E-01  2.4761191324E-01
                       2.5700018330E-01  7.4299981670E-01  7.4299981670E-01
                       7.4299981670E-01  2.5700018330E-01  7.4299981670E-01
                       2.5700018330E-01  7.4299981670E-01  2.5700018330E-01
                       7.4299981670E-01  2.5700018330E-01  2.5700018330E-01
                      -6.9701523851E-22 -1.4143930696E-21  1.1993848221E-21
             xred3     2.5000000000E-01  2.5000000000E-01  2.5000000000E-01
                       7.5000000000E-01  7.5000000000E-01  7.5000000000E-01
                       2.4785549522E-01  2.4785549522E-01  7.5214450478E-01
                       7.5214450478E-01  7.5214450478E-01  2.4785549522E-01
                       2.5712048971E-01  7.4287951029E-01  7.4287951029E-01
                       7.4287951029E-01  2.5712048971E-01  7.4287951029E-01
                       2.5712048971E-01  7.4287951029E-01  2.5712048971E-01
                       7.4287951029E-01  2.5712048971E-01  2.5712048971E-01
                       3.0979805267E-23  1.1449405808E-21 -2.0404166112E-22
             xred4     2.5000000000E-01  2.5000000000E-01  2.5000000000E-01
                       7.5000000000E-01  7.5000000000E-01  7.5000000000E-01
                       2.4808487078E-01  2.4808487078E-01  7.5191512922E-01
                       7.5191512922E-01  7.5191512922E-01  2.4808487078E-01
                       2.5724677751E-01  7.4275322249E-01  7.4275322249E-01
                       7.4275322249E-01  2.5724677751E-01  7.4275322249E-01
                       2.5724677751E-01  7.4275322249E-01  2.5724677751E-01
                       7.4275322249E-01  2.5724677751E-01  2.5724677751E-01
                      -4.6006179061E-22 -1.4282082841E-21  1.1492511492E-21
             xred5     2.5000000000E-01  2.5000000000E-01  2.5000000000E-01
                       7.5000000000E-01  7.5000000000E-01  7.5000000000E-01
                       2.4830059904E-01  2.4830059904E-01  7.5169940096E-01
                       7.5169940096E-01  7.5169940096E-01  2.4830059904E-01
                       2.5737702119E-01  7.4262297881E-01  7.4262297881E-01
                       7.4262297881E-01  2.5737702119E-01  7.4262297881E-01
                       2.5737702119E-01  7.4262297881E-01  2.5737702119E-01
                       7.4262297881E-01  2.5737702119E-01  2.5737702119E-01
                      -3.8992097138E-22 -1.4754587798E-21  1.1523935692E-21
             xred6     2.5000000000E-01  2.5000000000E-01  2.5000000000E-01
                       7.5000000000E-01  7.5000000000E-01  7.5000000000E-01
                       2.4853559916E-01  2.4853559916E-01  7.5146440084E-01
                       7.5146440084E-01  7.5146440084E-01  2.4853559916E-01
                       2.5749429356E-01  7.4250570644E-01  7.4250570644E-01
                       7.4250570644E-01  2.5749429356E-01  7.4250570644E-01
                       2.5749429356E-01  7.4250570644E-01  2.5749429356E-01
                       7.4250570644E-01  2.5749429356E-01  2.5749429356E-01
                      -4.2722639981E-22 -1.5254871722E-21  1.1846608716E-21
             xred7     2.5000000000E-01  2.5000000000E-01  2.5000000000E-01
                       7.5000000000E-01  7.5000000000E-01  7.5000000000E-01
                       2.4876819309E-01  2.4876819309E-01  7.5123180691E-01
                       7.5123180691E-01  7.5123180691E-01  2.4876819309E-01
                       2.5761708751E-01  7.4238291249E-01  7.4238291249E-01
                       7.4238291249E-01  2.5761708751E-01  7.4238291249E-01
                       2.5761708751E-01  7.4238291249E-01  2.5761708751E-01
                       7.4238291249E-01  2.5761708751E-01  2.5761708751E-01
                      -4.7159088946E-22 -1.3738871950E-21  1.0718714424E-21
             xred8     2.5000000000E-01  2.5000000000E-01  2.5000000000E-01
                       7.5000000000E-01  7.5000000000E-01  7.5000000000E-01
                       2.4898691344E-01  2.4898691344E-01  7.5101308656E-01
                       7.5101308656E-01  7.5101308656E-01  2.4898691344E-01
                       2.5774577331E-01  7.4225422669E-01  7.4225422669E-01
                       7.4225422669E-01  2.5774577331E-01  7.4225422669E-01
                       2.5774577331E-01  7.4225422669E-01  2.5774577331E-01
                       7.4225422669E-01  2.5774577331E-01  2.5774577331E-01
                       7.1860494646E-22 -1.5914886891E-21  5.7407993983E-22
             xred9     2.5000000000E-01  2.5000000000E-01  2.5000000000E-01
                       7.5000000000E-01  7.5000000000E-01  7.5000000000E-01
                       2.4920917568E-01  2.4920917568E-01  7.5079082432E-01
                       7.5079082432E-01  7.5079082432E-01  2.4920917568E-01
                       2.5787053722E-01  7.4212946278E-01  7.4212946278E-01
                       7.4212946278E-01  2.5787053722E-01  7.4212946278E-01
                       2.5787053722E-01  7.4212946278E-01  2.5787053722E-01
                       7.4212946278E-01  2.5787053722E-01  2.5787053722E-01
                       8.1829425701E-22 -2.5856263216E-21  1.0301818581E-21
            znucl       55.00000   53.00000   40.00000   35.00000

================================================================================

 chkinp: Checking input parameters for consistency, jdtset=   1.

 chkinp: Checking input parameters for consistency, jdtset=   2.

 chkinp: Checking input parameters for consistency, jdtset=   3.

 chkinp: Checking input parameters for consistency, jdtset=   4.

 chkinp: Checking input parameters for consistency, jdtset=   5.

 chkinp: Checking input parameters for consistency, jdtset=   6.

 chkinp: Checking input parameters for consistency, jdtset=   7.

 chkinp: Checking input parameters for consistency, jdtset=   8.

 chkinp: Checking input parameters for consistency, jdtset=   9.

================================================================================
== DATASET  1 ==================================================================
-   mpi_nproc: 6, omp_nthreads: -1 (-1 if OMP is not activated)


--- !DatasetInfo
iteration_state: {dtset: 1, }
dimensions: {natom: 9, nkpt: 163, mband: 42, nsppol: 1, nspinor: 1, nspden: 1, mpw: 6620, }
cutoff_energies: {ecut:  16.0, pawecutdg:  40.0, }
electrons: {nelect:   7.20000000E+01, charge:   0.00000000E+00, occopt:   1.00000000E+00, tsmear:   1.00000000E-02, }
meta: {optdriver: 0, ionmov: 0, optcell: 0, iscf: 17, paral_kgb: 0, }
...

 Real(R)+Recip(G) space primitive vectors, cartesian coordinates (Bohr,Bohr^-1):
 R(1)=  0.0000000 10.4283356  9.9080572  G(1)= -0.0479463  0.0479463  0.0504640
 R(2)= 10.4283356  0.0000000  9.9080572  G(2)=  0.0479463 -0.0479463  0.0504640
 R(3)= 10.4283356 10.4283356  0.0000000  G(3)=  0.0479463  0.0479463 -0.0504640
 Unit cell volume ucvol=  2.1550061E+03 bohr^3
 Angles (23,13,12)=  5.91612236E+01  5.91612236E+01  6.16775529E+01 degrees

 Coarse grid specifications (used for wave-functions):

 getcut: wavevector=  0.0000  0.0000  0.0000  ngfft=  54  54  54
         ecut(hartree)=     16.000   => boxcut(ratio)=   2.03425

 Fine grid specifications (used for densities):

 getcut: wavevector=  0.0000  0.0000  0.0000  ngfft=  90  90  90
         ecut(hartree)=     40.000   => boxcut(ratio)=   2.14376

--- Pseudopotential description ------------------------------------------------
- pspini: atom type   1  psp file is ../../../Psps_for_tests/ATOMICDATA/Cs.GGA_PBE-JTH.xml
- pspatm: opening atomic psp file    ../../../Psps_for_tests/ATOMICDATA/Cs.GGA_PBE-JTH.xml
- pspatm : Reading pseudopotential header in XML form from ../../../Psps_for_tests/ATOMICDATA/Cs.GGA_PBE-JTH.xml
 Pseudopotential format is: paw10
 basis_size (lnmax)=  6 (lmn_size= 18), orbitals=   0   0   1   1   2   2
 Spheres core radius: rc_sph= 2.20660278
 1 radial meshes are used:
  - mesh 1: r(i)=AA*[exp(BB*(i-1))-1], size=1500 , AA= 0.15922E-03 BB= 0.87573E-02
 Shapefunction is SIN type: shapef(r)=[sin(pi*r/rshp)/(pi*r/rshp)]**2
 Radius for shape functions =  2.00394208
 mmax= 1500
 Radial grid used for partial waves is grid 1
 Radial grid used for projectors is grid 1
 Radial grid used for (t)core density is grid 1
 Radial grid used for Vloc is grid 1
 Radial grid used for pseudo valence density is grid 1
 Mesh size for Vloc has been set to 1341 to avoid numerical noise.
 Compensation charge density is not taken into account in XC energy/potential
 pspatm: atomic psp has been read  and splines computed

- pspini: atom type   2  psp file is ../../../Psps_for_tests/ATOMICDATA/I.GGA_PBE-JTH.xml
- pspatm: opening atomic psp file    ../../../Psps_for_tests/ATOMICDATA/I.GGA_PBE-JTH.xml
- pspatm : Reading pseudopotential header in XML form from ../../../Psps_for_tests/ATOMICDATA/I.GGA_PBE-JTH.xml
 Pseudopotential format is: paw10
 basis_size (lnmax)=  4 (lmn_size=  8), orbitals=   0   0   1   1
 Spheres core radius: rc_sph= 2.30022271
 1 radial meshes are used:
  - mesh 1: r(i)=AA*[exp(BB*(i-1))-1], size=2000 , AA= 0.12610E-03 BB= 0.66836E-02
 Shapefunction is SIN type: shapef(r)=[sin(pi*r/rshp)/(pi*r/rshp)]**2
 Radius for shape functions =  2.10879093
 mmax= 2000
 Radial grid used for partial waves is grid 1
 Radial grid used for projectors is grid 1
 Radial grid used for (t)core density is grid 1
 Radial grid used for Vloc is grid 1
 Radial grid used for pseudo valence density is grid 1
 Mesh size for Vloc has been set to 1792 to avoid numerical noise.
 Compensation charge density is not taken into account in XC energy/potential
 pspatm: atomic psp has been read  and splines computed

- pspini: atom type   3  psp file is ../../../Psps_for_tests/ATOMICDATA/Zr.GGA_PBE-JTH.xml
- pspatm: opening atomic psp file    ../../../Psps_for_tests/ATOMICDATA/Zr.GGA_PBE-JTH.xml
- pspatm : Reading pseudopotential header in XML form from ../../../Psps_for_tests/ATOMICDATA/Zr.GGA_PBE-JTH.xml
 Pseudopotential format is: paw10
 basis_size (lnmax)=  6 (lmn_size= 18), orbitals=   0   0   1   1   2   2
 Spheres core radius: rc_sph= 2.21000000
 1 radial meshes are used:
  - mesh 1: r(i)=AA*[exp(BB*(i-1))-1], size= 941 , AA= 0.35256E-03 BB= 0.14102E-01
 Shapefunction is BESSEL type: shapef(r,l)=aa(1,l)*jl(q(1,l)*r)+aa(2,l)*jl(q(2,l)*r)
 Radius for shape functions =  2.21000000
 mmax=  941
 Radial grid used for partial waves is grid 1
 Radial grid used for projectors is grid 1
 Radial grid used for (t)core density is grid 1
 Radial grid used for Vloc is grid 1
 Radial grid used for pseudo valence density is grid 1
 Mesh size for Vloc has been set to  777 to avoid numerical noise.
 Compensation charge density is not taken into account in XC energy/potential
 pspatm: atomic psp has been read  and splines computed

- pspini: atom type   4  psp file is ../../../Psps_for_tests/ATOMICDATA/Br.GGA_PBE-JTH.xml
- pspatm: opening atomic psp file    ../../../Psps_for_tests/ATOMICDATA/Br.GGA_PBE-JTH.xml
- pspatm : Reading pseudopotential header in XML form from ../../../Psps_for_tests/ATOMICDATA/Br.GGA_PBE-JTH.xml
 Pseudopotential format is: paw10
 basis_size (lnmax)=  4 (lmn_size=  8), orbitals=   0   0   1   1
 Spheres core radius: rc_sph= 2.20000000
 1 radial meshes are used:
  - mesh 1: r(i)=AA*[exp(BB*(i-1))-1], size= 927 , AA= 0.40483E-03 BB= 0.14169E-01
 Shapefunction is BESSEL type: shapef(r,l)=aa(1,l)*jl(q(1,l)*r)+aa(2,l)*jl(q(2,l)*r)
 Radius for shape functions =  2.02066386
 mmax=  927
 Radial grid used for partial waves is grid 1
 Radial grid used for projectors is grid 1
 Radial grid used for (t)core density is grid 1
 Radial grid used for Vloc is grid 1
 Radial grid used for pseudo valence density is grid 1
 Mesh size for Vloc has been set to  763 to avoid numerical noise.
 Compensation charge density is not taken into account in XC energy/potential
 pspatm: atomic psp has been read  and splines computed

   3.69876676E+04                                ecore*ucvol(ha*bohr**3)
--------------------------------------------------------------------------------

_setup2: Arith. and geom. avg. npw (full set) are    6587.793    6587.784

================================================================================

--- !BeginCycle
iteration_state: {dtset: 1, }
solver: {iscf: 17, nstep: 2500, nline: 4, wfoptalg: 10, }
tolerances: {toldfe: 1.00E-08, }
...

     iter   Etot(hartree)      deltaE(h)  residm     nres2
 ETOT  1  -162.48474520665    -1.625E+02 2.639E-01 1.827E+01
 ETOT  2  -162.71535259873    -2.306E-01 1.820E-02 5.319E+00
 ETOT  3  -162.71082827812     4.524E-03 5.320E-03 1.124E+00
 ETOT  4  -162.71159804796    -7.698E-04 3.995E-03 9.957E-02
 ETOT  5  -162.71107416652     5.239E-04 1.219E-03 6.656E-03
 ETOT  6  -162.71112831686    -5.415E-05 1.323E-03 1.093E-03
 ETOT  7  -162.71112647573     1.841E-06 5.350E-04 2.693E-04
 ETOT  8  -162.71112751807    -1.042E-06 5.081E-04 4.406E-05
 ETOT  9  -162.71112756421    -4.615E-08 5.080E-04 1.412E-05
 ETOT 10  -162.71112760679    -4.258E-08 4.972E-04 1.645E-06
 ETOT 11  -162.71112761760    -1.081E-08 5.793E-04 1.423E-06
 ETOT 12  -162.71112761371     3.889E-09 3.493E-04 1.180E-07
 ETOT 13  -162.71112761475    -1.044E-09 2.658E-04 5.182E-08

 At SCF step   13, etot is converged : 
  for the second time, diff in etot=  1.044E-09 < toldfe=  1.000E-08

 Cartesian components of stress tensor (hartree/bohr^3)
  sigma(1 1)= -1.39489401E-04  sigma(3 2)=  1.88396755E-13
  sigma(2 2)= -1.39489401E-04  sigma(3 1)=  1.88395617E-13
  sigma(3 3)= -1.39385522E-04  sigma(2 1)= -3.57992493E-13


--- !ResultsGS
iteration_state: {dtset: 1, }
comment   : Summary of ground state results
lattice_vectors:
- [  0.0000000,  10.4283356,   9.9080572, ]
- [ 10.4283356,   0.0000000,   9.9080572, ]
- [ 10.4283356,  10.4283356,   0.0000000, ]
lattice_lengths: [  14.38471,   14.38471,   14.74789, ]
lattice_angles: [ 59.161,  59.161,  61.678, ] # degrees, (23, 13, 12)
lattice_volume:   2.1550061E+03
convergence: {deltae: -1.044E-09, res2:  5.182E-08, residm:  2.658E-04, diffor: null, }
etotal    :  -1.62711128E+02
entropy   :   0.00000000E+00
fermie    :  -5.00965803E-02
cartesian_stress_tensor: # hartree/bohr^3
- [ -1.39489401E-04,  -3.57992493E-13,   1.88395617E-13, ]
- [ -3.57992493E-13,  -1.39489401E-04,   1.88396755E-13, ]
- [  1.88395617E-13,   1.88396755E-13,  -1.39385522E-04, ]
pressure_GPa:   4.1029E+00
xred      :
- [  2.5000E-01,   2.5000E-01,   2.5000E-01, Cs]
- [  7.5000E-01,   7.5000E-01,   7.5000E-01, Cs]
- [  2.4735E-01,   2.4735E-01,   7.5265E-01, Br]
- [  7.5265E-01,   7.5265E-01,   2.4735E-01, Br]
- [  2.5689E-01,   7.4311E-01,   7.4311E-01,  I]
- [  7.4311E-01,   2.5689E-01,   7.4311E-01,  I]
- [  2.5689E-01,   7.4311E-01,   2.5689E-01,  I]
- [  7.4311E-01,   2.5689E-01,   2.5689E-01,  I]
- [ -4.2723E-22,  -1.5255E-21,   1.1847E-21, Zr]
cartesian_forces: # hartree/bohr
- [  1.88228944E-22,  -2.53327029E-22,  -1.30363182E-22, ]
- [  1.88229428E-22,  -2.53327707E-22,  -1.30362224E-22, ]
- [  1.12383815E-22,  -1.77481979E-22,  -3.25538501E-06, ]
- [  5.74453285E-22,  -6.39551448E-22,   3.25538501E-06, ]
- [ -1.17226799E-05,   2.68154151E-16,  -2.82234980E-16, ]
- [  2.68151599E-16,  -1.17226799E-05,  -2.82231919E-16, ]
- [ -2.68152916E-16,   1.17226799E-05,   2.82233352E-16, ]
- [  1.17226799E-05,  -2.68153358E-16,   2.82233352E-16, ]
- [  1.88229544E-22,  -2.53327707E-22,  -1.30363325E-22, ]
force_length_stats: {min:   3.41466365E-22, max:   1.17226799E-05, mean:   5.93349884E-06, }
...

 Integrated electronic density in atomic spheres:
 ------------------------------------------------
 Atom  Sphere_radius  Integrated_density
    1        2.20660          5.36503216
    2        2.20660          5.36503216
    3        2.20000          4.93710297
    4        2.20000          4.93710297
    5        2.30022          4.04038184
    6        2.30022          4.04038184
    7        2.30022          4.04038184
    8        2.30022          4.04038184
    9        2.21000          8.86837272

 PAW TEST:
 ==== Compensation charge inside spheres ============
 The following values must be close to each other ...
 Compensation charge over spherical meshes =     -5.102630948144365
 Compensation charge over fine fft grid    =     -5.102634046757417

 ==== Results concerning PAW augmentation regions ====

 Total pseudopotential strength Dij (hartree):
 Atom #  1
   0.43001  -0.14245   0.00000   0.00000   0.00000   0.00000   0.00000   0.00000   0.00000   0.00000   0.00000   0.00000 ...
  -0.14245   0.04285   0.00000   0.00000   0.00000   0.00000   0.00000   0.00000   0.00000   0.00000  -0.00000   0.00000 ...
   0.00000   0.00000  -0.09229   0.00000   0.00000  -0.16735   0.00000   0.00000   0.00000   0.00000   0.00000  -0.00000 ...
   0.00000   0.00000   0.00000  -0.09229   0.00000   0.00000  -0.16735   0.00000  -0.00000   0.00000   0.00000   0.00000 ...
   0.00000   0.00000   0.00000   0.00000  -0.09229   0.00000   0.00000  -0.16735   0.00000  -0.00000   0.00000   0.00000 ...
   0.00000   0.00000  -0.16735   0.00000   0.00000   0.40096   0.00000   0.00000   0.00000   0.00000   0.00000  -0.00000 ...
   0.00000   0.00000   0.00000  -0.16735   0.00000   0.00000   0.40096   0.00000  -0.00000   0.00000   0.00000   0.00000 ...
   0.00000   0.00000   0.00000   0.00000  -0.16735   0.00000   0.00000   0.40096   0.00000  -0.00000   0.00000   0.00000 ...
   0.00000   0.00000   0.00000  -0.00000   0.00000   0.00000  -0.00000   0.00000   0.00541   0.00000   0.00000   0.00000 ...
   0.00000   0.00000   0.00000   0.00000  -0.00000   0.00000   0.00000  -0.00000   0.00000   0.00541   0.00000   0.00000 ...
   0.00000  -0.00000   0.00000   0.00000   0.00000   0.00000   0.00000   0.00000   0.00000   0.00000   0.00541   0.00000 ...
   0.00000   0.00000  -0.00000   0.00000   0.00000  -0.00000   0.00000   0.00000   0.00000   0.00000   0.00000   0.00541 ...
   ...  only 12  components have been written...
 Atom #  9
   3.06932  -0.89383   0.00000   0.00000   0.00000   0.00000   0.00000   0.00000   0.00000   0.00000   0.00005   0.00000 ...
  -0.89383   0.26707   0.00000   0.00000   0.00000   0.00000   0.00000   0.00000   0.00000   0.00000  -0.00000   0.00000 ...
   0.00000   0.00000   0.27074   0.00000   0.00000  -0.05515   0.00000   0.00000   0.00000   0.00000   0.00000   0.00000 ...
   0.00000   0.00000   0.00000   0.27084   0.00000   0.00000  -0.05516   0.00000   0.00000   0.00000   0.00000   0.00000 ...
   0.00000   0.00000   0.00000   0.00000   0.27074   0.00000   0.00000  -0.05515   0.00000   0.00000   0.00000   0.00000 ...
   0.00000   0.00000  -0.05515   0.00000   0.00000   0.01510   0.00000   0.00000   0.00000   0.00000   0.00000   0.00000 ...
   0.00000   0.00000   0.00000  -0.05516   0.00000   0.00000   0.01510   0.00000   0.00000   0.00000   0.00000   0.00000 ...
   0.00000   0.00000   0.00000   0.00000  -0.05515   0.00000   0.00000   0.01510   0.00000   0.00000   0.00000   0.00000 ...
   0.00000   0.00000   0.00000   0.00000   0.00000   0.00000   0.00000   0.00000  -0.01202   0.00000   0.00000   0.00000 ...
   0.00000   0.00000   0.00000   0.00000   0.00000   0.00000   0.00000   0.00000   0.00000  -0.01198   0.00000   0.00000 ...
   0.00005  -0.00000   0.00000   0.00000   0.00000   0.00000   0.00000   0.00000   0.00000   0.00000  -0.01190   0.00000 ...
   0.00000   0.00000   0.00000   0.00000   0.00000   0.00000   0.00000   0.00000   0.00000   0.00000   0.00000  -0.01198 ...
   ...  only 12  components have been written...


 Augmentation waves occupancies Rhoij:
 Atom #  1
   1.99879  -0.01207   0.00000   0.00000   0.00000   0.00000   0.00000   0.00000   0.00000   0.00000  -0.00101   0.00000 ...
  -0.01207   0.21984   0.00000   0.00000   0.00000   0.00000   0.00000   0.00000   0.00000   0.00000   0.02525   0.00000 ...
   0.00000   0.00000   2.00699   0.00000   0.00000  -0.00475   0.00000   0.00000   0.00000   0.00000   0.00000  -0.00232 ...
   0.00000   0.00000   0.00000   2.00785   0.00000   0.00000  -0.00501   0.00000  -0.00198   0.00000   0.00000   0.00000 ...
   0.00000   0.00000   0.00000   0.00000   2.00699   0.00000   0.00000  -0.00475   0.00000  -0.00232   0.00000   0.00000 ...
   0.00000   0.00000  -0.00475   0.00000   0.00000   0.00015   0.00000   0.00000   0.00000   0.00000   0.00000   0.00010 ...
   0.00000   0.00000   0.00000  -0.00501   0.00000   0.00000   0.00019   0.00000   0.00009   0.00000   0.00000   0.00000 ...
   0.00000   0.00000   0.00000   0.00000  -0.00475   0.00000   0.00000   0.00015   0.00000   0.00010   0.00000   0.00000 ...
   0.00000   0.00000   0.00000  -0.00198   0.00000   0.00000   0.00009   0.00000   0.04441   0.00000   0.00000   0.00000 ...
   0.00000   0.00000   0.00000   0.00000  -0.00232   0.00000   0.00000   0.00010   0.00000   0.09775   0.00000   0.00000 ...
  -0.00101   0.02525   0.00000   0.00000   0.00000   0.00000   0.00000   0.00000   0.00000   0.00000   0.03912   0.00000 ...
   0.00000   0.00000  -0.00232   0.00000   0.00000   0.00010   0.00000   0.00000   0.00000   0.00000   0.00000   0.09775 ...
   ...  only 12  components have been written...
 Atom #  9
   1.99395  -0.06025   0.00000   0.00000   0.00000   0.00000   0.00000   0.00000   0.00000   0.00000  -0.00370   0.00000 ...
  -0.06025   1.07114   0.00000   0.00000   0.00000   0.00000   0.00000   0.00000   0.00000   0.00000   0.04410   0.00000 ...
   0.00000   0.00000   1.97110   0.00000   0.00000  -0.17405   0.00000   0.00000   0.00000   0.00000   0.00000   0.00000 ...
   0.00000   0.00000   0.00000   1.96934   0.00000   0.00000  -0.18562   0.00000   0.00000   0.00000   0.00000   0.00000 ...
   0.00000   0.00000   0.00000   0.00000   1.97110   0.00000   0.00000  -0.17405   0.00000   0.00000   0.00000   0.00000 ...
   0.00000   0.00000  -0.17405   0.00000   0.00000   1.55846   0.00000   0.00000   0.00000   0.00000   0.00000   0.00000 ...
   0.00000   0.00000   0.00000  -0.18562   0.00000   0.00000   1.78231   0.00000   0.00000   0.00000   0.00000   0.00000 ...
   0.00000   0.00000   0.00000   0.00000  -0.17405   0.00000   0.00000   1.55846   0.00000   0.00000   0.00000   0.00000 ...
   0.00000   0.00000   0.00000   0.00000   0.00000   0.00000   0.00000   0.00000   0.49057   0.00000   0.00000   0.00000 ...
   0.00000   0.00000   0.00000   0.00000   0.00000   0.00000   0.00000   0.00000   0.00000   0.51440   0.00000   0.00000 ...
  -0.00370   0.04410   0.00000   0.00000   0.00000   0.00000   0.00000   0.00000   0.00000   0.00000   1.50292   0.00000 ...
   0.00000   0.00000   0.00000   0.00000   0.00000   0.00000   0.00000   0.00000   0.00000   0.00000   0.00000   0.51440 ...
   ...  only 12  components have been written...


================================================================================

 ----iterations are completed or convergence reached----

 Mean square residual over all n,k,spin=   18.713E-08; max=  26.583E-05
 reduced coordinates (array xred) for    9 atoms
       0.250000000000      0.250000000000      0.250000000000
       0.750000000000      0.750000000000      0.750000000000
       0.247353442540      0.247353442540      0.752646557460
       0.752646557460      0.752646557460      0.247353442540
       0.256889352420      0.743110647580      0.743110647580
       0.743110647580      0.256889352420      0.743110647580
       0.256889352420      0.743110647580      0.256889352420
       0.743110647580      0.256889352420      0.256889352420
      -0.000000000000     -0.000000000000      0.000000000000
 rms dE/dt=  6.7692E-05; max dE/dt=  1.2225E-04; dE/dt below (all hartree)
    1      -0.000000000000      0.000000000000     -0.000000000000
    2      -0.000000000000     -0.000000000000      0.000000000000
    3       0.000032254541      0.000032254541      0.000000000000
    4      -0.000032254541     -0.000032254541      0.000000000000
    5       0.000000000000      0.000122248040      0.000122248040
    6       0.000122248040      0.000000000000      0.000122248040
    7      -0.000122248040      0.000000000000     -0.000122248040
    8      -0.000000000000     -0.000122248040     -0.000122248040
    9       0.000000000000      0.000000000000      0.000000000000

 cartesian coordinates (angstrom) at end:
    1      2.75921875614243     2.75921875614243     2.62155902729450
    2      8.27765626842728     8.27765626842728     7.86467708188349
    3      5.51843751234864     5.51843751234864     2.59380660089243
    4      5.51843751222107     5.51843751222107     7.89242950828555
    5      8.20161934676752     5.51843751234623     5.24311805458899
    6      5.51843751234623     8.20161934676752     5.24311805458899
    7      5.51843751222348     2.83525567780218     5.24311805458899
    8      2.83525567780218     5.51843751222348     5.24311805458899
    9     -0.00000000000000     0.00000000000000    -0.00000000000000

 cartesian forces (hartree/bohr) at end:
    1      0.00000000000000    -0.00000000000000    -0.00000000000000
    2      0.00000000000000    -0.00000000000000    -0.00000000000000
    3      0.00000000000000    -0.00000000000000    -0.00000325538501
    4      0.00000000000000    -0.00000000000000     0.00000325538501
    5     -0.00001172267989     0.00000000000000    -0.00000000000000
    6      0.00000000000000    -0.00001172267989    -0.00000000000000
    7     -0.00000000000000     0.00001172267989     0.00000000000000
    8      0.00001172267989    -0.00000000000000     0.00000000000000
    9      0.00000000000000    -0.00000000000000    -0.00000000000000
 frms,max,avg= 4.5982282E-06 1.1722680E-05   0.000E+00  0.000E+00  0.000E+00 h/b

 cartesian forces (eV/Angstrom) at end:
    1      0.00000000000000    -0.00000000000000    -0.00000000000000
    2      0.00000000000000    -0.00000000000000    -0.00000000000000
    3      0.00000000000000    -0.00000000000000    -0.00016739861394
    4      0.00000000000000    -0.00000000000000     0.00016739861394
    5     -0.00060280438605     0.00000000000001    -0.00000000000001
    6      0.00000000000001    -0.00060280438605    -0.00000000000001
    7     -0.00000000000001     0.00060280438605     0.00000000000001
    8      0.00060280438605    -0.00000000000001     0.00000000000001
    9      0.00000000000000    -0.00000000000000    -0.00000000000000
 frms,max,avg= 2.3645038E-04 6.0280439E-04   0.000E+00  0.000E+00  0.000E+00 e/A
 length scales= 14.384706481000 14.384706481000 14.747893610000 bohr
              =  7.612058822002  7.612058822002  7.804249173122 angstroms
 prteigrs : about to open file Cs2TiI6o_DS1_EIG
 Fermi (or HOMO) energy (hartree) =  -0.05010   Average Vxc (hartree)=  -0.32362
 Eigenvalues (hartree) for nkpt= 163  k points:
 kpt#   1, nband= 42, wtk=  0.00058, kpt=  0.0000  0.0000  0.0000 (reduced coord)
  -1.86754   -1.06028   -1.05895   -1.05895   -0.80020   -0.79967   -0.57317   -0.56436
  -0.49052   -0.47582   -0.47582   -0.46914   -0.32783   -0.32396   -0.32396   -0.32010
  -0.32010   -0.32007   -0.21476   -0.15947   -0.15947   -0.15837   -0.15837   -0.15742
  -0.14718   -0.14564   -0.12339   -0.10344   -0.10344   -0.08698   -0.07118   -0.06346
  -0.06346   -0.05930   -0.05930   -0.05010    0.00449    0.01268    0.01268    0.09240
   0.10608    0.10993
 prteigrs : prtvol=0 or 1, do not print more k-points.


--- !EnergyTerms
iteration_state     : {dtset: 1, }
comment             : Components of total free energy in Hartree
kinetic             :  4.63790718082379E+01
hartree             :  2.99993015466808E+01
xc                  : -6.06821030629158E+01
Ewald energy        : -1.29128533557329E+02
psp_core            :  1.71636025223095E+01
local_psp           : -9.32064609830301E+01
spherical_terms     :  2.67639605621098E+01
total_energy        : -1.62711161163937E+02
total_energy_eV     : -4.42759586473822E+03
...


--- !EnergyTermsDC
iteration_state     : {dtset: 1, }
comment             : '"Double-counting" decomposition of free energy'
band_energy         : -2.76747082847013E+01
Ewald energy        : -1.29128533557329E+02
psp_core            :  1.71636025223095E+01
xc_dc               : -4.85130643205373E+01
spherical_terms     :  2.54415760255073E+01
total_energy_dc     : -1.62711127614751E+02
total_energy_dc_eV  : -4.42759495181844E+03
...


 Cartesian components of stress tensor (hartree/bohr^3)
  sigma(1 1)= -1.39489401E-04  sigma(3 2)=  1.88396755E-13
  sigma(2 2)= -1.39489401E-04  sigma(3 1)=  1.88395617E-13
  sigma(3 3)= -1.39385522E-04  sigma(2 1)= -3.57992493E-13

-Cartesian components of stress tensor (GPa)         [Pressure=  4.1029E+00 GPa]
- sigma(1 1)= -4.10391916E+00  sigma(3 2)=  5.54282295E-09
- sigma(2 2)= -4.10391916E+00  sigma(3 1)=  5.54278947E-09
- sigma(3 3)= -4.10086296E+00  sigma(2 1)= -1.05325010E-08

================================================================================
== DATASET  2 ==================================================================
-   mpi_nproc: 6, omp_nthreads: -1 (-1 if OMP is not activated)


--- !DatasetInfo
iteration_state: {dtset: 2, }
dimensions: {natom: 9, nkpt: 163, mband: 42, nsppol: 1, nspinor: 1, nspden: 1, mpw: 6608, }
cutoff_energies: {ecut:  16.0, pawecutdg:  40.0, }
electrons: {nelect:   7.20000000E+01, charge:   0.00000000E+00, occopt:   1.00000000E+00, tsmear:   1.00000000E-02, }
meta: {optdriver: 0, ionmov: 0, optcell: 0, iscf: 17, paral_kgb: 0, }
...

 Real(R)+Recip(G) space primitive vectors, cartesian coordinates (Bohr,Bohr^-1):
 R(1)=  0.0000000 10.4196076  9.8948892  G(1)= -0.0479865  0.0479865  0.0505311
 R(2)= 10.4196076  0.0000000  9.8948892  G(2)=  0.0479865 -0.0479865  0.0505311
 R(3)= 10.4196076 10.4196076  0.0000000  G(3)=  0.0479865  0.0479865 -0.0505311
 Unit cell volume ucvol=  2.1485411E+03 bohr^3
 Angles (23,13,12)=  5.91532298E+01  5.91532298E+01  6.16935403E+01 degrees

 Coarse grid specifications (used for wave-functions):

 getcut: wavevector=  0.0000  0.0000  0.0000  ngfft=  54  54  54
         ecut(hartree)=     16.000   => boxcut(ratio)=   2.03595

 Fine grid specifications (used for densities):

 getcut: wavevector=  0.0000  0.0000  0.0000  ngfft=  90  90  90
         ecut(hartree)=     40.000   => boxcut(ratio)=   2.14556

--- Pseudopotential description ------------------------------------------------
- pspini: atom type   1  psp file is ../../../Psps_for_tests/ATOMICDATA/Cs.GGA_PBE-JTH.xml
- pspatm: opening atomic psp file    ../../../Psps_for_tests/ATOMICDATA/Cs.GGA_PBE-JTH.xml
- pspatm : Reading pseudopotential header in XML form from ../../../Psps_for_tests/ATOMICDATA/Cs.GGA_PBE-JTH.xml
 Pseudopotential format is: paw10
 basis_size (lnmax)=  6 (lmn_size= 18), orbitals=   0   0   1   1   2   2
 Spheres core radius: rc_sph= 2.20660278
 1 radial meshes are used:
  - mesh 1: r(i)=AA*[exp(BB*(i-1))-1], size=1500 , AA= 0.15922E-03 BB= 0.87573E-02
 Shapefunction is SIN type: shapef(r)=[sin(pi*r/rshp)/(pi*r/rshp)]**2
 Radius for shape functions =  2.00394208
 mmax= 1500
 Radial grid used for partial waves is grid 1
 Radial grid used for projectors is grid 1
 Radial grid used for (t)core density is grid 1
 Radial grid used for Vloc is grid 1
 Radial grid used for pseudo valence density is grid 1
 Mesh size for Vloc has been set to 1341 to avoid numerical noise.
 Compensation charge density is not taken into account in XC energy/potential
 pspatm: atomic psp has been read  and splines computed

- pspini: atom type   2  psp file is ../../../Psps_for_tests/ATOMICDATA/I.GGA_PBE-JTH.xml
- pspatm: opening atomic psp file    ../../../Psps_for_tests/ATOMICDATA/I.GGA_PBE-JTH.xml
- pspatm : Reading pseudopotential header in XML form from ../../../Psps_for_tests/ATOMICDATA/I.GGA_PBE-JTH.xml
 Pseudopotential format is: paw10
 basis_size (lnmax)=  4 (lmn_size=  8), orbitals=   0   0   1   1
 Spheres core radius: rc_sph= 2.30022271
 1 radial meshes are used:
  - mesh 1: r(i)=AA*[exp(BB*(i-1))-1], size=2000 , AA= 0.12610E-03 BB= 0.66836E-02
 Shapefunction is SIN type: shapef(r)=[sin(pi*r/rshp)/(pi*r/rshp)]**2
 Radius for shape functions =  2.10879093
 mmax= 2000
 Radial grid used for partial waves is grid 1
 Radial grid used for projectors is grid 1
 Radial grid used for (t)core density is grid 1
 Radial grid used for Vloc is grid 1
 Radial grid used for pseudo valence density is grid 1
 Mesh size for Vloc has been set to 1792 to avoid numerical noise.
 Compensation charge density is not taken into account in XC energy/potential
 pspatm: atomic psp has been read  and splines computed

- pspini: atom type   3  psp file is ../../../Psps_for_tests/ATOMICDATA/Zr.GGA_PBE-JTH.xml
- pspatm: opening atomic psp file    ../../../Psps_for_tests/ATOMICDATA/Zr.GGA_PBE-JTH.xml
- pspatm : Reading pseudopotential header in XML form from ../../../Psps_for_tests/ATOMICDATA/Zr.GGA_PBE-JTH.xml
 Pseudopotential format is: paw10
 basis_size (lnmax)=  6 (lmn_size= 18), orbitals=   0   0   1   1   2   2
 Spheres core radius: rc_sph= 2.21000000
 1 radial meshes are used:
  - mesh 1: r(i)=AA*[exp(BB*(i-1))-1], size= 941 , AA= 0.35256E-03 BB= 0.14102E-01
 Shapefunction is BESSEL type: shapef(r,l)=aa(1,l)*jl(q(1,l)*r)+aa(2,l)*jl(q(2,l)*r)
 Radius for shape functions =  2.21000000
 mmax=  941
 Radial grid used for partial waves is grid 1
 Radial grid used for projectors is grid 1
 Radial grid used for (t)core density is grid 1
 Radial grid used for Vloc is grid 1
 Radial grid used for pseudo valence density is grid 1
 Mesh size for Vloc has been set to  777 to avoid numerical noise.
 Compensation charge density is not taken into account in XC energy/potential
 pspatm: atomic psp has been read  and splines computed

- pspini: atom type   4  psp file is ../../../Psps_for_tests/ATOMICDATA/Br.GGA_PBE-JTH.xml
- pspatm: opening atomic psp file    ../../../Psps_for_tests/ATOMICDATA/Br.GGA_PBE-JTH.xml
- pspatm : Reading pseudopotential header in XML form from ../../../Psps_for_tests/ATOMICDATA/Br.GGA_PBE-JTH.xml
 Pseudopotential format is: paw10
 basis_size (lnmax)=  4 (lmn_size=  8), orbitals=   0   0   1   1
 Spheres core radius: rc_sph= 2.20000000
 1 radial meshes are used:
  - mesh 1: r(i)=AA*[exp(BB*(i-1))-1], size= 927 , AA= 0.40483E-03 BB= 0.14169E-01
 Shapefunction is BESSEL type: shapef(r,l)=aa(1,l)*jl(q(1,l)*r)+aa(2,l)*jl(q(2,l)*r)
 Radius for shape functions =  2.02066386
 mmax=  927
 Radial grid used for partial waves is grid 1
 Radial grid used for projectors is grid 1
 Radial grid used for (t)core density is grid 1
 Radial grid used for Vloc is grid 1
 Radial grid used for pseudo valence density is grid 1
 Mesh size for Vloc has been set to  763 to avoid numerical noise.
 Compensation charge density is not taken into account in XC energy/potential
 pspatm: atomic psp has been read  and splines computed

--------------------------------------------------------------------------------

_setup2: Arith. and geom. avg. npw (full set) are    6568.052    6568.043

================================================================================

--- !BeginCycle
iteration_state: {dtset: 2, }
solver: {iscf: 17, nstep: 2500, nline: 4, wfoptalg: 10, }
tolerances: {toldfe: 1.00E-08, }
...

     iter   Etot(hartree)      deltaE(h)  residm     nres2
 ETOT  1  -162.48912138823    -1.625E+02 2.552E-01 1.787E+01
 ETOT  2  -162.71414480187    -2.250E-01 2.701E-02 5.023E+00
 ETOT  3  -162.70989244549     4.252E-03 4.196E-03 1.050E+00
 ETOT  4  -162.71061216650    -7.197E-04 3.771E-03 9.026E-02
 ETOT  5  -162.71014367883     4.685E-04 1.503E-03 6.290E-03
 ETOT  6  -162.71019525556    -5.158E-05 1.594E-03 1.006E-03
 ETOT  7  -162.71019363747     1.618E-06 8.819E-04 2.511E-04
 ETOT  8  -162.71019469363    -1.056E-06 7.455E-04 4.105E-05
 ETOT  9  -162.71019473858    -4.495E-08 7.028E-04 1.361E-05
 ETOT 10  -162.71019477920    -4.062E-08 3.519E-04 1.482E-06
 ETOT 11  -162.71019478945    -1.025E-08 2.461E-04 1.387E-06
 ETOT 12  -162.71019478553     3.921E-09 1.036E-04 1.145E-07
 ETOT 13  -162.71019478653    -9.998E-10 1.183E-04 5.130E-08

 At SCF step   13, etot is converged : 
  for the second time, diff in etot=  9.998E-10 < toldfe=  1.000E-08

 Cartesian components of stress tensor (hartree/bohr^3)
  sigma(1 1)= -1.42686111E-04  sigma(3 2)=  9.87635267E-14
  sigma(2 2)= -1.42686111E-04  sigma(3 1)=  9.87612737E-14
  sigma(3 3)= -1.42678194E-04  sigma(2 1)= -1.87575954E-13


--- !ResultsGS
iteration_state: {dtset: 2, }
comment   : Summary of ground state results
lattice_vectors:
- [  0.0000000,  10.4196076,   9.8948892, ]
- [ 10.4196076,   0.0000000,   9.8948892, ]
- [ 10.4196076,  10.4196076,   0.0000000, ]
lattice_lengths: [  14.36931,   14.36931,   14.73555, ]
lattice_angles: [ 59.153,  59.153,  61.694, ] # degrees, (23, 13, 12)
lattice_volume:   2.1485411E+03
convergence: {deltae: -9.998E-10, res2:  5.130E-08, residm:  1.183E-04, diffor: null, }
etotal    :  -1.62710195E+02
entropy   :   0.00000000E+00
fermie    :  -4.95355872E-02
cartesian_stress_tensor: # hartree/bohr^3
- [ -1.42686111E-04,  -1.87575954E-13,   9.87612737E-14, ]
- [ -1.87575954E-13,  -1.42686111E-04,   9.87635267E-14, ]
- [  9.87612737E-14,   9.87635267E-14,  -1.42678194E-04, ]
pressure_GPa:   4.1979E+00
xred      :
- [  2.5000E-01,   2.5000E-01,   2.5000E-01, Cs]
- [  7.5000E-01,   7.5000E-01,   7.5000E-01, Cs]
- [  2.4761E-01,   2.4761E-01,   7.5239E-01, Br]
- [  7.5239E-01,   7.5239E-01,   2.4761E-01, Br]
- [  2.5700E-01,   7.4300E-01,   7.4300E-01,  I]
- [  7.4300E-01,   2.5700E-01,   7.4300E-01,  I]
- [  2.5700E-01,   7.4300E-01,   2.5700E-01,  I]
- [  7.4300E-01,   2.5700E-01,   2.5700E-01,  I]
- [ -6.9702E-22,  -1.4144E-21,   1.1994E-21, Zr]
cartesian_forces: # hartree/bohr
- [ -7.52918117E-22,   6.36753841E-23,   1.88229728E-22, ]
- [ -7.52917952E-22,   6.36750837E-23,   1.88229391E-22, ]
- [ -7.37516133E-22,   4.82733229E-23,   5.88614602E-07, ]
- [ -8.08966323E-22,   1.19723513E-22,  -5.88614602E-07, ]
- [ -2.01718263E-05,   2.40393669E-16,  -2.53142141E-16, ]
- [  2.40393246E-16,  -2.01718263E-05,  -2.53142466E-16, ]
- [ -2.40393058E-16,   2.01718263E-05,   2.53141148E-16, ]
- [  2.01718263E-05,  -2.40395236E-16,   2.53142518E-16, ]
- [ -7.52918175E-22,   6.36753647E-23,   1.88229544E-22, ]
force_length_stats: {min:   7.78697800E-22, max:   2.01718263E-05, mean:   9.09605940E-06, }
...

 Integrated electronic density in atomic spheres:
 ------------------------------------------------
 Atom  Sphere_radius  Integrated_density
    1        2.20660          5.37768935
    2        2.20660          5.37768935
    3        2.20000          4.93825977
    4        2.20000          4.93825977
    5        2.30022          4.04065659
    6        2.30022          4.04065659
    7        2.30022          4.04065659
    8        2.30022          4.04065659
    9        2.21000          8.86833850

 PAW TEST:
 ==== Compensation charge inside spheres ============
 The following values must be close to each other ...
 Compensation charge over spherical meshes =     -5.102880274740997
 Compensation charge over fine fft grid    =     -5.102883820589656

 ==== Results concerning PAW augmentation regions ====

 Total pseudopotential strength Dij (hartree):
 Atom #  1
   0.42986  -0.14240   0.00000   0.00000   0.00000   0.00000   0.00000   0.00000   0.00000   0.00000   0.00000   0.00000 ...
  -0.14240   0.04283   0.00000   0.00000   0.00000   0.00000   0.00000   0.00000   0.00000   0.00000  -0.00000   0.00000 ...
   0.00000   0.00000  -0.09227   0.00000   0.00000  -0.16737   0.00000   0.00000   0.00000   0.00000   0.00000  -0.00000 ...
   0.00000   0.00000   0.00000  -0.09227   0.00000   0.00000  -0.16737   0.00000  -0.00000   0.00000   0.00000   0.00000 ...
   0.00000   0.00000   0.00000   0.00000  -0.09227   0.00000   0.00000  -0.16737   0.00000  -0.00000   0.00000   0.00000 ...
   0.00000   0.00000  -0.16737   0.00000   0.00000   0.40092   0.00000   0.00000   0.00000   0.00000   0.00000  -0.00000 ...
   0.00000   0.00000   0.00000  -0.16737   0.00000   0.00000   0.40092   0.00000  -0.00000   0.00000   0.00000   0.00000 ...
   0.00000   0.00000   0.00000   0.00000  -0.16737   0.00000   0.00000   0.40092   0.00000  -0.00000   0.00000   0.00000 ...
   0.00000   0.00000   0.00000  -0.00000   0.00000   0.00000  -0.00000   0.00000   0.00541   0.00000   0.00000   0.00000 ...
   0.00000   0.00000   0.00000   0.00000  -0.00000   0.00000   0.00000  -0.00000   0.00000   0.00541   0.00000   0.00000 ...
   0.00000  -0.00000   0.00000   0.00000   0.00000   0.00000   0.00000   0.00000   0.00000   0.00000   0.00541   0.00000 ...
   0.00000   0.00000  -0.00000   0.00000   0.00000  -0.00000   0.00000   0.00000   0.00000   0.00000   0.00000   0.00541 ...
   ...  only 12  components have been written...
 Atom #  9
   3.06904  -0.89374   0.00000   0.00000   0.00000   0.00000   0.00000   0.00000   0.00000   0.00000   0.00005   0.00000 ...
  -0.89374   0.26704   0.00000   0.00000   0.00000   0.00000   0.00000   0.00000   0.00000   0.00000  -0.00000   0.00000 ...
   0.00000   0.00000   0.27082   0.00000   0.00000  -0.05517   0.00000   0.00000   0.00000   0.00000   0.00000   0.00000 ...
   0.00000   0.00000   0.00000   0.27092   0.00000   0.00000  -0.05518   0.00000   0.00000   0.00000   0.00000   0.00000 ...
   0.00000   0.00000   0.00000   0.00000   0.27082   0.00000   0.00000  -0.05517   0.00000   0.00000   0.00000   0.00000 ...
   0.00000   0.00000  -0.05517   0.00000   0.00000   0.01511   0.00000   0.00000   0.00000   0.00000   0.00000   0.00000 ...
   0.00000   0.00000   0.00000  -0.05518   0.00000   0.00000   0.01511   0.00000   0.00000   0.00000   0.00000   0.00000 ...
   0.00000   0.00000   0.00000   0.00000  -0.05517   0.00000   0.00000   0.01511   0.00000   0.00000   0.00000   0.00000 ...
   0.00000   0.00000   0.00000   0.00000   0.00000   0.00000   0.00000   0.00000  -0.01192   0.00000   0.00000   0.00000 ...
   0.00000   0.00000   0.00000   0.00000   0.00000   0.00000   0.00000   0.00000   0.00000  -0.01189   0.00000   0.00000 ...
   0.00005  -0.00000   0.00000   0.00000   0.00000   0.00000   0.00000   0.00000   0.00000   0.00000  -0.01180   0.00000 ...
   0.00000   0.00000   0.00000   0.00000   0.00000   0.00000   0.00000   0.00000   0.00000   0.00000   0.00000  -0.01189 ...
   ...  only 12  components have been written...


 Augmentation waves occupancies Rhoij:
 Atom #  1
   1.99882  -0.01198   0.00000   0.00000   0.00000   0.00000   0.00000   0.00000   0.00000   0.00000  -0.00100   0.00000 ...
  -0.01198   0.22142   0.00000   0.00000   0.00000   0.00000   0.00000   0.00000   0.00000   0.00000   0.02544   0.00000 ...
   0.00000   0.00000   2.00698   0.00000   0.00000  -0.00475   0.00000   0.00000   0.00000   0.00000   0.00000  -0.00234 ...
   0.00000   0.00000   0.00000   2.00783   0.00000   0.00000  -0.00501   0.00000  -0.00200   0.00000   0.00000   0.00000 ...
   0.00000   0.00000   0.00000   0.00000   2.00698   0.00000   0.00000  -0.00475   0.00000  -0.00234   0.00000   0.00000 ...
   0.00000   0.00000  -0.00475   0.00000   0.00000   0.00015   0.00000   0.00000   0.00000   0.00000   0.00000   0.00010 ...
   0.00000   0.00000   0.00000  -0.00501   0.00000   0.00000   0.00019   0.00000   0.00009   0.00000   0.00000   0.00000 ...
   0.00000   0.00000   0.00000   0.00000  -0.00475   0.00000   0.00000   0.00015   0.00000   0.00010   0.00000   0.00000 ...
[...]
                       5.4939543704E+00  2.8293237989E+00  5.2109209765E+00
                       2.8293237989E+00  5.4939543704E+00  5.2109209765E+00
                      -1.8724841434E-21  4.1613104268E-21 -1.0175436113E-20
           xangst7     2.7444912671E+00  2.7444912671E+00  2.6023127062E+00
                       8.2334738013E+00  8.2334738013E+00  7.8069381185E+00
                       5.4889825342E+00  5.4889825342E+00  2.5894905191E+00
                       5.4889825342E+00  5.4889825342E+00  7.8197603056E+00
                       8.1498536807E+00  5.4889825342E+00  5.2046254123E+00
                       5.4889825342E+00  8.1498536807E+00  5.2046254123E+00
                       5.4889825342E+00  2.8281113877E+00  5.2046254123E+00
                       2.8281113877E+00  5.4889825342E+00  5.2046254123E+00
                      -1.6577591910E-21  3.2949294707E-21 -9.6050221362E-21
           xangst8     2.7419353997E+00  2.7419353997E+00  2.5992977004E+00
                       8.2258061990E+00  8.2258061990E+00  7.7978931011E+00
                       5.4838707994E+00  5.4838707994E+00  2.5887644461E+00
                       5.4838707992E+00  5.4838707992E+00  7.8084263553E+00
                       8.1408525588E+00  5.4838707994E+00  5.1985954007E+00
                       5.4838707994E+00  8.1408525588E+00  5.1985954007E+00
                       5.4838707992E+00  2.8268890398E+00  5.1985954007E+00
                       2.8268890398E+00  5.4838707992E+00  5.1985954007E+00
                      -5.5793381307E-21  7.0889169006E-21 -4.5377694098E-21
           xangst9     2.7393967792E+00  2.7393967792E+00  2.5962500922E+00
                       8.2181903376E+00  8.2181903376E+00  7.7887502767E+00
                       5.4787935585E+00  5.4787935585E+00  2.5880373814E+00
                       5.4787935583E+00  5.4787935583E+00  7.7969629876E+00
                       8.1319482404E+00  5.4787935585E+00  5.1925001845E+00
                       5.4787935585E+00  8.1319482404E+00  5.1925001845E+00
                       5.4787935583E+00  2.8256388764E+00  5.1925001845E+00
                       2.8256388764E+00  5.4787935583E+00  5.1925001845E+00
                      -8.5219591063E-21  1.0127419032E-20 -9.1768720714E-21
            xcart1     5.2141677898E+00  5.2141677898E+00  4.9540286028E+00
                       1.5642503369E+01  1.5642503369E+01  1.4862085808E+01
                       1.0428335580E+01  1.0428335580E+01  4.9015841174E+00
                       1.0428335580E+01  1.0428335580E+01  1.4914530294E+01
                       1.5498814412E+01  1.0428335580E+01  9.9080572056E+00
                       1.0428335580E+01  1.5498814412E+01  9.9080572056E+00
                       1.0428335580E+01  5.3578567478E+00  9.9080572056E+00
                       5.3578567478E+00  1.0428335580E+01  9.9080572056E+00
                      -3.5542510364E-21  7.8987808518E-21 -1.9347597778E-20
            xcart2     5.2098037803E+00  5.2098037803E+00  4.9474446106E+00
                       1.5629411341E+01  1.5629411341E+01  1.4842333832E+01
                       1.0419607561E+01  1.0419607561E+01  4.9001849027E+00
                       1.0419607561E+01  1.0419607561E+01  1.4889593540E+01
                       1.5483533015E+01  1.0419607561E+01  9.8948892211E+00
                       1.0419607561E+01  1.5483533015E+01  9.8948892211E+00
                       1.0419607561E+01  5.3556821060E+00  9.8948892211E+00
                       5.3556821060E+00  1.0419607561E+01  9.8948892211E+00
                      -2.2403015609E-21  5.2344939117E-21 -2.0892151309E-20
            xcart3     5.2052842094E+00  5.2052842094E+00  4.9411567437E+00
                       1.5615852628E+01  1.5615852628E+01  1.4823470231E+01
                       1.0410568419E+01  1.0410568419E+01  4.8987714067E+00
                       1.0410568419E+01  1.0410568419E+01  1.4865855568E+01
                       1.5467595938E+01  1.0410568419E+01  9.8823134875E+00
                       1.0410568419E+01  1.5467595938E+01  9.8823134875E+00
                       1.0410568419E+01  5.3535409000E+00  9.8823134875E+00
                       5.3535409000E+00  1.0410568419E+01  9.8823134875E+00
                       9.7952925784E-21 -1.8016722911E-21  1.1620813891E-20
            xcart4     5.2005057085E+00  5.2005057085E+00  4.9353608349E+00
                       1.5601517125E+01  1.5601517125E+01  1.4806082505E+01
                       1.0401011417E+01  1.0401011417E+01  4.8975534199E+00
                       1.0401011417E+01  1.0401011417E+01  1.4843889920E+01
                       1.5450769494E+01  1.0401011417E+01  9.8707216699E+00
                       1.0401011417E+01  1.5450769494E+01  9.8707216699E+00
                       1.0401011417E+01  5.3512533397E+00  9.8707216699E+00
                       5.3512533397E+00  1.0401011417E+01  9.8707216699E+00
                      -2.9014363435E-21  7.1682663881E-21 -1.8638588345E-20
            xcart5     5.1956574819E+00  5.1956574819E+00  4.9296974520E+00
                       1.5586972446E+01  1.5586972446E+01  1.4789092356E+01
                       1.0391314964E+01  1.0391314964E+01  4.8961873216E+00
                       1.0391314964E+01  1.0391314964E+01  1.4822602486E+01
                       1.5433658544E+01  1.0391314964E+01  9.8593949039E+00
                       1.0391314964E+01  1.5433658544E+01  9.8593949039E+00
                       1.0391314964E+01  5.3489713833E+00  9.8593949039E+00
                       5.3489713833E+00  1.0391314964E+01  9.8593949039E+00
                      -3.3570723566E-21  7.9230929156E-21 -1.8391515613E-20
            xcart6     5.1910345733E+00  5.1910345733E+00  4.9236067728E+00
                       1.5573103720E+01  1.5573103720E+01  1.4770820319E+01
                       1.0382069147E+01  1.0382069147E+01  4.8947662373E+00
                       1.0382069147E+01  1.0382069147E+01  1.4799660854E+01
                       1.5417491172E+01  1.0382069147E+01  9.8472135457E+00
                       1.0382069147E+01  1.5417491172E+01  9.8472135457E+00
                       1.0382069147E+01  5.3466471212E+00  9.8472135457E+00
                       5.3466471212E+00  1.0382069147E+01  9.8472135457E+00
                      -3.5384822192E-21  7.8637370606E-21 -1.9228787537E-20
            xcart7     5.1863368689E+00  5.1863368689E+00  4.9176583268E+00
                       1.5559010607E+01  1.5559010607E+01  1.4752974980E+01
                       1.0372673738E+01  1.0372673738E+01  4.8934279047E+00
                       1.0372673738E+01  1.0372673738E+01  1.4777205402E+01
                       1.5400991480E+01  1.0372673738E+01  9.8353166535E+00
                       1.0372673738E+01  1.5400991480E+01  9.8353166535E+00
                       1.0372673738E+01  5.3443559960E+00  9.8353166535E+00
                       5.3443559960E+00  1.0372673738E+01  9.8353166535E+00
                      -3.1327108653E-21  6.2265143268E-21 -1.8150861338E-20
            xcart8     5.1815069794E+00  5.1815069794E+00  4.9119607915E+00
                       1.5544520938E+01  1.5544520938E+01  1.4735882375E+01
                       1.0363013959E+01  1.0363013959E+01  4.8920558257E+00
                       1.0363013959E+01  1.0363013959E+01  1.4755787340E+01
                       1.5383981824E+01  1.0363013959E+01  9.8239215830E+00
                       1.0363013959E+01  1.5383981824E+01  9.8239215830E+00
                       1.0363013959E+01  5.3420460933E+00  9.8239215830E+00
                       5.3420460933E+00  1.0363013959E+01  9.8239215830E+00
                      -1.0543421070E-20  1.3396111521E-20 -8.5751414388E-21
            xcart9     5.1767096820E+00  5.1767096820E+00  4.9062016468E+00
                       1.5530129046E+01  1.5530129046E+01  1.4718604940E+01
                       1.0353419364E+01  1.0353419364E+01  4.8906818725E+00
                       1.0353419364E+01  1.0353419364E+01  1.4734124715E+01
                       1.5367155101E+01  1.0353419364E+01  9.8124032936E+00
                       1.0353419364E+01  1.5367155101E+01  9.8124032936E+00
                       1.0353419364E+01  5.3396836269E+00  9.8124032936E+00
                       5.3396836269E+00  1.0353419364E+01  9.8124032936E+00
                      -1.6104168827E-20  1.9138048404E-20 -1.7341774971E-20
             xred1     2.5000000000E-01  2.5000000000E-01  2.5000000000E-01
                       7.5000000000E-01  7.5000000000E-01  7.5000000000E-01
                       2.4735344254E-01  2.4735344254E-01  7.5264655746E-01
                       7.5264655746E-01  7.5264655746E-01  2.4735344254E-01
                       2.5688935242E-01  7.4311064758E-01  7.4311064758E-01
                       7.4311064758E-01  2.5688935242E-01  7.4311064758E-01
                       2.5688935242E-01  7.4311064758E-01  2.5688935242E-01
                       7.4311064758E-01  2.5688935242E-01  2.5688935242E-01
                      -4.2722639981E-22 -1.5254871722E-21  1.1846608716E-21
             xred2     2.5000000000E-01  2.5000000000E-01  2.5000000000E-01
                       7.5000000000E-01  7.5000000000E-01  7.5000000000E-01
                       2.4761191324E-01  2.4761191324E-01  7.5238808676E-01
                       7.5238808676E-01  7.5238808676E-01  2.4761191324E-01
                       2.5700018330E-01  7.4299981670E-01  7.4299981670E-01
                       7.4299981670E-01  2.5700018330E-01  7.4299981670E-01
                       2.5700018330E-01  7.4299981670E-01  2.5700018330E-01
                       7.4299981670E-01  2.5700018330E-01  2.5700018330E-01
                      -6.9701523851E-22 -1.4143930696E-21  1.1993848221E-21
             xred3     2.5000000000E-01  2.5000000000E-01  2.5000000000E-01
                       7.5000000000E-01  7.5000000000E-01  7.5000000000E-01
                       2.4785549522E-01  2.4785549522E-01  7.5214450478E-01
                       7.5214450478E-01  7.5214450478E-01  2.4785549522E-01
                       2.5712048971E-01  7.4287951029E-01  7.4287951029E-01
                       7.4287951029E-01  2.5712048971E-01  7.4287951029E-01
                       2.5712048971E-01  7.4287951029E-01  2.5712048971E-01
                       7.4287951029E-01  2.5712048971E-01  2.5712048971E-01
                       3.0979805267E-23  1.1449405808E-21 -2.0404166112E-22
             xred4     2.5000000000E-01  2.5000000000E-01  2.5000000000E-01
                       7.5000000000E-01  7.5000000000E-01  7.5000000000E-01
                       2.4808487078E-01  2.4808487078E-01  7.5191512922E-01
                       7.5191512922E-01  7.5191512922E-01  2.4808487078E-01
                       2.5724677751E-01  7.4275322249E-01  7.4275322249E-01
                       7.4275322249E-01  2.5724677751E-01  7.4275322249E-01
                       2.5724677751E-01  7.4275322249E-01  2.5724677751E-01
                       7.4275322249E-01  2.5724677751E-01  2.5724677751E-01
                      -4.6006179061E-22 -1.4282082841E-21  1.1492511492E-21
             xred5     2.5000000000E-01  2.5000000000E-01  2.5000000000E-01
                       7.5000000000E-01  7.5000000000E-01  7.5000000000E-01
                       2.4830059904E-01  2.4830059904E-01  7.5169940096E-01
                       7.5169940096E-01  7.5169940096E-01  2.4830059904E-01
                       2.5737702119E-01  7.4262297881E-01  7.4262297881E-01
                       7.4262297881E-01  2.5737702119E-01  7.4262297881E-01
                       2.5737702119E-01  7.4262297881E-01  2.5737702119E-01
                       7.4262297881E-01  2.5737702119E-01  2.5737702119E-01
                      -3.8992097138E-22 -1.4754587798E-21  1.1523935692E-21
             xred6     2.5000000000E-01  2.5000000000E-01  2.5000000000E-01
                       7.5000000000E-01  7.5000000000E-01  7.5000000000E-01
                       2.4853559916E-01  2.4853559916E-01  7.5146440084E-01
                       7.5146440084E-01  7.5146440084E-01  2.4853559916E-01
                       2.5749429356E-01  7.4250570644E-01  7.4250570644E-01
                       7.4250570644E-01  2.5749429356E-01  7.4250570644E-01
                       2.5749429356E-01  7.4250570644E-01  2.5749429356E-01
                       7.4250570644E-01  2.5749429356E-01  2.5749429356E-01
                      -4.2722639981E-22 -1.5254871722E-21  1.1846608716E-21
             xred7     2.5000000000E-01  2.5000000000E-01  2.5000000000E-01
                       7.5000000000E-01  7.5000000000E-01  7.5000000000E-01
                       2.4876819309E-01  2.4876819309E-01  7.5123180691E-01
                       7.5123180691E-01  7.5123180691E-01  2.4876819309E-01
                       2.5761708751E-01  7.4238291249E-01  7.4238291249E-01
                       7.4238291249E-01  2.5761708751E-01  7.4238291249E-01
                       2.5761708751E-01  7.4238291249E-01  2.5761708751E-01
                       7.4238291249E-01  2.5761708751E-01  2.5761708751E-01
                      -4.7159088946E-22 -1.3738871950E-21  1.0718714424E-21
             xred8     2.5000000000E-01  2.5000000000E-01  2.5000000000E-01
                       7.5000000000E-01  7.5000000000E-01  7.5000000000E-01
                       2.4898691344E-01  2.4898691344E-01  7.5101308656E-01
                       7.5101308656E-01  7.5101308656E-01  2.4898691344E-01
                       2.5774577331E-01  7.4225422669E-01  7.4225422669E-01
                       7.4225422669E-01  2.5774577331E-01  7.4225422669E-01
                       2.5774577331E-01  7.4225422669E-01  2.5774577331E-01
                       7.4225422669E-01  2.5774577331E-01  2.5774577331E-01
                       7.1860494646E-22 -1.5914886891E-21  5.7407993983E-22
             xred9     2.5000000000E-01  2.5000000000E-01  2.5000000000E-01
                       7.5000000000E-01  7.5000000000E-01  7.5000000000E-01
                       2.4920917568E-01  2.4920917568E-01  7.5079082432E-01
                       7.5079082432E-01  7.5079082432E-01  2.4920917568E-01
                       2.5787053722E-01  7.4212946278E-01  7.4212946278E-01
                       7.4212946278E-01  2.5787053722E-01  7.4212946278E-01
                       2.5787053722E-01  7.4212946278E-01  2.5787053722E-01
                       7.4212946278E-01  2.5787053722E-01  2.5787053722E-01
                       8.1829425701E-22 -2.5856263216E-21  1.0301818581E-21
            znucl       55.00000   53.00000   40.00000   35.00000

================================================================================


- Timing analysis has been suppressed with timopt=0



================================================================================

 Suggested references for the acknowledgment of ABINIT usage.

 The users of ABINIT have little formal obligations with respect to the ABINIT group
 (those specified in the GNU General Public License, http://www.gnu.org/copyleft/gpl.txt).
 However, it is common practice in the scientific literature,
 to acknowledge the efforts of people that have made the research possible.
 In this spirit, please find below suggested citations of work written by ABINIT developers,
 corresponding to implementations inside of ABINIT that you have used in the present run.
 Note also that it will be of great value to readers of publications presenting these results,
 to read papers enabling them to understand the theoretical formalism and details
 of the ABINIT implementation.
 For information on why they are suggested, see also https://docs.abinit.org/theory/acknowledgments.
-
- [1] Implementation of the Projector Augmented-Wave Method in the ABINIT code.
- M. Torrent, F. Jollet, F. Bottin, G. Zerah, and X. Gonze Comput. Mat. Science 42, 337, (2008).
- Comment: PAW calculations. Strong suggestion to cite this paper.
- DOI and bibtex: see https://docs.abinit.org/theory/bibliography/#torrent2008
-
- [2] Libxc: A library of exchange and correlation functionals for density functional theory.
- M.A.L. Marques, M.J.T. Oliveira, T. Burnus, Computer Physics Communications 183, 2227 (2012).
- Comment: to be cited when LibXC is used (negative value of ixc)
- Strong suggestion to cite this paper.
- DOI and bibtex: see https://docs.abinit.org/theory/bibliography/#marques2012
-
- [3] The Abinit project: Impact, environment and recent developments.
- Computer Phys. Comm. 248, 107042 (2020).
- X.Gonze, B. Amadon, G. Antonius, F.Arnardi, L.Baguet, J.-M.Beuken,
- J.Bieder, F.Bottin, J.Bouchet, E.Bousquet, N.Brouwer, F.Bruneval,
- G.Brunin, T.Cavignac, J.-B. Charraud, Wei Chen, M.Cote, S.Cottenier,
- J.Denier, G.Geneste, Ph.Ghosez, M.Giantomassi, Y.Gillet, O.Gingras,
- D.R.Hamann, G.Hautier, Xu He, N.Helbig, N.Holzwarth, Y.Jia, F.Jollet,
- W.Lafargue-Dit-Hauret, K.Lejaeghere, M.A.L.Marques, A.Martin, C.Martins,
- H.P.C. Miranda, F.Naccarato, K. Persson, G.Petretto, V.Planes, Y.Pouillon,
- S.Prokhorenko, F.Ricci, G.-M.Rignanese, A.H.Romero, M.M.Schmitt, M.Torrent,
- M.J.van Setten, B.Van Troeye, M.J.Verstraete, G.Zerah and J.W.Zwanzig
- Comment: the fifth generic paper describing the ABINIT project.
- Note that a version of this paper, that is not formatted for Computer Phys. Comm. 
- is available at https://www.abinit.org/sites/default/files/ABINIT20.pdf .
- The licence allows the authors to put it on the Web.
- DOI and bibtex: see https://docs.abinit.org/theory/bibliography/#gonze2020
-
- [4] ABINIT: Overview, and focus on selected capabilities
- J. Chem. Phys. 152, 124102 (2020).
- A. Romero, D.C. Allan, B. Amadon, G. Antonius, T. Applencourt, L.Baguet,
- J.Bieder, F.Bottin, J.Bouchet, E.Bousquet, F.Bruneval,
- G.Brunin, D.Caliste, M.Cote,
- J.Denier, C. Dreyer, Ph.Ghosez, M.Giantomassi, Y.Gillet, O.Gingras,
- D.R.Hamann, G.Hautier, F.Jollet, G. Jomard,
- A.Martin, 
- H.P.C. Miranda, F.Naccarato, G.Petretto, N.A. Pike, V.Planes,
- S.Prokhorenko, T. Rangel, F.Ricci, G.-M.Rignanese, M.Royo, M.Stengel, M.Torrent,
- M.J.van Setten, B.Van Troeye, M.J.Verstraete, J.Wiktor, J.W.Zwanziger, and X.Gonze.
- Comment: a global overview of ABINIT, with focus on selected capabilities .
- Note that a version of this paper, that is not formatted for J. Chem. Phys 
- is available at https://www.abinit.org/sites/default/files/ABINIT20_JPC.pdf .
- The licence allows the authors to put it on the Web.
- DOI and bibtex: see https://docs.abinit.org/theory/bibliography/#romero2020
-
- [5] Recent developments in the ABINIT software package.
- Computer Phys. Comm. 205, 106 (2016).
- X.Gonze, F.Jollet, F.Abreu Araujo, D.Adams, B.Amadon, T.Applencourt,
- C.Audouze, J.-M.Beuken, J.Bieder, A.Bokhanchuk, E.Bousquet, F.Bruneval
- D.Caliste, M.Cote, F.Dahm, F.Da Pieve, M.Delaveau, M.Di Gennaro,
- B.Dorado, C.Espejo, G.Geneste, L.Genovese, A.Gerossier, M.Giantomassi,
- Y.Gillet, D.R.Hamann, L.He, G.Jomard, J.Laflamme Janssen, S.Le Roux,
- A.Levitt, A.Lherbier, F.Liu, I.Lukacevic, A.Martin, C.Martins,
- M.J.T.Oliveira, S.Ponce, Y.Pouillon, T.Rangel, G.-M.Rignanese,
- A.H.Romero, B.Rousseau, O.Rubel, A.A.Shukri, M.Stankovski, M.Torrent,
- M.J.Van Setten, B.Van Troeye, M.J.Verstraete, D.Waroquier, J.Wiktor,
- B.Xu, A.Zhou, J.W.Zwanziger.
- Comment: the fourth generic paper describing the ABINIT project.
- Note that a version of this paper, that is not formatted for Computer Phys. Comm. 
- is available at https://www.abinit.org/sites/default/files/ABINIT16.pdf .
- The licence allows the authors to put it on the Web.
- DOI and bibtex: see https://docs.abinit.org/theory/bibliography/#gonze2016
-
- Proc.   0 individual time (sec): cpu=       5841.5  wall=       5841.7

================================================================================

 Calculation completed.
.Delivered   0 WARNINGs and   0 COMMENTs to log file.
+Overall time at end (sec) : cpu=      35049.2  wall=      35050.1
