
 **** DERIVATIVE DATABASE ****    
+DDB, Version number    100401

 Cs2TiI6 phonons on 4 4 4 mesh

    usepaw         1
     natom         9
      nkpt       256
    nsppol         1
      nsym        48
    ntypat         3
    occopt         1
     nband        42
     acell  0.16045663836000D+02  0.16045663836000D+02  0.16045663836000D+02
       amu  0.13290543000000D+03  0.12690447000000D+03  0.17849000000000D+03
   dilatmx  0.10000000000000D+01
      ecut  0.16000000000000D+02
 pawecutdg  0.40000000000000D+02
    ecutsm  0.00000000000000D+00
     intxc         0
      iscf         7
       ixc   -101130
       kpt -0.12500000000000D+00 -0.25000000000000D+00  0.00000000000000D+00
           -0.25000000000000D+00 -0.12500000000000D+00  0.00000000000000D+00
           -0.12500000000000D+00 -0.12500000000000D+00  0.12500000000000D+00
           -0.12500000000000D+00  0.50000000000000D+00  0.00000000000000D+00
           -0.25000000000000D+00 -0.37500000000000D+00  0.00000000000000D+00
           -0.12500000000000D+00 -0.37500000000000D+00  0.12500000000000D+00
           -0.37500000000000D+00 -0.25000000000000D+00  0.00000000000000D+00
           -0.25000000000000D+00 -0.25000000000000D+00  0.12500000000000D+00
           -0.12500000000000D+00 -0.25000000000000D+00  0.25000000000000D+00
            0.50000000000000D+00 -0.12500000000000D+00  0.00000000000000D+00
           -0.37500000000000D+00 -0.12500000000000D+00  0.12500000000000D+00
           -0.25000000000000D+00 -0.12500000000000D+00  0.25000000000000D+00
           -0.12500000000000D+00 -0.12500000000000D+00  0.37500000000000D+00
           -0.12500000000000D+00  0.25000000000000D+00  0.00000000000000D+00
           -0.25000000000000D+00  0.37500000000000D+00  0.00000000000000D+00
           -0.12500000000000D+00  0.37500000000000D+00  0.12500000000000D+00
           -0.37500000000000D+00  0.50000000000000D+00  0.00000000000000D+00
           -0.25000000000000D+00  0.50000000000000D+00  0.12500000000000D+00
           -0.12500000000000D+00  0.50000000000000D+00  0.25000000000000D+00
            0.50000000000000D+00 -0.37500000000000D+00  0.00000000000000D+00
           -0.37500000000000D+00 -0.37500000000000D+00  0.12500000000000D+00
           -0.25000000000000D+00 -0.37500000000000D+00  0.25000000000000D+00
           -0.12500000000000D+00 -0.37500000000000D+00  0.37500000000000D+00
            0.37500000000000D+00 -0.25000000000000D+00  0.00000000000000D+00
            0.50000000000000D+00 -0.25000000000000D+00  0.12500000000000D+00
           -0.37500000000000D+00 -0.25000000000000D+00  0.25000000000000D+00
           -0.25000000000000D+00 -0.25000000000000D+00  0.37500000000000D+00
           -0.12500000000000D+00 -0.25000000000000D+00  0.50000000000000D+00
            0.25000000000000D+00 -0.12500000000000D+00  0.00000000000000D+00
            0.37500000000000D+00 -0.12500000000000D+00  0.12500000000000D+00
            0.50000000000000D+00 -0.12500000000000D+00  0.25000000000000D+00
           -0.37500000000000D+00 -0.12500000000000D+00  0.37500000000000D+00
           -0.25000000000000D+00 -0.12500000000000D+00  0.50000000000000D+00
           -0.12500000000000D+00 -0.12500000000000D+00 -0.37500000000000D+00
           -0.12500000000000D+00  0.00000000000000D+00  0.00000000000000D+00
           -0.25000000000000D+00  0.12500000000000D+00  0.00000000000000D+00
           -0.12500000000000D+00  0.12500000000000D+00  0.12500000000000D+00
           -0.37500000000000D+00  0.25000000000000D+00  0.00000000000000D+00
           -0.25000000000000D+00  0.25000000000000D+00  0.12500000000000D+00
           -0.12500000000000D+00  0.25000000000000D+00  0.25000000000000D+00
            0.50000000000000D+00  0.37500000000000D+00  0.00000000000000D+00
           -0.37500000000000D+00  0.37500000000000D+00  0.12500000000000D+00
           -0.25000000000000D+00  0.37500000000000D+00  0.25000000000000D+00
           -0.12500000000000D+00  0.37500000000000D+00  0.37500000000000D+00
            0.37500000000000D+00  0.50000000000000D+00  0.00000000000000D+00
            0.50000000000000D+00  0.50000000000000D+00  0.12500000000000D+00
           -0.37500000000000D+00  0.50000000000000D+00  0.25000000000000D+00
           -0.25000000000000D+00  0.50000000000000D+00  0.37500000000000D+00
           -0.12500000000000D+00  0.50000000000000D+00  0.50000000000000D+00
            0.25000000000000D+00 -0.37500000000000D+00  0.00000000000000D+00
            0.37500000000000D+00 -0.37500000000000D+00  0.12500000000000D+00
            0.50000000000000D+00 -0.37500000000000D+00  0.25000000000000D+00
           -0.37500000000000D+00 -0.37500000000000D+00  0.37500000000000D+00
           -0.25000000000000D+00 -0.37500000000000D+00  0.50000000000000D+00
           -0.12500000000000D+00 -0.37500000000000D+00 -0.37500000000000D+00
            0.12500000000000D+00 -0.25000000000000D+00  0.00000000000000D+00
            0.25000000000000D+00 -0.25000000000000D+00  0.12500000000000D+00
            0.37500000000000D+00 -0.25000000000000D+00  0.25000000000000D+00
            0.50000000000000D+00 -0.25000000000000D+00  0.37500000000000D+00
           -0.37500000000000D+00 -0.25000000000000D+00  0.50000000000000D+00
           -0.25000000000000D+00 -0.25000000000000D+00 -0.37500000000000D+00
           -0.12500000000000D+00 -0.25000000000000D+00 -0.25000000000000D+00
            0.00000000000000D+00 -0.12500000000000D+00  0.00000000000000D+00
            0.12500000000000D+00 -0.12500000000000D+00  0.12500000000000D+00
            0.25000000000000D+00 -0.12500000000000D+00  0.25000000000000D+00
            0.37500000000000D+00 -0.12500000000000D+00  0.37500000000000D+00
            0.50000000000000D+00 -0.12500000000000D+00  0.50000000000000D+00
           -0.37500000000000D+00 -0.12500000000000D+00 -0.37500000000000D+00
           -0.25000000000000D+00 -0.12500000000000D+00 -0.25000000000000D+00
           -0.12500000000000D+00 -0.12500000000000D+00 -0.12500000000000D+00
           -0.37500000000000D+00  0.00000000000000D+00  0.00000000000000D+00
           -0.25000000000000D+00  0.00000000000000D+00  0.12500000000000D+00
           -0.12500000000000D+00  0.00000000000000D+00  0.25000000000000D+00
            0.50000000000000D+00  0.12500000000000D+00  0.00000000000000D+00
           -0.37500000000000D+00  0.12500000000000D+00  0.12500000000000D+00
           -0.25000000000000D+00  0.12500000000000D+00  0.25000000000000D+00
           -0.12500000000000D+00  0.12500000000000D+00  0.37500000000000D+00
            0.37500000000000D+00  0.25000000000000D+00  0.00000000000000D+00
            0.50000000000000D+00  0.25000000000000D+00  0.12500000000000D+00
           -0.37500000000000D+00  0.25000000000000D+00  0.25000000000000D+00
           -0.25000000000000D+00  0.25000000000000D+00  0.37500000000000D+00
           -0.12500000000000D+00  0.25000000000000D+00  0.50000000000000D+00
            0.25000000000000D+00  0.37500000000000D+00  0.00000000000000D+00
            0.37500000000000D+00  0.37500000000000D+00  0.12500000000000D+00
            0.50000000000000D+00  0.37500000000000D+00  0.25000000000000D+00
           -0.37500000000000D+00  0.37500000000000D+00  0.37500000000000D+00
           -0.25000000000000D+00  0.37500000000000D+00  0.50000000000000D+00
           -0.12500000000000D+00  0.37500000000000D+00 -0.37500000000000D+00
            0.12500000000000D+00  0.50000000000000D+00  0.00000000000000D+00
            0.25000000000000D+00  0.50000000000000D+00  0.12500000000000D+00
            0.37500000000000D+00  0.50000000000000D+00  0.25000000000000D+00
            0.50000000000000D+00  0.50000000000000D+00  0.37500000000000D+00
           -0.37500000000000D+00  0.50000000000000D+00  0.50000000000000D+00
           -0.25000000000000D+00  0.50000000000000D+00 -0.37500000000000D+00
           -0.12500000000000D+00  0.50000000000000D+00 -0.25000000000000D+00
            0.00000000000000D+00 -0.37500000000000D+00  0.00000000000000D+00
            0.12500000000000D+00 -0.37500000000000D+00  0.12500000000000D+00
            0.25000000000000D+00 -0.37500000000000D+00  0.25000000000000D+00
            0.37500000000000D+00 -0.37500000000000D+00  0.37500000000000D+00
            0.50000000000000D+00 -0.37500000000000D+00  0.50000000000000D+00
           -0.37500000000000D+00 -0.37500000000000D+00 -0.37500000000000D+00
           -0.25000000000000D+00 -0.37500000000000D+00 -0.25000000000000D+00
           -0.12500000000000D+00 -0.37500000000000D+00 -0.12500000000000D+00
            0.00000000000000D+00 -0.25000000000000D+00  0.12500000000000D+00
            0.12500000000000D+00 -0.25000000000000D+00  0.25000000000000D+00
            0.25000000000000D+00 -0.25000000000000D+00  0.37500000000000D+00
            0.37500000000000D+00 -0.25000000000000D+00  0.50000000000000D+00
            0.50000000000000D+00 -0.25000000000000D+00 -0.37500000000000D+00
           -0.37500000000000D+00 -0.25000000000000D+00 -0.25000000000000D+00
           -0.25000000000000D+00 -0.25000000000000D+00 -0.12500000000000D+00
            0.00000000000000D+00 -0.12500000000000D+00  0.25000000000000D+00
            0.12500000000000D+00 -0.12500000000000D+00  0.37500000000000D+00
            0.25000000000000D+00 -0.12500000000000D+00  0.50000000000000D+00
            0.37500000000000D+00 -0.12500000000000D+00 -0.37500000000000D+00
            0.50000000000000D+00 -0.12500000000000D+00 -0.25000000000000D+00
           -0.37500000000000D+00 -0.12500000000000D+00 -0.12500000000000D+00
            0.37500000000000D+00  0.00000000000000D+00  0.00000000000000D+00
            0.50000000000000D+00  0.00000000000000D+00  0.12500000000000D+00
           -0.37500000000000D+00  0.00000000000000D+00  0.25000000000000D+00
           -0.25000000000000D+00  0.00000000000000D+00  0.37500000000000D+00
           -0.12500000000000D+00  0.00000000000000D+00  0.50000000000000D+00
            0.25000000000000D+00  0.12500000000000D+00  0.00000000000000D+00
            0.37500000000000D+00  0.12500000000000D+00  0.12500000000000D+00
            0.50000000000000D+00  0.12500000000000D+00  0.25000000000000D+00
           -0.37500000000000D+00  0.12500000000000D+00  0.37500000000000D+00
           -0.25000000000000D+00  0.12500000000000D+00  0.50000000000000D+00
           -0.12500000000000D+00  0.12500000000000D+00 -0.37500000000000D+00
            0.12500000000000D+00  0.25000000000000D+00  0.00000000000000D+00
            0.25000000000000D+00  0.25000000000000D+00  0.12500000000000D+00
            0.37500000000000D+00  0.25000000000000D+00  0.25000000000000D+00
            0.50000000000000D+00  0.25000000000000D+00  0.37500000000000D+00
           -0.37500000000000D+00  0.25000000000000D+00  0.50000000000000D+00
           -0.25000000000000D+00  0.25000000000000D+00 -0.37500000000000D+00
           -0.12500000000000D+00  0.25000000000000D+00 -0.25000000000000D+00
            0.00000000000000D+00  0.37500000000000D+00  0.00000000000000D+00
            0.12500000000000D+00  0.37500000000000D+00  0.12500000000000D+00
            0.25000000000000D+00  0.37500000000000D+00  0.25000000000000D+00
            0.37500000000000D+00  0.37500000000000D+00  0.37500000000000D+00
            0.50000000000000D+00  0.37500000000000D+00  0.50000000000000D+00
           -0.37500000000000D+00  0.37500000000000D+00 -0.37500000000000D+00
           -0.25000000000000D+00  0.37500000000000D+00 -0.25000000000000D+00
           -0.12500000000000D+00  0.37500000000000D+00 -0.12500000000000D+00
            0.00000000000000D+00  0.50000000000000D+00  0.12500000000000D+00
            0.12500000000000D+00  0.50000000000000D+00  0.25000000000000D+00
            0.25000000000000D+00  0.50000000000000D+00  0.37500000000000D+00
            0.37500000000000D+00  0.50000000000000D+00  0.50000000000000D+00
            0.50000000000000D+00  0.50000000000000D+00 -0.37500000000000D+00
           -0.37500000000000D+00  0.50000000000000D+00 -0.25000000000000D+00
           -0.25000000000000D+00  0.50000000000000D+00 -0.12500000000000D+00
            0.00000000000000D+00 -0.37500000000000D+00  0.25000000000000D+00
            0.12500000000000D+00 -0.37500000000000D+00  0.37500000000000D+00
            0.25000000000000D+00 -0.37500000000000D+00  0.50000000000000D+00
            0.37500000000000D+00 -0.37500000000000D+00 -0.37500000000000D+00
            0.50000000000000D+00 -0.37500000000000D+00 -0.25000000000000D+00
           -0.37500000000000D+00 -0.37500000000000D+00 -0.12500000000000D+00
            0.00000000000000D+00 -0.25000000000000D+00  0.37500000000000D+00
            0.12500000000000D+00 -0.25000000000000D+00  0.50000000000000D+00
            0.25000000000000D+00 -0.25000000000000D+00 -0.37500000000000D+00
            0.37500000000000D+00 -0.25000000000000D+00 -0.25000000000000D+00
            0.50000000000000D+00 -0.25000000000000D+00 -0.12500000000000D+00
            0.00000000000000D+00 -0.12500000000000D+00  0.50000000000000D+00
            0.12500000000000D+00 -0.12500000000000D+00 -0.37500000000000D+00
            0.25000000000000D+00 -0.12500000000000D+00 -0.25000000000000D+00
            0.37500000000000D+00 -0.12500000000000D+00 -0.12500000000000D+00
            0.12500000000000D+00  0.00000000000000D+00  0.00000000000000D+00
            0.25000000000000D+00  0.00000000000000D+00  0.12500000000000D+00
            0.37500000000000D+00  0.00000000000000D+00  0.25000000000000D+00
            0.50000000000000D+00  0.00000000000000D+00  0.37500000000000D+00
           -0.37500000000000D+00  0.00000000000000D+00  0.50000000000000D+00
           -0.25000000000000D+00  0.00000000000000D+00 -0.37500000000000D+00
           -0.12500000000000D+00  0.00000000000000D+00 -0.25000000000000D+00
            0.00000000000000D+00  0.12500000000000D+00  0.00000000000000D+00
            0.12500000000000D+00  0.12500000000000D+00  0.12500000000000D+00
            0.25000000000000D+00  0.12500000000000D+00  0.25000000000000D+00
            0.37500000000000D+00  0.12500000000000D+00  0.37500000000000D+00
            0.50000000000000D+00  0.12500000000000D+00  0.50000000000000D+00
           -0.37500000000000D+00  0.12500000000000D+00 -0.37500000000000D+00
           -0.25000000000000D+00  0.12500000000000D+00 -0.25000000000000D+00
           -0.12500000000000D+00  0.12500000000000D+00 -0.12500000000000D+00
            0.00000000000000D+00  0.25000000000000D+00  0.12500000000000D+00
            0.12500000000000D+00  0.25000000000000D+00  0.25000000000000D+00
            0.25000000000000D+00  0.25000000000000D+00  0.37500000000000D+00
            0.37500000000000D+00  0.25000000000000D+00  0.50000000000000D+00
            0.50000000000000D+00  0.25000000000000D+00 -0.37500000000000D+00
           -0.37500000000000D+00  0.25000000000000D+00 -0.25000000000000D+00
           -0.25000000000000D+00  0.25000000000000D+00 -0.12500000000000D+00
            0.00000000000000D+00  0.37500000000000D+00  0.25000000000000D+00
            0.12500000000000D+00  0.37500000000000D+00  0.37500000000000D+00
            0.25000000000000D+00  0.37500000000000D+00  0.50000000000000D+00
            0.37500000000000D+00  0.37500000000000D+00 -0.37500000000000D+00
            0.50000000000000D+00  0.37500000000000D+00 -0.25000000000000D+00
           -0.37500000000000D+00  0.37500000000000D+00 -0.12500000000000D+00
            0.00000000000000D+00  0.50000000000000D+00  0.37500000000000D+00
            0.12500000000000D+00  0.50000000000000D+00  0.50000000000000D+00
            0.25000000000000D+00  0.50000000000000D+00 -0.37500000000000D+00
            0.37500000000000D+00  0.50000000000000D+00 -0.25000000000000D+00
            0.50000000000000D+00  0.50000000000000D+00 -0.12500000000000D+00
            0.00000000000000D+00 -0.37500000000000D+00  0.50000000000000D+00
            0.12500000000000D+00 -0.37500000000000D+00 -0.37500000000000D+00
            0.25000000000000D+00 -0.37500000000000D+00 -0.25000000000000D+00
            0.37500000000000D+00 -0.37500000000000D+00 -0.12500000000000D+00
            0.00000000000000D+00 -0.25000000000000D+00 -0.37500000000000D+00
            0.12500000000000D+00 -0.25000000000000D+00 -0.25000000000000D+00
            0.25000000000000D+00 -0.25000000000000D+00 -0.12500000000000D+00
            0.00000000000000D+00 -0.12500000000000D+00 -0.25000000000000D+00
            0.12500000000000D+00 -0.12500000000000D+00 -0.12500000000000D+00
            0.00000000000000D+00  0.00000000000000D+00  0.12500000000000D+00
            0.12500000000000D+00  0.00000000000000D+00  0.25000000000000D+00
            0.25000000000000D+00  0.00000000000000D+00  0.37500000000000D+00
            0.37500000000000D+00  0.00000000000000D+00  0.50000000000000D+00
            0.50000000000000D+00  0.00000000000000D+00 -0.37500000000000D+00
           -0.37500000000000D+00  0.00000000000000D+00 -0.25000000000000D+00
           -0.25000000000000D+00  0.00000000000000D+00 -0.12500000000000D+00
            0.00000000000000D+00  0.12500000000000D+00  0.25000000000000D+00
            0.12500000000000D+00  0.12500000000000D+00  0.37500000000000D+00
            0.25000000000000D+00  0.12500000000000D+00  0.50000000000000D+00
            0.37500000000000D+00  0.12500000000000D+00 -0.37500000000000D+00
            0.50000000000000D+00  0.12500000000000D+00 -0.25000000000000D+00
           -0.37500000000000D+00  0.12500000000000D+00 -0.12500000000000D+00
            0.00000000000000D+00  0.25000000000000D+00  0.37500000000000D+00
            0.12500000000000D+00  0.25000000000000D+00  0.50000000000000D+00
            0.25000000000000D+00  0.25000000000000D+00 -0.37500000000000D+00
            0.37500000000000D+00  0.25000000000000D+00 -0.25000000000000D+00
            0.50000000000000D+00  0.25000000000000D+00 -0.12500000000000D+00
            0.00000000000000D+00  0.37500000000000D+00  0.50000000000000D+00
            0.12500000000000D+00  0.37500000000000D+00 -0.37500000000000D+00
            0.25000000000000D+00  0.37500000000000D+00 -0.25000000000000D+00
            0.37500000000000D+00  0.37500000000000D+00 -0.12500000000000D+00
            0.00000000000000D+00  0.50000000000000D+00 -0.37500000000000D+00
            0.12500000000000D+00  0.50000000000000D+00 -0.25000000000000D+00
            0.25000000000000D+00  0.50000000000000D+00 -0.12500000000000D+00
            0.00000000000000D+00 -0.37500000000000D+00 -0.25000000000000D+00
            0.12500000000000D+00 -0.37500000000000D+00 -0.12500000000000D+00
            0.00000000000000D+00 -0.25000000000000D+00 -0.12500000000000D+00
            0.00000000000000D+00  0.00000000000000D+00  0.37500000000000D+00
            0.12500000000000D+00  0.00000000000000D+00  0.50000000000000D+00
            0.25000000000000D+00  0.00000000000000D+00 -0.37500000000000D+00
            0.37500000000000D+00  0.00000000000000D+00 -0.25000000000000D+00
            0.50000000000000D+00  0.00000000000000D+00 -0.12500000000000D+00
            0.00000000000000D+00  0.12500000000000D+00  0.50000000000000D+00
            0.12500000000000D+00  0.12500000000000D+00 -0.37500000000000D+00
            0.25000000000000D+00  0.12500000000000D+00 -0.25000000000000D+00
            0.37500000000000D+00  0.12500000000000D+00 -0.12500000000000D+00
            0.00000000000000D+00  0.25000000000000D+00 -0.37500000000000D+00
            0.12500000000000D+00  0.25000000000000D+00 -0.25000000000000D+00
            0.25000000000000D+00  0.25000000000000D+00 -0.12500000000000D+00
            0.00000000000000D+00  0.37500000000000D+00 -0.25000000000000D+00
            0.12500000000000D+00  0.37500000000000D+00 -0.12500000000000D+00
            0.00000000000000D+00  0.50000000000000D+00 -0.12500000000000D+00
            0.00000000000000D+00  0.00000000000000D+00 -0.37500000000000D+00
            0.12500000000000D+00  0.00000000000000D+00 -0.25000000000000D+00
            0.25000000000000D+00  0.00000000000000D+00 -0.12500000000000D+00
            0.00000000000000D+00  0.12500000000000D+00 -0.25000000000000D+00
            0.12500000000000D+00  0.12500000000000D+00 -0.12500000000000D+00
            0.00000000000000D+00  0.25000000000000D+00 -0.12500000000000D+00
            0.00000000000000D+00  0.00000000000000D+00 -0.12500000000000D+00
    kptnrm  0.10000000000000D+01
     ngfft        54   54   54
    nspden         1
   nspinor         1
       occ  0.20000000000000D+01  0.20000000000000D+01  0.20000000000000D+01
            0.20000000000000D+01  0.20000000000000D+01  0.20000000000000D+01
            0.20000000000000D+01  0.20000000000000D+01  0.20000000000000D+01
            0.20000000000000D+01  0.20000000000000D+01  0.20000000000000D+01
            0.20000000000000D+01  0.20000000000000D+01  0.20000000000000D+01
            0.20000000000000D+01  0.20000000000000D+01  0.20000000000000D+01
            0.20000000000000D+01  0.20000000000000D+01  0.20000000000000D+01
            0.20000000000000D+01  0.20000000000000D+01  0.20000000000000D+01
            0.20000000000000D+01  0.20000000000000D+01  0.20000000000000D+01
            0.20000000000000D+01  0.20000000000000D+01  0.20000000000000D+01
            0.20000000000000D+01  0.20000000000000D+01  0.20000000000000D+01
            0.20000000000000D+01  0.20000000000000D+01  0.20000000000000D+01
            0.00000000000000D+00  0.00000000000000D+00  0.00000000000000D+00
            0.00000000000000D+00  0.00000000000000D+00  0.00000000000000D+00
     rprim  0.00000000000000D+00  0.64841691835123D+00  0.64841691835123D+00
            0.64841691835123D+00  0.00000000000000D+00  0.64841691835123D+00
            0.64841691835123D+00  0.64841691835123D+00  0.00000000000000D+00
  dfpt_sciss  0.00000000000000D+00
    spinat  0.00000000000000D+00  0.00000000000000D+00  0.00000000000000D+00
            0.00000000000000D+00  0.00000000000000D+00  0.00000000000000D+00
            0.00000000000000D+00  0.00000000000000D+00  0.00000000000000D+00
            0.00000000000000D+00  0.00000000000000D+00  0.00000000000000D+00
            0.00000000000000D+00  0.00000000000000D+00  0.00000000000000D+00
            0.00000000000000D+00  0.00000000000000D+00  0.00000000000000D+00
            0.00000000000000D+00  0.00000000000000D+00  0.00000000000000D+00
            0.00000000000000D+00  0.00000000000000D+00  0.00000000000000D+00
            0.00000000000000D+00  0.00000000000000D+00  0.00000000000000D+00
    symafm         1    1    1    1    1    1    1    1    1    1    1    1
                   1    1    1    1    1    1    1    1    1    1    1    1
                   1    1    1    1    1    1    1    1    1    1    1    1
                   1    1    1    1    1    1    1    1    1    1    1    1
    symrel         1    0    0    0    1    0    0    0    1
                  -1    0    0    0   -1    0    0    0   -1
                   0   -1    1    0   -1    0    1   -1    0
                   0    1   -1    0    1    0   -1    1    0
                  -1    0    0   -1    0    1   -1    1    0
                   1    0    0    1    0   -1    1   -1    0
                   0    1   -1    1    0   -1    0    0   -1
                   0   -1    1   -1    0    1    0    0    1
                  -1    0    0   -1    1    0   -1    0    1
                   1    0    0    1   -1    0    1    0   -1
                   0   -1    1    1   -1    0    0   -1    0
                   0    1   -1   -1    1    0    0    1    0
                   1    0    0    0    0    1    0    1    0
                  -1    0    0    0    0   -1    0   -1    0
                   0    1   -1    0    0   -1    1    0   -1
                   0   -1    1    0    0    1   -1    0    1
                  -1    0    1   -1    1    0   -1    0    0
                   1    0   -1    1   -1    0    1    0    0
                   0   -1    0    1   -1    0    0   -1    1
                   0    1    0   -1    1    0    0    1   -1
                   1    0   -1    0    0   -1    0    1   -1
                  -1    0    1    0    0    1    0   -1    1
                   0    1    0    0    0    1    1    0    0
                   0   -1    0    0    0   -1   -1    0    0
                   1    0   -1    0    1   -1    0    0   -1
                  -1    0    1    0   -1    1    0    0    1
                   0   -1    0    0   -1    1    1   -1    0
                   0    1    0    0    1   -1   -1    1    0
                  -1    0    1   -1    0    0   -1    1    0
                   1    0   -1    1    0    0    1   -1    0
                   0    1    0    1    0    0    0    0    1
                   0   -1    0   -1    0    0    0    0   -1
                   0    0   -1    0    1   -1    1    0   -1
                   0    0    1    0   -1    1   -1    0    1
                   1   -1    0    0   -1    1    0   -1    0
                  -1    1    0    0    1   -1    0    1    0
                   0    0    1    1    0    0    0    1    0
                   0    0   -1   -1    0    0    0   -1    0
                  -1    1    0   -1    0    0   -1    0    1
                   1   -1    0    1    0    0    1    0   -1
                   0    0    1    0    1    0    1    0    0
                   0    0   -1    0   -1    0   -1    0    0
                   1   -1    0    0   -1    0    0   -1    1
                  -1    1    0    0    1    0    0    1   -1
                   0    0   -1    1    0   -1    0    1   -1
                   0    0    1   -1    0    1    0   -1    1
                  -1    1    0   -1    0    1   -1    0    0
                   1   -1    0    1    0   -1    1    0    0
     tnons  0.00000000000000D+00  0.00000000000000D+00  0.00000000000000D+00
           -0.27149167902000D-18  0.13983827657000D-18 -0.10876344545800D-17
            0.40807138778000D-18 -0.53972479023000D-18 -0.40807138778000D-18
           -0.67956306680000D-18  0.67956306680000D-18 -0.67956306680000D-18
           -0.74538976802500D-18  0.61373636557500D-18 -0.61373636557500D-18
            0.47389808900500D-18 -0.47389808900500D-18 -0.47389808900500D-18
           -0.20566497779500D-18  0.20566497779500D-18 -0.11534611558050D-17
           -0.65826701225000D-19 -0.65826701225000D-19  0.65826701225000D-19
           -0.74538976802500D-18  0.00000000000000D+00  0.00000000000000D+00
            0.47389808900500D-18  0.13983827657000D-18 -0.10876344545800D-17
           -0.20566497779500D-18 -0.53972479023000D-18 -0.40807138778000D-18
           -0.65826701225000D-19  0.67956306680000D-18 -0.67956306680000D-18
            0.00000000000000D+00  0.61373636557500D-18 -0.61373636557500D-18
           -0.27149167902000D-18 -0.47389808900500D-18 -0.47389808900500D-18
            0.40807138778000D-18  0.20566497779500D-18 -0.11534611558050D-17
           -0.67956306680000D-18 -0.65826701225000D-19  0.65826701225000D-19
           -0.74538976802500D-18  0.00000000000000D+00 -0.40807138778000D-18
            0.47389808900500D-18  0.13983827657000D-18 -0.67956306680000D-18
           -0.20566497779500D-18 -0.53972479023000D-18  0.00000000000000D+00
           -0.65826701225000D-19  0.67956306680000D-18 -0.10876344545800D-17
            0.00000000000000D+00  0.61373636557500D-18 -0.11534611558050D-17
           -0.27149167902000D-18 -0.47389808900500D-18  0.65826701225000D-19
            0.40807138778000D-18  0.20566497779500D-18 -0.61373636557500D-18
           -0.67956306680000D-18 -0.65826701225000D-19 -0.47389808900500D-18
            0.00000000000000D+00  0.00000000000000D+00 -0.11534611558050D-17
           -0.27149167902000D-18  0.13983827657000D-18  0.65826701225000D-19
            0.40807138778000D-18 -0.53972479023000D-18 -0.61373636557500D-18
           -0.67956306680000D-18  0.67956306680000D-18 -0.47389808900500D-18
           -0.74538976802500D-18  0.61373636557500D-18 -0.40807138778000D-18
            0.47389808900500D-18 -0.47389808900500D-18 -0.67956306680000D-18
           -0.20566497779500D-18  0.20566497779500D-18  0.00000000000000D+00
           -0.65826701225000D-19 -0.65826701225000D-19 -0.10876344545800D-17
            0.40807138778000D-18  0.00000000000000D+00 -0.11534611558050D-17
           -0.67956306680000D-18  0.13983827657000D-18  0.65826701225000D-19
            0.00000000000000D+00 -0.53972479023000D-18 -0.61373636557500D-18
           -0.27149167902000D-18  0.67956306680000D-18 -0.47389808900500D-18
           -0.20566497779500D-18  0.61373636557500D-18 -0.40807138778000D-18
           -0.65826701225000D-19 -0.47389808900500D-18 -0.67956306680000D-18
           -0.74538976802500D-18  0.20566497779500D-18  0.00000000000000D+00
            0.47389808900500D-18 -0.65826701225000D-19 -0.10876344545800D-17
            0.40807138778000D-18  0.00000000000000D+00 -0.40807138778000D-18
           -0.67956306680000D-18  0.13983827657000D-18 -0.67956306680000D-18
            0.00000000000000D+00 -0.53972479023000D-18  0.00000000000000D+00
           -0.27149167902000D-18  0.67956306680000D-18 -0.10876344545800D-17
           -0.20566497779500D-18  0.61373636557500D-18 -0.11534611558050D-17
           -0.65826701225000D-19 -0.47389808900500D-18  0.65826701225000D-19
           -0.74538976802500D-18  0.20566497779500D-18 -0.61373636557500D-18
            0.47389808900500D-18 -0.65826701225000D-19 -0.47389808900500D-18
    tolwfr  0.10000000000000D+01
   tphysel  0.00000000000000D+00
    tsmear  0.10000000000000D-01
     typat         1    1    2    2    2    2    2    2    3
       wtk  0.39062500000000D-02  0.39062500000000D-02  0.39062500000000D-02
            0.39062500000000D-02  0.39062500000000D-02  0.39062500000000D-02
            0.39062500000000D-02  0.39062500000000D-02  0.39062500000000D-02
            0.39062500000000D-02  0.39062500000000D-02  0.39062500000000D-02
            0.39062500000000D-02  0.39062500000000D-02  0.39062500000000D-02
            0.39062500000000D-02  0.39062500000000D-02  0.39062500000000D-02
            0.39062500000000D-02  0.39062500000000D-02  0.39062500000000D-02
            0.39062500000000D-02  0.39062500000000D-02  0.39062500000000D-02
            0.39062500000000D-02  0.39062500000000D-02  0.39062500000000D-02
            0.39062500000000D-02  0.39062500000000D-02  0.39062500000000D-02
            0.39062500000000D-02  0.39062500000000D-02  0.39062500000000D-02
            0.39062500000000D-02  0.39062500000000D-02  0.39062500000000D-02
            0.39062500000000D-02  0.39062500000000D-02  0.39062500000000D-02
            0.39062500000000D-02  0.39062500000000D-02  0.39062500000000D-02
            0.39062500000000D-02  0.39062500000000D-02  0.39062500000000D-02
            0.39062500000000D-02  0.39062500000000D-02  0.39062500000000D-02
            0.39062500000000D-02  0.39062500000000D-02  0.39062500000000D-02
            0.39062500000000D-02  0.39062500000000D-02  0.39062500000000D-02
            0.39062500000000D-02  0.39062500000000D-02  0.39062500000000D-02
            0.39062500000000D-02  0.39062500000000D-02  0.39062500000000D-02
            0.39062500000000D-02  0.39062500000000D-02  0.39062500000000D-02
            0.39062500000000D-02  0.39062500000000D-02  0.39062500000000D-02
            0.39062500000000D-02  0.39062500000000D-02  0.39062500000000D-02
            0.39062500000000D-02  0.39062500000000D-02  0.39062500000000D-02
            0.39062500000000D-02  0.39062500000000D-02  0.39062500000000D-02
            0.39062500000000D-02  0.39062500000000D-02  0.39062500000000D-02
            0.39062500000000D-02  0.39062500000000D-02  0.39062500000000D-02
            0.39062500000000D-02  0.39062500000000D-02  0.39062500000000D-02
            0.39062500000000D-02  0.39062500000000D-02  0.39062500000000D-02
            0.39062500000000D-02  0.39062500000000D-02  0.39062500000000D-02
            0.39062500000000D-02  0.39062500000000D-02  0.39062500000000D-02
            0.39062500000000D-02  0.39062500000000D-02  0.39062500000000D-02
            0.39062500000000D-02  0.39062500000000D-02  0.39062500000000D-02
            0.39062500000000D-02  0.39062500000000D-02  0.39062500000000D-02
            0.39062500000000D-02  0.39062500000000D-02  0.39062500000000D-02
            0.39062500000000D-02  0.39062500000000D-02  0.39062500000000D-02
            0.39062500000000D-02  0.39062500000000D-02  0.39062500000000D-02
            0.39062500000000D-02  0.39062500000000D-02  0.39062500000000D-02
            0.39062500000000D-02  0.39062500000000D-02  0.39062500000000D-02
            0.39062500000000D-02  0.39062500000000D-02  0.39062500000000D-02
            0.39062500000000D-02  0.39062500000000D-02  0.39062500000000D-02
            0.39062500000000D-02  0.39062500000000D-02  0.39062500000000D-02
            0.39062500000000D-02  0.39062500000000D-02  0.39062500000000D-02
            0.39062500000000D-02  0.39062500000000D-02  0.39062500000000D-02
            0.39062500000000D-02  0.39062500000000D-02  0.39062500000000D-02
            0.39062500000000D-02  0.39062500000000D-02  0.39062500000000D-02
            0.39062500000000D-02  0.39062500000000D-02  0.39062500000000D-02
            0.39062500000000D-02  0.39062500000000D-02  0.39062500000000D-02
            0.39062500000000D-02  0.39062500000000D-02  0.39062500000000D-02
            0.39062500000000D-02  0.39062500000000D-02  0.39062500000000D-02
            0.39062500000000D-02  0.39062500000000D-02  0.39062500000000D-02
            0.39062500000000D-02  0.39062500000000D-02  0.39062500000000D-02
            0.39062500000000D-02  0.39062500000000D-02  0.39062500000000D-02
            0.39062500000000D-02  0.39062500000000D-02  0.39062500000000D-02
            0.39062500000000D-02  0.39062500000000D-02  0.39062500000000D-02
            0.39062500000000D-02  0.39062500000000D-02  0.39062500000000D-02
            0.39062500000000D-02  0.39062500000000D-02  0.39062500000000D-02
            0.39062500000000D-02  0.39062500000000D-02  0.39062500000000D-02
            0.39062500000000D-02  0.39062500000000D-02  0.39062500000000D-02
            0.39062500000000D-02  0.39062500000000D-02  0.39062500000000D-02
            0.39062500000000D-02  0.39062500000000D-02  0.39062500000000D-02
            0.39062500000000D-02  0.39062500000000D-02  0.39062500000000D-02
            0.39062500000000D-02  0.39062500000000D-02  0.39062500000000D-02
            0.39062500000000D-02  0.39062500000000D-02  0.39062500000000D-02
            0.39062500000000D-02  0.39062500000000D-02  0.39062500000000D-02
            0.39062500000000D-02  0.39062500000000D-02  0.39062500000000D-02
            0.39062500000000D-02  0.39062500000000D-02  0.39062500000000D-02
            0.39062500000000D-02  0.39062500000000D-02  0.39062500000000D-02
            0.39062500000000D-02  0.39062500000000D-02  0.39062500000000D-02
            0.39062500000000D-02  0.39062500000000D-02  0.39062500000000D-02
            0.39062500000000D-02  0.39062500000000D-02  0.39062500000000D-02
            0.39062500000000D-02  0.39062500000000D-02  0.39062500000000D-02
            0.39062500000000D-02  0.39062500000000D-02  0.39062500000000D-02
            0.39062500000000D-02  0.39062500000000D-02  0.39062500000000D-02
            0.39062500000000D-02  0.39062500000000D-02  0.39062500000000D-02
            0.39062500000000D-02  0.39062500000000D-02  0.39062500000000D-02
            0.39062500000000D-02  0.39062500000000D-02  0.39062500000000D-02
            0.39062500000000D-02  0.39062500000000D-02  0.39062500000000D-02
            0.39062500000000D-02  0.39062500000000D-02  0.39062500000000D-02
            0.39062500000000D-02  0.39062500000000D-02  0.39062500000000D-02
            0.39062500000000D-02  0.39062500000000D-02  0.39062500000000D-02
            0.39062500000000D-02  0.39062500000000D-02  0.39062500000000D-02
            0.39062500000000D-02  0.39062500000000D-02  0.39062500000000D-02
            0.39062500000000D-02  0.39062500000000D-02  0.39062500000000D-02
            0.39062500000000D-02  0.39062500000000D-02  0.39062500000000D-02
            0.39062500000000D-02
      xred  0.25000000000000D+00  0.25000000000000D+00  0.25000000000000D+00
            0.75000000000000D+00  0.75000000000000D+00  0.75000000000000D+00
            0.74549800098000D+00  0.25450199902000D+00  0.74549800098000D+00
            0.25450199902000D+00  0.25450199902000D+00  0.74549800098000D+00
            0.74549800098000D+00  0.74549800098000D+00  0.25450199902000D+00
            0.25450199902000D+00  0.74549800098000D+00  0.25450199902000D+00
            0.25450199902000D+00  0.74549800098000D+00  0.74549800098000D+00
            0.74549800098000D+00  0.25450199902000D+00  0.25450199902000D+00
           -0.13574583951000D-18  0.69919138285000D-19 -0.54381722729000D-18
     znucl  0.55000000000000D+02  0.53000000000000D+02  0.72000000000000D+02
      zion  0.90000000000000D+01  0.70000000000000D+01  0.12000000000000D+02
 
  Description of the PAW dataset(s)
  vrsio8 (for pseudopotentials)=100401
  usepaw =  1
  Atom type=   1 basis_size=  6   lmn_size=   18
    Basis functions= 0 0 1 1 2 2
    r_PAW=  2.207 shape_type=  2  r_shape=  2.004
    Dij0=     (only the  27 values different from zero)
       i    j     Dij0        i    j     Dij0        i    j     Dij0        i    j     Dij0
       1    1  4.86699E-02    1    2 -1.19907E-02    2    2 -1.05555E-03    3    3  3.25734E-02
       4    4  3.25734E-02    5    5  3.25734E-02    3    6 -3.13059E-01    6    6  4.43300E-01
       4    7 -3.13059E-01    7    7  4.43300E-01    5    8 -3.13059E-01    8    8  4.43300E-01
       9    9  2.15685E-02   10   10  2.15685E-02   11   11  2.15685E-02   12   12  2.15685E-02
      13   13  2.15685E-02    9   14  2.69892E-01   14   14  2.63737E+00   10   15  2.69892E-01
      15   15  2.63737E+00   11   16  2.69892E-01   16   16  2.63737E+00   12   17  2.69892E-01
      17   17  2.63737E+00   13   18  2.69892E-01   18   18  2.63737E+00
  Atom type=   2 basis_size=  4   lmn_size=    8
    Basis functions= 0 0 1 1
    r_PAW=  2.300 shape_type=  2  r_shape=  2.109
    Dij0=     (only the  12 values different from zero)
       i    j     Dij0        i    j     Dij0        i    j     Dij0        i    j     Dij0
       1    1 -5.71520E-01    1    2  1.28145E+00    2    2 -4.38625E+00    3    3 -1.99658E-01
       4    4 -1.99658E-01    5    5 -1.99658E-01    3    6  7.83058E-01    6    6 -4.13016E+00
       4    7  7.83058E-01    7    7 -4.13016E+00    5    8  7.83058E-01    8    8 -4.13016E+00
  Atom type=   3 basis_size=  6   lmn_size=   18
    Basis functions= 0 0 1 1 2 2
    r_PAW=  2.410 shape_type=  2  r_shape=  2.410
    Dij0=     (only the  27 values different from zero)
       i    j     Dij0        i    j     Dij0        i    j     Dij0        i    j     Dij0
       1    1 -3.63503E+00    1    2  5.14596E-01    2    2 -1.96299E-02    3    3 -1.86085E+00
       4    4 -1.86085E+00    5    5 -1.86085E+00    3    6  2.15171E-01    6    6 -5.09060E-03
       4    7  2.15171E-01    7    7 -5.09060E-03    5    8  2.15171E-01    8    8 -5.09060E-03
       9    9 -4.50212E-01   10   10 -4.50212E-01   11   11 -4.50212E-01   12   12 -4.50212E-01
      13   13 -4.50212E-01    9   14 -1.39759E+00   14   14 -4.30353E+00   10   15 -1.39759E+00
      15   15 -4.30353E+00   11   16 -1.39759E+00   16   16 -4.30353E+00   12   17 -1.39759E+00
      17   17 -4.30353E+00   13   18 -1.39759E+00   18   18 -4.30353E+00
 
 **** Database of total energy derivatives ****
 Number of data blocks=    8
  
 2nd derivatives (non-stat.)  - # elements :     906
 qpt  0.00000000E+00  0.00000000E+00  0.00000000E+00   1.0
   1   1   1   1  0.38702383867940D+01  0.00000000000000D+00
   2   1   1   1  0.19351191933984D+01  0.00000000000000D+00
   3   1   1   1  0.19351191933984D+01  0.00000000000000D+00
   1   2   1   1 -0.13002997185814D+00  0.00000000000000D+00
   2   2   1   1 -0.65014985929057D-01  0.00000000000000D+00
   3   2   1   1 -0.65014985929061D-01  0.00000000000000D+00
   1   3   1   1 -0.39768319685165D+00 -0.14088109243123D-17
   2   3   1   1  0.43256381017154D-01 -0.10226090666991D-17
   3   3   1   1  0.48705054741793D+00 -0.74115689429238D-18
   1   4   1   1 -0.39768319685165D+00 -0.23293993272781D-17
   2   4   1   1 -0.44093957786878D+00  0.19381043730809D-18
   3   4   1   1 -0.88473374426957D+00 -0.33674596240763D-18
   1   5   1   1 -0.39768319685166D+00 -0.16740821810366D-18
   2   5   1   1  0.48705054741789D+00  0.55794596634984D-18
   3   5   1   1  0.43256381017159D-01  0.57563210857334D-18
   1   6   1   1 -0.39768319685165D+00  0.19287095999724D-18
   2   6   1   1 -0.88473374426954D+00  0.14843724704712D-18
   3   6   1   1 -0.44093957786879D+00  0.51685834285367D-18
   1   7   1   1  0.86512762034229D-01 -0.33085761008816D-19
   2   7   1   1  0.43256381017155D-01  0.26740704591706D-19
   3   7   1   1  0.43256381017112D-01 -0.21692849459547D-18
   1   8   1   1 -0.17694674885392D+01  0.67907069388231D-18
   2   8   1   1 -0.88473374426960D+00 -0.72091700158048D-18
   3   8   1   1 -0.88473374426963D+00 -0.99580783466383D-18
   1   9   1   1 -0.16688470511218D+00  0.32257736620471D-16
   2   9   1   1 -0.83442352556053D-01 -0.11931941930597D-16
   3   9   1   1 -0.83442352556059D-01 -0.25641016668520D-16
   1  11   1   1 -0.47752306666745D+02  0.00000000000000D+00
   2  11   1   1  0.14027471776094D-05  0.00000000000000D+00
   3  11   1   1 -0.34574908858171D-05  0.00000000000000D+00
   1   1   2   1  0.19351191933974D+01  0.00000000000000D+00
   2   1   2   1  0.38702383867926D+01  0.00000000000000D+00
   3   1   2   1  0.19351191933970D+01  0.00000000000000D+00
   1   2   2   1 -0.65014985929057D-01  0.00000000000000D+00
   2   2   2   1 -0.13002997185814D+00  0.00000000000000D+00
   3   2   2   1 -0.65014985929071D-01  0.00000000000000D+00
   1   3   2   1  0.43256381017152D-01 -0.10226090666991D-17
   2   3   2   1  0.86512762034233D-01 -0.10039794377168D-17
   3   3   2   1  0.43256381017112D-01 -0.90206700542761D-18
   1   4   2   1 -0.44093957786879D+00  0.19381043730809D-18
   2   4   2   1 -0.39768319685167D+00  0.26984013190613D-18
   3   4   2   1 -0.88473374426953D+00  0.10014627711105D-17
   1   5   2   1  0.48705054741789D+00  0.55794596634984D-18
   2   5   2   1 -0.39768319685167D+00 -0.36297631805935D-17
   3   5   2   1  0.43256381017144D-01 -0.92170905325383D-18
   1   6   2   1 -0.88473374426961D+00  0.14843724704712D-18
   2   6   2   1 -0.17694674885393D+01  0.45963502030887D-18
   3   6   2   1 -0.88473374426966D+00 -0.63032607301921D-18
   1   7   2   1  0.43256381017159D-01  0.26740704591706D-19
   2   7   2   1 -0.39768319685163D+00  0.63249054372923D-18
   3   7   2   1  0.48705054741795D+00  0.65211891213707D-19
   1   8   2   1 -0.88473374426952D+00 -0.72091700158048D-18
   2   8   2   1 -0.39768319685164D+00 -0.93209491891143D-18
   3   8   2   1 -0.44093957786879D+00 -0.19693100524555D-17
   1   9   2   1 -0.83442352556051D-01 -0.11931941930597D-16
   2   9   2   1 -0.16688470511216D+00  0.11507579096080D-17
   3   9   2   1 -0.83442352556041D-01 -0.41462631702333D-16
   1  11   2   1  0.43922564645360D-05  0.00000000000000D+00
   2  11   2   1 -0.47752309655397D+02  0.00000000000000D+00
   3  11   2   1 -0.67599252780576D-05  0.00000000000000D+00
   1   1   3   1  0.19351191933979D+01  0.00000000000000D+00
   2   1   3   1  0.19351191933974D+01  0.00000000000000D+00
   3   1   3   1  0.38702383867926D+01  0.00000000000000D+00
   1   2   3   1 -0.65014985929061D-01  0.00000000000000D+00
   2   2   3   1 -0.65014985929068D-01  0.00000000000000D+00
   3   2   3   1 -0.13002997185812D+00  0.00000000000000D+00
   1   3   3   1  0.48705054741793D+00 -0.74115689429238D-18
   2   3   3   1  0.43256381017122D-01 -0.90206700542761D-18
   3   3   3   1 -0.39768319685167D+00 -0.17424019435131D-18
   1   4   3   1 -0.88473374426962D+00 -0.33674596240763D-18
   2   4   3   1 -0.88473374426957D+00  0.10014627711105D-17
   3   4   3   1 -0.17694674885393D+01 -0.65725235522657D-18
   1   5   3   1  0.43256381017154D-01  0.57563210857334D-18
   2   5   3   1  0.43256381017132D-01 -0.92170905325383D-18
   3   5   3   1  0.86512762034207D-01 -0.70367879797632D-18
   1   6   3   1 -0.44093957786877D+00  0.51685834285367D-18
   2   6   3   1 -0.88473374426965D+00 -0.63032607301921D-18
   3   6   3   1 -0.39768319685164D+00 -0.24163071797333D-18
   1   7   3   1  0.43256381017124D-01 -0.21692849459547D-18
   2   7   3   1  0.48705054741797D+00  0.65211891213707D-19
   3   7   3   1 -0.39768319685165D+00 -0.28060451756655D-17
   1   8   3   1 -0.88473374426957D+00 -0.99580783466383D-18
   2   8   3   1 -0.44093957786877D+00 -0.19693100524555D-17
   3   8   3   1 -0.39768319685164D+00  0.45016815722925D-18
   1   9   3   1 -0.83442352556058D-01 -0.25641016668520D-16
   2   9   3   1 -0.83442352556048D-01 -0.41462631702333D-16
   3   9   3   1 -0.16688470511212D+00  0.51744886070746D-16
   1  11   3   1  0.23707675061571D-05  0.00000000000000D+00
   2  11   3   1 -0.36593663470744D-05  0.00000000000000D+00
   3  11   3   1 -0.47752315194864D+02  0.00000000000000D+00
   1   1   1   2 -0.13002997185814D+00  0.00000000000000D+00
   2   1   1   2 -0.65014985929057D-01  0.00000000000000D+00
   3   1   1   2 -0.65014985929061D-01  0.00000000000000D+00
   1   2   1   2  0.38702383867944D+01  0.00000000000000D+00
   2   2   1   2  0.19351191933981D+01  0.00000000000000D+00
   3   2   1   2  0.19351191933984D+01  0.00000000000000D+00
   1   3   1   2 -0.39768319685164D+00 -0.79138629907418D-18
   2   3   1   2 -0.88473374426962D+00 -0.59068620940416D-18
   3   3   1   2 -0.44093957786879D+00  0.11756164632241D-17
   1   4   1   2 -0.39768319685167D+00  0.35268207322135D-17
   2   4   1   2  0.48705054741789D+00  0.71242061800246D-19
   3   4   1   2  0.43256381017134D-01 -0.87846201246056D-18
   1   5   1   2 -0.39768319685166D+00  0.55009709560129D-18
   2   5   1   2 -0.44093957786880D+00  0.29461950358506D-18
   3   5   1   2 -0.88473374426959D+00 -0.25253149738358D-19
   1   6   1   2 -0.39768319685164D+00  0.10868627990041D-17
   2   6   1   2  0.43256381017143D-01  0.70060539551736D-18
   3   6   1   2  0.48705054741793D+00  0.25425638814484D-17
   1   7   1   2 -0.17694674885391D+01  0.46935935267060D-19
   2   7   1   2 -0.88473374426964D+00 -0.73543239557542D-18
   3   7   1   2 -0.88473374426965D+00 -0.46214171603873D-18
   1   8   1   2  0.86512762034221D-01  0.64764951279864D-18
   2   8   1   2  0.43256381017134D-01  0.87086482011225D-18
   3   8   1   2  0.43256381017130D-01  0.11160970398089D-17
   1   9   1   2 -0.16688470511223D+00 -0.32628736314911D-16
   2   9   1   2 -0.83442352556167D-01  0.12336673724985D-16
   3   9   1   2 -0.83442352556141D-01  0.26039624297868D-16
   1  11   1   2 -0.47752307018369D+02  0.00000000000000D+00
   2  11   1   2  0.44449836164328D-05  0.00000000000000D+00
   3  11   1   2 -0.23902316805587D-05  0.00000000000000D+00
   1   1   2   2 -0.65014985929057D-01  0.00000000000000D+00
   2   1   2   2 -0.13002997185814D+00  0.00000000000000D+00
   3   1   2   2 -0.65014985929071D-01  0.00000000000000D+00
   1   2   2   2  0.19351191933979D+01  0.00000000000000D+00
   2   2   2   2  0.38702383867931D+01  0.00000000000000D+00
   3   2   2   2  0.19351191933974D+01  0.00000000000000D+00
   1   3   2   2 -0.88473374426968D+00 -0.59068620940416D-18
   2   3   2   2 -0.17694674885393D+01 -0.80313967965575D-18
   3   3   2   2 -0.88473374426964D+00 -0.30121395261648D-19
   1   4   2   2  0.48705054741791D+00  0.71242061800246D-19
   2   4   2   2 -0.39768319685164D+00  0.36390943789278D-17
   3   4   2   2  0.43256381017141D-01  0.31838431176761D-18
   1   5   2   2 -0.44093957786881D+00  0.29461950358506D-18
   2   5   2   2 -0.39768319685166D+00 -0.32377090854632D-18
   3   5   2   2 -0.88473374426961D+00  0.83543562933336D-18
   1   6   2   2  0.43256381017142D-01  0.70060539551736D-18
   2   6   2   2  0.86512762034233D-01  0.66134146768672D-18
   3   6   2   2  0.43256381017144D-01  0.25884079144109D-18
   1   7   2   2 -0.88473374426958D+00 -0.73543239557542D-18
   2   7   2   2 -0.39768319685164D+00  0.35657732770326D-18
   3   7   2   2 -0.44093957786879D+00 -0.73739593816349D-18
   1   8   2   2  0.43256381017138D-01  0.87086482011225D-18
   2   8   2   2 -0.39768319685164D+00  0.11764610149724D-17
   3   8   2   2  0.48705054741793D+00  0.20446440586372D-17
   1   9   2   2 -0.83442352556165D-01  0.12336673724985D-16
   2   9   2   2 -0.16688470511217D+00  0.74616129789853D-19
   3   9   2   2 -0.83442352556152D-01  0.42398127178530D-16
   1  11   2   2  0.74206191545438D-05  0.00000000000000D+00
   2  11   2   2 -0.47752309994854D+02  0.00000000000000D+00
   3  11   2   2 -0.50529503390074D-05  0.00000000000000D+00
   1   1   3   2 -0.65014985929061D-01  0.00000000000000D+00
   2   1   3   2 -0.65014985929068D-01  0.00000000000000D+00
   3   1   3   2 -0.13002997185812D+00  0.00000000000000D+00
   1   2   3   2  0.19351191933981D+01  0.00000000000000D+00
   2   2   3   2  0.19351191933974D+01  0.00000000000000D+00
   3   2   3   2  0.38702383867926D+01  0.00000000000000D+00
   1   3   3   2 -0.44093957786877D+00  0.11756164632241D-17
   2   3   3   2 -0.88473374426963D+00 -0.30121395261648D-19
   3   3   3   2 -0.39768319685165D+00 -0.10455950587322D-17
   1   4   3   2  0.43256381017129D-01 -0.87846201246056D-18
   2   4   3   2  0.43256381017128D-01  0.31838431176761D-18
   3   4   3   2  0.86512762034243D-01  0.38741550696146D-18
   1   5   3   2 -0.88473374426964D+00 -0.25253149738358D-19
   2   5   3   2 -0.88473374426964D+00  0.83543562933336D-18
   3   5   3   2 -0.17694674885391D+01  0.47076769312845D-18
   1   6   3   2  0.48705054741793D+00  0.25425638814484D-17
   2   6   3   2  0.43256381017154D-01  0.25884079144109D-18
   3   6   3   2 -0.39768319685167D+00  0.13638655155981D-17
   1   7   3   2 -0.88473374426960D+00 -0.46214171603873D-18
   2   7   3   2 -0.44093957786877D+00 -0.73739593816349D-18
   3   7   3   2 -0.39768319685166D+00 -0.10150428453135D-17
   1   8   3   2  0.43256381017141D-01  0.11160970398089D-17
   2   8   3   2  0.48705054741793D+00  0.20446440586372D-17
   3   8   3   2 -0.39768319685166D+00 -0.26734835363821D-18
   1   9   3   2 -0.83442352556140D-01  0.26039624297868D-16
   2   9   3   2 -0.83442352556157D-01  0.42398127178530D-16
   3   9   3   2 -0.16688470511224D+00 -0.50519511992479D-16
   1  11   3   2  0.35943773200967D-05  0.00000000000000D+00
   2  11   3   2 -0.23057867038262D-05  0.00000000000000D+00
   3  11   3   2 -0.47752310303100D+02  0.00000000000000D+00
   1   1   1   3 -0.39768926265386D+00  0.14088109243123D-17
   2   1   1   3  0.43255199815071D-01  0.10226090666991D-17
   3   1   1   3  0.48705984950643D+00  0.74115689429238D-18
   1   2   1   3 -0.39768926265386D+00  0.79138629907418D-18
   2   2   1   3 -0.88474911216035D+00  0.59068620940416D-18
   3   2   1   3 -0.44094446246892D+00 -0.11756164632241D-17
   1   3   1   3  0.11377399999236D+02  0.00000000000000D+00
   2   3   1   3  0.22032049377025D+01  0.00000000000000D+00
   3   3   1   3  0.91741950615339D+01  0.00000000000000D+00
   1   4   1   3 -0.37698869506578D+01  0.56024301246065D-17
   2   4   1   3 -0.19179079086848D+01  0.80922764893006D-18
   3   4   1   3 -0.18519790419729D+01  0.15929716617292D-17
   1   5   1   3  0.52092750667183D+00 -0.34355572975440D-18
   2   5   1   3  0.29342505544571D+00 -0.45380394487461D-19
   3   5   1   3  0.22750245122610D+00 -0.89568776611787D-19
   1   6   1   3 -0.74474299826722D+00 -0.21431622555213D-17
   2   6   1   3 -0.11215141025015D+00  0.63090186328286D-18
   3   6   1   3 -0.63259158801707D+00  0.12888343785593D-17
   1   7   1   3 -0.62737099074351D+00  0.17716162971226D-17
   2   7   1   3  0.12905337866951D+01  0.00000000000000D+00
   3   7   1   3  0.29342818669183D+00  0.00000000000000D+00
   1   8   1   3 -0.62737099074352D+00 -0.12840033176149D-17
   2   8   1   3 -0.92079917743537D+00 -0.32266930575238D-18
   3   8   1   3 -0.19179047774386D+01  0.32640750661054D-18
   1   9   1   3 -0.53438495913070D+01 -0.15112942681181D-17
   2   9   1   3 -0.36974195901880D-01  0.25043366337086D-16
   3   9   1   3 -0.53068753954052D+01 -0.33801167407161D-16
   1  11   1   3 -0.53994841674657D+02  0.00000000000000D+00
   2  11   1   3  0.43728972811717D+01  0.00000000000000D+00
   3  11   1   3 -0.43728994868984D+01  0.00000000000000D+00
   1   1   2   3  0.43255199815079D-01  0.10226090666991D-17
   2   1   2   3  0.86510399630122D-01  0.10039794377168D-17
   3   1   2   3  0.43255199815047D-01  0.90206700542761D-18
   1   2   2   3 -0.88474911216034D+00  0.59068620940416D-18
   2   2   2   3 -0.17694982243207D+01  0.80313967965575D-18
   3   2   2   3 -0.88474911216036D+00  0.30121395261648D-19
   1   3   2   3  0.22032049377024D+01  0.00000000000000D+00
   2   3   2   3  0.44064098754050D+01  0.00000000000000D+00
   3   3   2   3  0.22032049377022D+01  0.00000000000000D+00
   1   4   2   3 -0.18519821732191D+01  0.80922764893006D-18
   2   4   2   3 -0.62737412198966D+00  0.17977997128319D-17
   3   4   2   3 -0.85487344196959D+00 -0.47371903787727D-18
   1   5   2   3  0.22749931997996D+00 -0.45380394487461D-19
   2   5   2   3 -0.62737412198965D+00 -0.60606729496563D-18
   3   5   2   3  0.12246080512294D+01  0.00000000000000D+00
   1   6   2   3 -0.11215141025015D+00  0.63090186328286D-18
   2   6   2   3 -0.22430282050033D+00  0.14060374788982D-17
   3   6   2   3 -0.11215141025016D+00 -0.95807063507386D-18
   1   7   2   3  0.12246080512294D+01  0.00000000000000D+00
   2   7   2   3 -0.62737412198965D+00  0.18460331966290D-17
   3   7   2   3  0.22749931997997D+00  0.27746819882037D-18
   1   8   2   3 -0.85487344196958D+00 -0.32266930575238D-18
   2   8   2   3 -0.62737412198965D+00 -0.29326090289926D-19
   3   8   2   3 -0.18519821732190D+01  0.90217680664308D-18
   1   9   2   3 -0.36974195901866D-01  0.25043366337086D-16
   2   9   2   3 -0.73948391803754D-01  0.96809147270092D-17
   3   9   2   3 -0.36974195901868D-01  0.50347600773850D-16
   1  11   2   3  0.57369096773269D-05  0.00000000000000D+00
   2  11   2   3 -0.49621953153844D+02  0.00000000000000D+00
   3  11   2   3 -0.69232827855833D-05  0.00000000000000D+00
   1   1   3   3  0.48705984950642D+00  0.74115689429238D-18
   2   1   3   3  0.43255199815053D-01  0.90206700542761D-18
   3   1   3   3 -0.39768926265388D+00  0.17424019435131D-18
   1   2   3   3 -0.44094446246892D+00 -0.11756164632241D-17
   2   2   3   3 -0.88474911216033D+00  0.30121395261648D-19
   3   2   3   3 -0.39768926265386D+00  0.10455950587322D-17
   1   3   3   3  0.91741950615338D+01  0.00000000000000D+00
   2   3   3   3  0.22032049377023D+01  0.00000000000000D+00
   3   3   3   3  0.11377399999236D+02  0.00000000000000D+00
   1   4   3   3 -0.19179047774386D+01  0.15929716617292D-17
   2   4   3   3 -0.92079917743536D+00 -0.47371903787727D-18
   3   4   3   3 -0.62737099074351D+00  0.23270726538618D-18
   1   5   3   3  0.29342818669186D+00 -0.89568776611787D-19
   2   5   3   3  0.12905337866952D+01  0.00000000000000D+00
   3   5   3   3 -0.62737099074351D+00  0.94414003667723D-18
   1   6   3   3 -0.63259158801707D+00  0.12888343785593D-17
   2   6   3   3 -0.11215141025016D+00 -0.95807063507386D-18
   3   6   3   3 -0.74474299826722D+00 -0.41534715676625D-17
   1   7   3   3  0.22750245122610D+00  0.00000000000000D+00
   2   7   3   3  0.29342505544570D+00  0.27746819882037D-18
   3   7   3   3  0.52092750667182D+00 -0.44626552862704D-18
   1   8   3   3 -0.18519790419729D+01  0.32640750661054D-18
   2   8   3   3 -0.19179079086847D+01  0.90217680664308D-18
   3   8   3   3 -0.37698869506579D+01 -0.55128811806056D-17
   1   9   3   3 -0.53068753954052D+01 -0.33801167407161D-16
   2   9   3   3 -0.36974195901870D-01  0.50347600773850D-16
   3   9   3   3 -0.53438495913071D+01 -0.17825838018961D-16
   1  11   3   3 -0.43728916806384D+01  0.00000000000000D+00
   2  11   3   3  0.43728929539943D+01  0.00000000000000D+00
   3  11   3   3 -0.53994853628941D+02  0.00000000000000D+00
   1   1   1   4 -0.39768926265386D+00  0.23293993272781D-17
   2   1   1   4 -0.44094446246892D+00 -0.19381043730809D-18
   3   1   1   4 -0.88474911216031D+00  0.33674596240763D-18
   1   2   1   4 -0.39768926265388D+00 -0.35268207322135D-17
   2   2   1   4  0.48705984950648D+00 -0.71242061800246D-19
   3   2   1   4  0.43255199815051D-01  0.87846201246056D-18
   1   3   1   4 -0.37698869506578D+01 -0.56024301246065D-17
   2   3   1   4 -0.18519790419730D+01 -0.80922764893006D-18
   3   3   1   4 -0.19179079086847D+01 -0.15929716617292D-17
   1   4   1   4  0.11377399999236D+02  0.00000000000000D+00
   2   4   1   4  0.91741950615340D+01  0.00000000000000D+00
   3   4   1   4  0.22032049377025D+01  0.00000000000000D+00
   1   5   1   4 -0.74474299826722D+00  0.83861484336929D-18
   2   5   1   4 -0.63259158801706D+00 -0.10713484306355D-17
   3   5   1   4 -0.11215141025016D+00  0.15260433346081D-17
   1   6   1   4  0.52092750667180D+00  0.25858948740057D-18
   2   6   1   4  0.22750245122610D+00 -0.35064732047660D-18
   3   6   1   4  0.29342505544572D+00 -0.17298414216194D-18
   1   7   1   4 -0.62737099074352D+00 -0.75520795096320D-18
   2   7   1   4 -0.19179047774385D+01 -0.93749191606187D-18
   3   7   1   4 -0.92079917743535D+00 -0.23734974316850D-18
   1   8   1   4 -0.62737099074351D+00  0.16849631569904D-17
   2   8   1   4  0.29342818669184D+00 -0.13109943189078D-18
   3   8   1   4  0.12905337866951D+01  0.00000000000000D+00
   1   9   1   4 -0.53438495913073D+01  0.24679627631700D-16
   2   9   1   4 -0.53068753954053D+01  0.21104853703038D-16
   3   9   1   4 -0.36974195902138D-01 -0.10903338758104D-17
   1  11   1   4 -0.53994832435487D+02  0.00000000000000D+00
   2  11   1   4 -0.43728790340374D+01  0.00000000000000D+00
   3  11   1   4  0.43728775432260D+01  0.00000000000000D+00
   1   1   2   4 -0.44094446246890D+00 -0.19381043730809D-18
   2   1   2   4 -0.39768926265387D+00 -0.26984013190613D-18
   3   1   2   4 -0.88474911216028D+00 -0.10014627711105D-17
   1   2   2   4  0.48705984950645D+00 -0.71242061800246D-19
   2   2   2   4 -0.39768926265385D+00 -0.36390943789278D-17
   3   2   2   4  0.43255199815063D-01 -0.31838431176761D-18
   1   3   2   4 -0.19179047774387D+01 -0.80922764893006D-18
   2   3   2   4 -0.62737099074352D+00 -0.17977997128319D-17
   3   3   2   4 -0.92079917743535D+00  0.47371903787727D-18
   1   4   2   4  0.91741950615339D+01  0.00000000000000D+00
   2   4   2   4  0.11377399999236D+02  0.00000000000000D+00
   3   4   2   4  0.22032049377022D+01  0.00000000000000D+00
   1   5   2   4 -0.63259158801706D+00 -0.10713484306355D-17
   2   5   2   4 -0.74474299826723D+00 -0.18716084008886D-18
   3   5   2   4 -0.11215141025015D+00 -0.14073815300361D-18
   1   6   2   4  0.29342818669185D+00 -0.35064732047660D-18
   2   6   2   4 -0.62737099074350D+00 -0.89202501755879D-18
   3   6   2   4  0.12905337866951D+01  0.00000000000000D+00
   1   7   2   4 -0.18519790419728D+01 -0.93749191606187D-18
   2   7   2   4 -0.37698869506578D+01 -0.18322343551113D-17
   3   7   2   4 -0.19179079086847D+01 -0.12597095143543D-17
   1   8   2   4  0.22750245122609D+00 -0.13109943189078D-18
   2   8   2   4  0.52092750667182D+00 -0.23177255237827D-18
   3   8   2   4  0.29342505544572D+00  0.15977286264872D-18
   1   9   2   4 -0.53068753954053D+01  0.21104853703038D-16
   2   9   2   4 -0.53438495913072D+01  0.10853701787707D-15
   3   9   2   4 -0.36974195902131D-01 -0.43598957595312D-16
   1  11   2   4 -0.43728775145031D+01  0.00000000000000D+00
   2  11   2   4 -0.53994833589366D+02  0.00000000000000D+00
   3  11   2   4  0.43728754827915D+01  0.00000000000000D+00
   1   1   3   4 -0.88474911216033D+00  0.33674596240763D-18
   2   1   3   4 -0.88474911216029D+00 -0.10014627711105D-17
   3   1   3   4 -0.17694982243208D+01  0.65725235522657D-18
   1   2   3   4  0.43255199815052D-01  0.87846201246056D-18
   2   2   3   4  0.43255199815067D-01 -0.31838431176761D-18
   3   2   3   4  0.86510399630168D-01 -0.38741550696146D-18
   1   3   3   4 -0.18519821732190D+01 -0.15929716617292D-17
   2   3   3   4 -0.85487344196959D+00  0.47371903787727D-18
   3   3   3   4 -0.62737412198965D+00 -0.23270726538618D-18
   1   4   3   4  0.22032049377025D+01  0.00000000000000D+00
   2   4   3   4  0.22032049377024D+01  0.00000000000000D+00
   3   4   3   4  0.44064098754044D+01  0.00000000000000D+00
   1   5   3   4 -0.11215141025016D+00  0.15260433346081D-17
   2   5   3   4 -0.11215141025016D+00 -0.14073815300361D-18
   3   5   3   4 -0.22430282050033D+00 -0.33832243600270D-18
   1   6   3   4  0.22749931997997D+00 -0.17298414216194D-18
   2   6   3   4  0.12246080512295D+01  0.00000000000000D+00
   3   6   3   4 -0.62737412198967D+00 -0.18067098021022D-18
   1   7   3   4 -0.85487344196959D+00 -0.23734974316850D-18
   2   7   3   4 -0.18519821732190D+01 -0.12597095143543D-17
   3   7   3   4 -0.62737412198964D+00 -0.86633062793200D-18
   1   8   3   4  0.12246080512294D+01  0.00000000000000D+00
   2   8   3   4  0.22749931997996D+00  0.15977286264872D-18
   3   8   3   4 -0.62737412198967D+00  0.36670701845304D-18
   1   9   3   4 -0.36974195902150D-01 -0.10903338758104D-17
   2   9   3   4 -0.36974195902141D-01 -0.43598957595312D-16
   3   9   3   4 -0.73948391803903D-01 -0.68937945071300D-17
   1  11   3   4  0.13262634485159D-05  0.00000000000000D+00
   2  11   3   4 -0.23559588338493D-05  0.00000000000000D+00
   3  11   3   4 -0.49621955004480D+02  0.00000000000000D+00
   1   1   1   5 -0.39768926265387D+00  0.16740821810366D-18
   2   1   1   5  0.48705984950647D+00 -0.55794596634984D-18
   3   1   1   5  0.43255199815075D-01 -0.57563210857334D-18
   1   2   1   5 -0.39768926265387D+00 -0.55009709560129D-18
   2   2   1   5 -0.44094446246894D+00 -0.29461950358506D-18
   3   2   1   5 -0.88474911216033D+00  0.25253149738358D-19
   1   3   1   5  0.52092750667181D+00  0.34355572975440D-18
   2   3   1   5  0.22750245122609D+00  0.45380394487461D-19
   3   3   1   5  0.29342505544573D+00  0.89568776611787D-19
   1   4   1   5 -0.74474299826722D+00 -0.83861484336929D-18
   2   4   1   5 -0.63259158801706D+00  0.10713484306355D-17
   3   4   1   5 -0.11215141025015D+00 -0.15260433346081D-17
   1   5   1   5  0.11377399999236D+02  0.00000000000000D+00
   2   5   1   5  0.91741950615340D+01  0.00000000000000D+00
   3   5   1   5  0.22032049377021D+01  0.00000000000000D+00
   1   6   1   5 -0.37698869506579D+01  0.25830066213731D-17
   2   6   1   5 -0.18519790419730D+01 -0.18365938016241D-17
   3   6   1   5 -0.19179079086848D+01 -0.92445684640593D-18
   1   7   1   5 -0.62737099074352D+00  0.20295689868392D-17
   2   7   1   5  0.29342818669184D+00  0.32377903925571D-18
   3   7   1   5  0.12905337866952D+01  0.00000000000000D+00
   1   8   1   5 -0.62737099074352D+00 -0.13152466671451D-17
   2   8   1   5 -0.19179047774387D+01 -0.47265251500956D-19
   3   8   1   5 -0.92079917743535D+00 -0.14989902040808D-18
   1   9   1   5 -0.53438495913069D+01 -0.12922397453800D-15
   2   9   1   5 -0.53068753954051D+01 -0.21779091254953D-16
   3   9   1   5 -0.36974195901790D-01 -0.11851542981230D-17
   1  11   1   5 -0.53994830960486D+02  0.00000000000000D+00
   2  11   1   5 -0.43728883743547D+01  0.00000000000000D+00
   3  11   1   5  0.43728898651613D+01  0.00000000000000D+00
   1   1   2   5  0.48705984950644D+00 -0.55794596634984D-18
   2   1   2   5 -0.39768926265388D+00  0.36297631805935D-17
   3   1   2   5  0.43255199815064D-01  0.92170905325383D-18
   1   2   2   5 -0.44094446246892D+00 -0.29461950358506D-18
   2   2   2   5 -0.39768926265387D+00  0.32377090854632D-18
   3   2   2   5 -0.88474911216036D+00 -0.83543562933336D-18
   1   3   2   5  0.29342818669184D+00  0.45380394487461D-19
   2   3   2   5 -0.62737099074352D+00  0.60606729496563D-18
   3   3   2   5  0.12905337866951D+01  0.00000000000000D+00
   1   4   2   5 -0.63259158801706D+00  0.10713484306355D-17
   2   4   2   5 -0.74474299826723D+00  0.18716084008886D-18
   3   4   2   5 -0.11215141025015D+00  0.14073815300361D-18
   1   5   2   5  0.91741950615339D+01  0.00000000000000D+00
   2   5   2   5  0.11377399999235D+02  0.00000000000000D+00
   3   5   2   5  0.22032049377020D+01  0.00000000000000D+00
   1   6   2   5 -0.19179047774387D+01 -0.18365938016241D-17
   2   6   2   5 -0.62737099074353D+00 -0.11198986650999D-18
   3   6   2   5 -0.92079917743536D+00  0.11687198995662D-17
   1   7   2   5  0.22750245122609D+00  0.32377903925571D-18
   2   7   2   5  0.52092750667179D+00 -0.18935141931031D-18
   3   7   2   5  0.29342505544572D+00  0.16196561267698D-18
   1   8   2   5 -0.18519790419730D+01 -0.47265251500956D-19
   2   8   2   5 -0.37698869506578D+01 -0.25866622350982D-17
   3   8   2   5 -0.19179079086848D+01  0.13611997145985D-17
   1   9   2   5 -0.53068753954051D+01 -0.21779091254953D-16
   2   9   2   5 -0.53438495913069D+01 -0.49727870173150D-17
   3   9   2   5 -0.36974195901788D-01  0.41318706327298D-16
   1  11   2   5 -0.43728893560429D+01  0.00000000000000D+00
   2  11   2   5 -0.53994830344456D+02  0.00000000000000D+00
   3  11   2   5  0.43728913877520D+01  0.00000000000000D+00
   1   1   3   5  0.43255199815077D-01 -0.57563210857334D-18
   2   1   3   5  0.43255199815071D-01  0.92170905325383D-18
   3   1   3   5  0.86510399630132D-01  0.70367879797632D-18
   1   2   3   5 -0.88474911216035D+00  0.25253149738358D-19
   2   2   3   5 -0.88474911216037D+00 -0.83543562933336D-18
   3   2   3   5 -0.17694982243206D+01 -0.47076769312845D-18
   1   3   3   5  0.22749931997998D+00  0.89568776611787D-19
   2   3   3   5  0.12246080512294D+01  0.00000000000000D+00
   3   3   3   5 -0.62737412198966D+00 -0.94414003667723D-18
   1   4   3   5 -0.11215141025016D+00 -0.15260433346081D-17
   2   4   3   5 -0.11215141025016D+00  0.14073815300361D-18
   3   4   3   5 -0.22430282050033D+00  0.33832243600270D-18
   1   5   3   5  0.22032049377021D+01  0.00000000000000D+00
   2   5   3   5  0.22032049377022D+01  0.00000000000000D+00
   3   5   3   5  0.44064098754042D+01  0.00000000000000D+00
   1   6   3   5 -0.18519821732190D+01 -0.92445684640593D-18
   2   6   3   5 -0.85487344196960D+00  0.11687198995662D-17
   3   6   3   5 -0.62737412198966D+00 -0.13140739109922D-17
   1   7   3   5  0.12246080512294D+01  0.00000000000000D+00
   2   7   3   5  0.22749931997997D+00  0.16196561267698D-18
   3   7   3   5 -0.62737412198965D+00  0.10536666307408D-17
   1   8   3   5 -0.85487344196959D+00 -0.14989902040808D-18
   2   8   3   5 -0.18519821732190D+01  0.13611997145985D-17
   3   8   3   5 -0.62737412198964D+00 -0.17505472324370D-17
   1   9   3   5 -0.36974195901806D-01 -0.11851542981230D-17
   2   9   3   5 -0.36974195901802D-01  0.41318706327298D-16
   3   9   3   5 -0.73948391803814D-01  0.15936338386827D-17
   1  11   3   5 -0.78841670651808D-06  0.00000000000000D+00
   2  11   3   5  0.18181150743107D-05  0.00000000000000D+00
   3  11   3   5 -0.49621941520959D+02  0.00000000000000D+00
   1   1   1   6 -0.39768926265386D+00 -0.19287095999724D-18
   2   1   1   6 -0.88474911216028D+00 -0.14843724704712D-18
   3   1   1   6 -0.44094446246892D+00 -0.51685834285367D-18
   1   2   1   6 -0.39768926265386D+00 -0.10868627990041D-17
   2   2   1   6  0.43255199815060D-01 -0.70060539551736D-18
   3   2   1   6  0.48705984950643D+00 -0.25425638814484D-17
   1   3   1   6 -0.74474299826722D+00  0.21431622555213D-17
   2   3   1   6 -0.11215141025015D+00 -0.63090186328286D-18
   3   3   1   6 -0.63259158801707D+00 -0.12888343785593D-17
   1   4   1   6  0.52092750667182D+00 -0.25858948740057D-18
   2   4   1   6  0.29342505544571D+00  0.35064732047660D-18
   3   4   1   6  0.22750245122609D+00  0.17298414216194D-18
   1   5   1   6 -0.37698869506579D+01 -0.25830066213731D-17
   2   5   1   6 -0.19179079086849D+01  0.18365938016241D-17
   3   5   1   6 -0.18519790419729D+01  0.92445684640593D-18
   1   6   1   6  0.11377399999237D+02  0.00000000000000D+00
   2   6   1   6  0.22032049377027D+01  0.00000000000000D+00
   3   6   1   6  0.91741950615339D+01  0.00000000000000D+00
   1   7   1   6 -0.62737099074352D+00 -0.14572302903584D-17
   2   7   1   6 -0.92079917743536D+00 -0.14822150875211D-17
   3   7   1   6 -0.19179047774386D+01  0.18192564148969D-17
   1   8   1   6 -0.62737099074352D+00 -0.20089016906169D-18
   2   8   1   6  0.12905337866951D+01  0.00000000000000D+00
   3   8   1   6  0.29342818669184D+00 -0.21944718687968D-18
   1   9   1   6 -0.53438495913071D+01  0.26647358776195D-17
   2   9   1   6 -0.36974195902104D-01 -0.24032822619443D-16
   3   9   1   6 -0.53068753954053D+01  0.34770429503264D-16
   1  11   1   6 -0.53994860056790D+02  0.00000000000000D+00
   2  11   1   6  0.43728748796806D+01  0.00000000000000D+00
   3  11   1   6 -0.43728726739563D+01  0.00000000000000D+00
   1   1   2   6 -0.88474911216028D+00 -0.14843724704712D-18
   2   1   2   6 -0.17694982243207D+01 -0.45963502030887D-18
   3   1   2   6 -0.88474911216039D+00  0.63032607301921D-18
   1   2   2   6  0.43255199815068D-01 -0.70060539551736D-18
   2   2   2   6  0.86510399630122D-01 -0.66134146768672D-18
   3   2   2   6  0.43255199815079D-01 -0.25884079144109D-18
   1   3   2   6 -0.11215141025015D+00 -0.63090186328286D-18
   2   3   2   6 -0.22430282050033D+00 -0.14060374788982D-17
   3   3   2   6 -0.11215141025016D+00  0.95807063507386D-18
   1   4   2   6  0.22749931997996D+00  0.35064732047660D-18
   2   4   2   6 -0.62737412198963D+00  0.89202501755879D-18
   3   4   2   6  0.12246080512294D+01  0.00000000000000D+00
   1   5   2   6 -0.18519821732191D+01  0.18365938016241D-17
   2   5   2   6 -0.62737412198966D+00  0.11198986650999D-18
   3   5   2   6 -0.85487344196960D+00 -0.11687198995662D-17
   1   6   2   6  0.22032049377025D+01  0.00000000000000D+00
   2   6   2   6  0.44064098754051D+01  0.00000000000000D+00
   3   6   2   6  0.22032049377024D+01  0.00000000000000D+00
   1   7   2   6 -0.85487344196957D+00 -0.14822150875211D-17
   2   7   2   6 -0.62737412198965D+00 -0.16653996811340D-17
   3   7   2   6 -0.18519821732190D+01  0.15706058219180D-17
   1   8   2   6  0.12246080512294D+01  0.00000000000000D+00
   2   8   2   6 -0.62737412198964D+00 -0.10759258370157D-17
   3   8   2   6  0.22749931997998D+00 -0.12009356128402D-18
   1   9   2   6 -0.36974195902093D-01 -0.24032822619443D-16
   2   9   2   6 -0.73948391803984D-01 -0.83972772133337D-17
   3   9   2   6 -0.36974195902108D-01 -0.49340232519795D-16
   1  11   2   6 -0.14715583250709D-04  0.00000000000000D+00
   2  11   2   6 -0.49621967438079D+02  0.00000000000000D+00
   3  11   2   6  0.15901956358799D-04  0.00000000000000D+00
   1   1   3   6 -0.44094446246892D+00 -0.51685834285367D-18
   2   1   3   6 -0.88474911216036D+00  0.63032607301921D-18
   3   1   3   6 -0.39768926265385D+00  0.24163071797333D-18
   1   2   3   6  0.48705984950641D+00 -0.25425638814484D-17
   2   2   3   6  0.43255199815085D-01 -0.25884079144109D-18
   3   2   3   6 -0.39768926265388D+00 -0.13638655155981D-17
   1   3   3   6 -0.63259158801707D+00 -0.12888343785593D-17
   2   3   3   6 -0.11215141025016D+00  0.95807063507386D-18
   3   3   3   6 -0.74474299826722D+00  0.41534715676625D-17
   1   4   3   6  0.29342818669185D+00  0.17298414216194D-18
   2   4   3   6  0.12905337866952D+01  0.00000000000000D+00
   3   4   3   6 -0.62737099074353D+00  0.18067098021022D-18
   1   5   3   6 -0.19179047774387D+01  0.92445684640593D-18
   2   5   3   6 -0.92079917743537D+00 -0.11687198995662D-17
   3   5   3   6 -0.62737099074352D+00  0.13140739109922D-17
   1   6   3   6  0.91741950615339D+01  0.00000000000000D+00
   2   6   3   6  0.22032049377024D+01  0.00000000000000D+00
   3   6   3   6  0.11377399999236D+02  0.00000000000000D+00
   1   7   3   6 -0.18519790419729D+01  0.18192564148969D-17
   2   7   3   6 -0.19179079086847D+01  0.15706058219180D-17
   3   7   3   6 -0.37698869506580D+01 -0.10953535765286D-16
   1   8   3   6  0.22750245122610D+00 -0.21944718687968D-18
   2   8   3   6  0.29342505544571D+00 -0.12009356128402D-18
   3   8   3   6  0.52092750667182D+00 -0.41001703990930D-18
   1   9   3   6 -0.53068753954052D+01  0.34770429503264D-16
   2   9   3   6 -0.36974195902113D-01 -0.49340232519795D-16
   3   9   3   6 -0.53438495913072D+01  0.18979279684655D-16
   1  11   3   6 -0.43728894588882D+01  0.00000000000000D+00
   2  11   3   6  0.43728881855346D+01  0.00000000000000D+00
   3  11   3   6 -0.53994839123839D+02  0.00000000000000D+00
   1   1   1   7  0.86510399630114D-01  0.33085761008816D-19
   2   1   1   7  0.43255199815079D-01 -0.26740704591706D-19
   3   1   1   7  0.43255199815050D-01  0.21692849459547D-18
   1   2   1   7 -0.17694982243206D+01 -0.46935935267060D-19
   2   2   1   7 -0.88474911216031D+00  0.73543239557542D-18
   3   2   1   7 -0.88474911216033D+00  0.46214171603873D-18
   1   3   1   7 -0.62737412198965D+00 -0.17716162971226D-17
   2   3   1   7  0.12246080512294D+01  0.00000000000000D+00
   3   3   1   7  0.22749931997997D+00  0.00000000000000D+00
   1   4   1   7 -0.62737412198966D+00  0.75520795096320D-18
   2   4   1   7 -0.18519821732190D+01  0.93749191606187D-18
   3   4   1   7 -0.85487344196961D+00  0.23734974316850D-18
   1   5   1   7 -0.62737412198966D+00 -0.20295689868392D-17
   2   5   1   7  0.22749931997995D+00 -0.32377903925571D-18
   3   5   1   7  0.12246080512294D+01  0.00000000000000D+00
   1   6   1   7 -0.62737412198966D+00  0.14572302903584D-17
   2   6   1   7 -0.85487344196959D+00  0.14822150875211D-17
   3   6   1   7 -0.18519821732190D+01 -0.18192564148969D-17
   1   7   1   7  0.44064098754053D+01  0.00000000000000D+00
   2   7   1   7  0.22032049377022D+01  0.00000000000000D+00
   3   7   1   7  0.22032049377023D+01  0.00000000000000D+00
   1   8   1   7 -0.22430282050032D+00  0.60284611092693D-18
   2   8   1   7 -0.11215141025016D+00  0.72141176006163D-18
   3   8   1   7 -0.11215141025016D+00 -0.14441958134413D-17
   1   9   1   7 -0.73948391803903D-01  0.14753148074942D-16
   2   9   1   7 -0.36974195901887D-01 -0.43494993233992D-16
   3   9   1   7 -0.36974195901891D-01  0.12504272620537D-16
   1  11   1   7 -0.49621970169407D+02  0.00000000000000D+00
   2  11   1   7  0.12297303766051D-04  0.00000000000000D+00
   3  11   1   7 -0.15846989521638D-04  0.00000000000000D+00
   1   1   2   7  0.43255199815079D-01 -0.26740704591706D-19
   2   1   2   7 -0.39768926265384D+00 -0.63249054372923D-18
   3   1   2   7  0.48705984950647D+00 -0.65211891213707D-19
   1   2   2   7 -0.88474911216035D+00  0.73543239557542D-18
   2   2   2   7 -0.39768926265386D+00 -0.35657732770326D-18
   3   2   2   7 -0.44094446246892D+00  0.73739593816349D-18
   1   3   2   7  0.12905337866952D+01  0.00000000000000D+00
   2   3   2   7 -0.62737099074351D+00 -0.18460331966290D-17
   3   3   2   7  0.29342818669183D+00 -0.27746819882037D-18
   1   4   2   7 -0.19179079086847D+01  0.93749191606187D-18
   2   4   2   7 -0.37698869506578D+01  0.18322343551113D-17
   3   4   2   7 -0.18519790419729D+01  0.12597095143543D-17
   1   5   2   7  0.29342505544571D+00 -0.32377903925571D-18
   2   5   2   7  0.52092750667182D+00  0.18935141931031D-18
   3   5   2   7  0.22750245122609D+00 -0.16196561267698D-18
   1   6   2   7 -0.92079917743536D+00  0.14822150875211D-17
   2   6   2   7 -0.62737099074352D+00  0.16653996811340D-17
   3   6   2   7 -0.19179047774386D+01 -0.15706058219180D-17
   1   7   2   7  0.22032049377022D+01  0.00000000000000D+00
   2   7   2   7  0.11377399999237D+02  0.00000000000000D+00
   3   7   2   7  0.91741950615337D+01  0.00000000000000D+00
   1   8   2   7 -0.11215141025015D+00  0.72141176006163D-18
   2   8   2   7 -0.74474299826724D+00 -0.12081234182442D-17
   3   8   2   7 -0.63259158801707D+00  0.24555176599063D-18
   1   9   2   7 -0.36974195901877D-01 -0.43494993233992D-16
   2   9   2   7 -0.53438495913071D+01  0.75331384212538D-16
   3   9   2   7 -0.53068753954052D+01  0.41833027425361D-16
   1  11   2   7  0.43728975445288D+01  0.00000000000000D+00
   2  11   2   7 -0.53994852409858D+02  0.00000000000000D+00
   3  11   2   7 -0.43728990281509D+01  0.00000000000000D+00
   1   1   3   7  0.43255199815051D-01  0.21692849459547D-18
   2   1   3   7  0.48705984950646D+00 -0.65211891213707D-19
   3   1   3   7 -0.39768926265387D+00  0.28060451756655D-17
   1   2   3   7 -0.88474911216037D+00  0.46214171603873D-18
   2   2   3   7 -0.44094446246892D+00  0.73739593816349D-18
   3   2   3   7 -0.39768926265388D+00  0.10150428453135D-17
   1   3   3   7  0.29342505544570D+00  0.00000000000000D+00
   2   3   3   7  0.22750245122610D+00 -0.27746819882037D-18
   3   3   3   7  0.52092750667182D+00  0.44626552862704D-18
   1   4   3   7 -0.92079917743535D+00  0.23734974316850D-18
   2   4   3   7 -0.19179047774386D+01  0.12597095143543D-17
   3   4   3   7 -0.62737099074350D+00  0.86633062793200D-18
   1   5   3   7  0.12905337866952D+01  0.00000000000000D+00
   2   5   3   7  0.29342818669185D+00 -0.16196561267698D-18
   3   5   3   7 -0.62737099074351D+00 -0.10536666307408D-17
   1   6   3   7 -0.19179079086847D+01 -0.18192564148969D-17
   2   6   3   7 -0.18519790419729D+01 -0.15706058219180D-17
   3   6   3   7 -0.37698869506580D+01  0.10953535765286D-16
   1   7   3   7  0.22032049377021D+01  0.00000000000000D+00
   2   7   3   7  0.91741950615338D+01  0.00000000000000D+00
   3   7   3   7  0.11377399999236D+02  0.00000000000000D+00
   1   8   3   7 -0.11215141025016D+00 -0.14441958134413D-17
   2   8   3   7 -0.63259158801706D+00  0.24555176599063D-18
   3   8   3   7 -0.74474299826723D+00 -0.10069494018116D-17
   1   9   3   7 -0.36974195901891D-01  0.12504272620537D-16
   2   9   3   7 -0.53068753954051D+01  0.41833027425361D-16
   3   9   3   7 -0.53438495913070D+01  0.68693521040565D-16
   1  11   3   7  0.43728870688902D+01  0.00000000000000D+00
   2  11   3   7 -0.43728828149346D+01  0.00000000000000D+00
   3  11   3   7 -0.53994875652063D+02  0.00000000000000D+00
   1   1   1   8 -0.17694982243207D+01 -0.67907069388231D-18
   2   1   1   8 -0.88474911216026D+00  0.72091700158048D-18
   3   1   1   8 -0.88474911216031D+00  0.99580783466383D-18
   1   2   1   8  0.86510399630107D-01 -0.64764951279864D-18
   2   2   1   8  0.43255199815057D-01 -0.87086482011225D-18
   3   2   1   8  0.43255199815068D-01 -0.11160970398089D-17
   1   3   1   8 -0.62737412198966D+00  0.12840033176149D-17
   2   3   1   8 -0.85487344196960D+00  0.32266930575238D-18
   3   3   1   8 -0.18519821732191D+01 -0.32640750661054D-18
   1   4   1   8 -0.62737412198964D+00 -0.16849631569904D-17
   2   4   1   8  0.22749931997995D+00  0.13109943189078D-18
   3   4   1   8  0.12246080512294D+01  0.00000000000000D+00
   1   5   1   8 -0.62737412198965D+00  0.13152466671451D-17
   2   5   1   8 -0.18519821732191D+01  0.47265251500956D-19
   3   5   1   8 -0.85487344196961D+00  0.14989902040808D-18
   1   6   1   8 -0.62737412198966D+00  0.20089016906169D-18
   2   6   1   8  0.12246080512294D+01  0.00000000000000D+00
   3   6   1   8  0.22749931997997D+00  0.21944718687968D-18
   1   7   1   8 -0.22430282050032D+00 -0.60284611092693D-18
   2   7   1   8 -0.11215141025016D+00 -0.72141176006163D-18
   3   7   1   8 -0.11215141025016D+00  0.14441958134413D-17
   1   8   1   8  0.44064098754053D+01  0.00000000000000D+00
   2   8   1   8  0.22032049377025D+01  0.00000000000000D+00
   3   8   1   8  0.22032049377025D+01  0.00000000000000D+00
   1   9   1   8 -0.73948391803967D-01 -0.20069496079631D-16
   2   9   1   8 -0.36974195902115D-01  0.41213637998195D-16
   3   9   1   8 -0.36974195902122D-01 -0.14791184918445D-16
   1  11   1   8 -0.49621975739358D+02  0.00000000000000D+00
   2  11   1   8 -0.11819460740551D-04  0.00000000000000D+00
   3  11   1   8  0.15369143528315D-04  0.00000000000000D+00
[...]
   1   5   1   6 -0.17012656139754D+01  0.20817744674486D+01
   2   5   1   6 -0.93735211041328D+00  0.10271674704920D+01
   3   5   1   6 -0.76391350356214D+00  0.10546069969566D+01
   1   6   1   6  0.11875617614789D+02  0.27006194622571D-05
   2   6   1   6  0.23720104834491D+01  0.27006194616809D-05
   3   6   1   6  0.95036071313392D+01  0.89836101560179D-15
   1   7   1   6 -0.31539844541871D+00 -0.28503829699752D+00
   2   7   1   6 -0.52652360763870D+00 -0.49243220723072D+00
   3   7   1   6 -0.92980159463040D+00 -0.10313206236933D+01
   1   8   1   6 -0.31539844541872D+00 -0.28503829699753D+00
   2   8   1   6  0.61440314921165D+00  0.74628232669584D+00
   3   8   1   6  0.21112516221998D+00  0.20739391023321D+00
   1   9   1   6  0.55966913750901D+01 -0.13867809049086D+00
   2   9   1   6  0.20308239182492D+00 -0.13866116085217D+00
   3   9   1   6  0.53936089832653D+01 -0.16929638668323D-04
   1   1   2   6 -0.13513467937995D+00  0.57972406358857D-05
   2   1   2   6  0.57156832383006D-13  0.11489611629266D-13
   3   1   2   6 -0.13513467937997D+00  0.57972406444654D-05
   1   2   2   6  0.80890733377554D-01 -0.84214865217072D-05
   2   2   2   6 -0.41726988849768D-14 -0.28599611724501D-13
   3   2   2   6  0.80890733377562D-01 -0.84214865338557D-05
   1   3   2   6  0.97746458997400D-01  0.58884843511953D-02
   2   3   2   6  0.19549291799480D+00 -0.54323552501680D-14
   3   3   2   6  0.97746458997402D-01 -0.58884843512033D-02
   1   4   2   6  0.37686928646285D-01 -0.23487462343027D+00
   2   4   2   6 -0.32294858792416D+00  0.28084395706366D+00
   3   4   2   6  0.44850853147193D+00 -0.76957277568142D+00
   1   5   2   6 -0.77145711939613D+00  0.10504167327451D+01
   2   5   2   6 -0.32294858792416D+00  0.28084395706368D+00
   3   5   2   6 -0.36063551657045D+00  0.51571858049395D+00
   1   6   2   6  0.23720104834491D+01  0.27006194616809D-05
   2   6   2   6  0.47440209668995D+01  0.69623136960672D-15
   3   6   2   6  0.23720104834501D+01 -0.27006194594020D-05
   1   7   2   6 -0.36063574605576D+00 -0.51571528688851D+00
   2   7   2   6 -0.32295254007908D+00 -0.28089907079447D+00
   3   7   2   6 -0.77146782770786D+00 -0.10504644771480D+01
   1   8   2   6  0.44851528762870D+00  0.76956540635361D+00
   2   8   2   6 -0.32295254007910D+00 -0.28089907079445D+00
   3   8   2   6  0.37683205976641D-01  0.23481621609407D+00
   1   9   2   6  0.20308239182491D+00 -0.13866116085217D+00
   2   9   2   6  0.40624326124654D+00  0.18391837714663D-05
   3   9   2   6  0.20316086942186D+00  0.13866300003594D+00
   1   1   3   6 -0.23655693567975D+00  0.60099943532636D-01
   2   1   3   6 -0.33796502469164D+00  0.44505065171062D-05
   3   1   3   6 -0.23655118987842D+00 -0.14098042916304D+00
   1   2   3   6  0.14098487966957D+00  0.10141383481323D+00
   2   2   3   6  0.20108037269569D+00  0.57458013338145D-05
   3   2   3   6  0.14098042916304D+00 -0.23655118987845D+00
   1   3   3   6  0.70217560203213D+00 -0.38388770540669D-14
   2   3   3   6  0.97746458997402D-01 -0.58884843512041D-02
   3   3   3   6  0.79992206102954D+00 -0.58884843512130D-02
   1   4   3   6  0.21112553549741D+00 -0.20743509696568D+00
   2   4   3   6  0.61440352248906D+00 -0.74632351342831D+00
   3   4   3   6 -0.31540497209017D+00  0.28503422127516D+00
   1   5   3   6 -0.92980849457927D+00  0.10313577347035D+01
   2   5   3   6 -0.52653050758759D+00  0.49246931824084D+00
   3   5   3   6 -0.31540497209017D+00  0.28503422127515D+00
   1   6   3   6  0.95036071313391D+01  0.89836101560179D-15
   2   6   3   6  0.23720104834498D+01 -0.27006194594020D-05
   3   6   3   6  0.11875617614789D+02 -0.27006194594319D-05
   1   7   3   6 -0.76391373304747D+00 -0.10546037033511D+01
   2   7   3   6 -0.93735568929079D+00 -0.10271813974903D+01
   3   7   3   6 -0.17012694223383D+01 -0.20817851008414D+01
   1   8   3   6  0.45237300637043D-01  0.23067698989099D+00
   2   8   3   6  0.20357106755959D+00  0.21153313643629D+00
   3   8   3   6  0.24880836819662D+00  0.44221012632728D+00
   1   9   3   6  0.53936089832653D+01 -0.16929638668232D-04
   2   9   3   6  0.20316086942186D+00  0.13866300003594D+00
   3   9   3   6  0.55967698526871D+01  0.13864607039728D+00
   1   1   1   7  0.51237789831887D-01  0.51237789831910D-01
   2   1   1   7  0.55897947677543D-02  0.59106817149305D-01
   3   1   1   7 -0.78690273173923D-02  0.45647995064150D-01
   1   2   1   7 -0.76051866742948D+00  0.76052071089510D+00
   2   2   1   7 -0.43849134209171D+00  0.30887035333735D+00
   3   2   1   7 -0.45165743984302D+00  0.32203645108866D+00
   1   3   1   7 -0.31540674359819D+00 -0.28502641834152D+00
   2   3   1   7  0.44850856954931D+00  0.76956805986659D+00
   3   3   1   7  0.45230582557646D-01  0.23067964340399D+00
   1   4   1   7 -0.60263375953990D-01 -0.27124301571685D-01
   2   4   1   7  0.26102898536508D+00 -0.16570236581226D-01
   3   4   1   7  0.16014930961221D+00  0.15691177651638D-14
   1   5   1   7 -0.60263375954001D-01  0.27124301571681D-01
   2   5   1   7 -0.22041268556619D+00  0.27124301571699D-01
   3   5   1   7 -0.32129236131909D+00  0.10554064990456D-01
   1   6   1   7 -0.31540021692675D+00  0.28503049406389D+00
   2   6   1   7 -0.36063755564115D+00  0.51570276814007D+00
   3   6   1   7 -0.76391554263285D+00  0.10545911846027D+01
   1   7   1   7  0.47650595767373D+01 -0.10137551948012D-14
   2   7   1   7  0.24270931086612D+01  0.32071371858632D-01
   3   7   1   7  0.23379664680768D+01  0.32071371858633D-01
   1   8   1   7 -0.20574265046989D+00 -0.63947390991463D-15
   2   8   1   7 -0.93867956645347D-01 -0.11734183185386D-01
   3   8   1   7 -0.11187791770659D+00 -0.11734183185401D-01
   1   9   1   7 -0.52307779942116D-05 -0.54259232275522D+00
   2   9   1   7  0.24643012556941D-01 -0.35081781207980D+00
   3   9   1   7  0.24653309788408D-01 -0.19178515309771D+00
   1   1   2   7 -0.49103614521400D-01  0.87175306601984D-01
   2   1   2   7  0.36471457301139D+00  0.23940448754744D+00
   3   1   2   7 -0.17766422762477D+00  0.78210519823401D-02
   1   2   2   7 -0.54239405394952D+00  0.23160073234412D+00
   2   2   2   7 -0.36472688223981D+00  0.23941655738328D+00
   3   2   2   7 -0.41383049676121D+00  0.15224125078130D+00
   1   3   2   7  0.61441090003293D+00  0.74635445235379D+00
   2   3   2   7 -0.32295934041493D+00 -0.28085467866592D+00
   3   3   2   7  0.20358031622452D+00  0.21163777556680D+00
   1   4   2   7  0.14098414614476D+00  0.16570236581229D-01
   2   4   2   7  0.40201313150987D+00  0.71286116908788D-14
   3   4   2   7  0.26102898536513D+00  0.16570236581233D-01
   1   5   2   7 -0.10036784634586D+00  0.27124301571695D-01
   2   5   2   7 -0.32078053191204D+00  0.36699924413821D-14
   3   5   2   7 -0.22041268556618D+00  0.27124301571693D-01
   1   6   2   7 -0.52653275669057D+00  0.49245534322261D+00
   2   6   2   7 -0.32296329256987D+00  0.28090979239671D+00
   3   6   2   7 -0.93737381932542D+00  0.10272230580180D+01
   1   7   2   7  0.24270931086610D+01 -0.32109992394444D-01
   2   7   2   7  0.12124473745143D+02  0.95117920426735D-15
   3   7   2   7  0.96973806364819D+01 -0.32109992394442D-01
   1   8   2   7 -0.93864732763323D-01 -0.11734465424672D-01
   2   8   2   7 -0.89368831260668D+00  0.13791699860820D-13
   3   8   2   7 -0.79982035596136D+00 -0.11734465424673D-01
   1   9   2   7 -0.45313790456156D+00 -0.35082094919157D+00
   2   9   2   7 -0.26644102184445D-04 -0.57422138545943D+01
   3   9   2   7 -0.45314902065428D+00 -0.53914098220487D+01
   1   1   3   7 -0.35937516770069D-01  0.10034140435330D+00
   2   1   3   7 -0.73769686795067D-01 -0.69456740039001D-01
   3   1   3   7  0.14437222346392D+00  0.45947849182535D+00
   1   2   3   7 -0.52893523186434D+00  0.21814191025896D+00
   2   2   3   7 -0.35913708747206D+00  0.18030974023397D+00
   3   2   3   7 -0.45947849182535D+00  0.14437222346391D+00
   1   3   3   7  0.21113291304126D+00  0.20746603589119D+00
   2   3   3   7  0.37677985740904D-01  0.23485138307959D+00
   3   3   3   7  0.24881089878216D+00  0.44231741897080D+00
   1   4   3   7  0.40104470391882D-01  0.14580954627013D-14
   2   4   3   7  0.14098414614480D+00 -0.16570236581222D-01
   3   4   3   7 -0.60263375953936D-01  0.27124301571684D-01
   1   5   3   7 -0.20124752209876D+00  0.43694538152907D-01
   2   5   3   7 -0.10036784634585D+00  0.27124301571697D-01
   3   5   3   7 -0.60263375953962D-01  0.27124301571686D-01
   1   6   3   7 -0.92981074368228D+00  0.10313437596852D+01
   2   6   3   7 -0.77147861827600D+00  0.10504704829355D+01
   3   6   3   7 -0.17012893619583D+01  0.20818142426207D+01
   1   7   3   7  0.23379664680767D+01 -0.32109992394443D-01
   2   7   3   7  0.96973806364820D+01  0.32071371858634D-01
   3   7   3   7  0.12035347104559D+02 -0.38620535808266D-04
   1   8   3   7 -0.11187469382457D+00 -0.11734465424687D-01
   2   8   3   7 -0.79982357984338D+00 -0.11734183185387D-01
   3   8   3   7 -0.91169827366794D+00 -0.23468648610073D-01
   1   9   3   7 -0.45312760733009D+00 -0.19178829020948D+00
   2   9   3   7  0.24631896464217D-01 -0.53914066849369D+01
   3   9   3   7 -0.42849571086587D+00 -0.55831949751465D+01
   1   1   1   8 -0.76052071089510D+00 -0.76051866742951D+00
   2   1   1   8 -0.43848425980637D+00 -0.30886122758650D+00
   3   1   1   8 -0.45165035755772D+00 -0.32202732533780D+00
   1   2   1   8  0.51237789831888D-01 -0.51237789831929D-01
   2   2   1   8  0.55897947677468D-02 -0.59106817149302D-01
   3   2   1   8 -0.78690273174264D-02 -0.45647995064189D-01
   1   3   1   8 -0.31540674359818D+00 -0.28502641834154D+00
   2   3   1   8 -0.36063732615583D+00 -0.51570606174552D+00
   3   3   1   8 -0.76391531314752D+00 -0.10545944782081D+01
   1   4   1   8 -0.60263375954020D-01 -0.27124301571682D-01
   2   4   1   8 -0.22041268556622D+00 -0.27124301571683D-01
   3   4   1   8 -0.32129236131915D+00 -0.10554064990456D-01
   1   5   1   8 -0.60263375953974D-01  0.27124301571685D-01
   2   5   1   8  0.26102898536514D+00  0.16570236581225D-01
   3   5   1   8  0.16014930961220D+00  0.74978475673041D-16
   1   6   1   8 -0.31540021692675D+00  0.28503049406389D+00
   2   6   1   8  0.44851532570606D+00 -0.76956069053882D+00
   3   6   1   8  0.45237338714399D-01 -0.23067227407620D+00
   1   7   1   8 -0.20574265046989D+00  0.63253501601072D-15
   2   7   1   8 -0.93864732763322D-01  0.11734183185386D-01
   3   7   1   8 -0.11187469382457D+00  0.11734183185401D-01
   1   8   1   8  0.47650595767374D+01  0.68583500399195D-15
   2   8   1   8  0.24270931086601D+01 -0.32071371858632D-01
   3   8   1   8  0.23379664680758D+01 -0.32071371858632D-01
   1   9   1   8 -0.52307779738943D-05 -0.54259232275527D+00
   2   9   1   8 -0.24658540566382D-01 -0.35080716965756D+00
   3   9   1   8 -0.24648243334934D-01 -0.19177451067549D+00
   1   1   2   8 -0.54237880063608D+00 -0.23158343556517D+00
   2   1   2   8 -0.36471457301138D+00 -0.23940448754746D+00
   3   1   2   8 -0.41381818753277D+00 -0.15222918094549D+00
   1   2   2   8 -0.49103614521403D-01 -0.87175306601975D-01
   2   2   2   8  0.36472688223980D+00 -0.23941655738329D+00
   3   2   2   8 -0.17766717170971D+00 -0.78158250392271D-02
   1   3   2   8 -0.52653965663944D+00 -0.49249245423272D+00
   2   3   2   8 -0.32295934041493D+00 -0.28085467866593D+00
   3   3   2   8 -0.93737024044790D+00 -0.10272091310197D+01
   1   4   2   8 -0.10036784634589D+00 -0.27124301571680D-01
   2   4   2   8 -0.32078053191210D+00 -0.21950560486529D-14
   3   4   2   8 -0.22041268556620D+00 -0.27124301571685D-01
   1   5   2   8  0.14098414614482D+00 -0.16570236581230D-01
   2   5   2   8  0.40201313150992D+00 -0.86894246304793D-14
   3   5   2   8  0.26102898536511D+00 -0.16570236581234D-01
   1   6   2   8  0.61441052675548D+00 -0.74631326562135D+00
   2   6   2   8 -0.32296329256988D+00  0.28090979239669D+00
   3   6   2   8  0.20356946412066D+00 -0.21154555082594D+00
   1   7   2   8 -0.93867956645342D-01  0.11734465424672D-01
   2   7   2   8 -0.89368831260668D+00 -0.13798638754724D-13
   3   7   2   8 -0.79982357984338D+00  0.11734465424673D-01
   1   8   2   8  0.24270931086601D+01  0.32109992394444D-01
   2   8   2   8  0.12124473745143D+02 -0.12588155403463D-14
   3   8   2   8  0.96973806364808D+01  0.32109992394443D-01
   1   9   2   8  0.45312237655211D+00 -0.35080403254581D+00
   2   9   2   8 -0.26644102203309D-04 -0.57422138545944D+01
   3   9   2   8  0.45311126045935D+00 -0.53913929054029D+01
   1   1   3   8 -0.52891997855095D+00 -0.21812461348001D+00
   2   1   3   8 -0.35912477824361D+00 -0.18029767039818D+00
   3   1   3   8 -0.45946618259694D+00 -0.14436015362808D+00
   1   2   3   8 -0.35937516770109D-01 -0.10034140435334D+00
   2   2   3   8 -0.73764459851921D-01  0.69453795953999D-01
   3   2   3   8  0.14436015362807D+00 -0.45946618259694D+00
   1   3   3   8 -0.92981764363115D+00 -0.10313808706953D+01
   2   3   3   8 -0.77146790996428D+00 -0.10504227385325D+01
   3   3   3   8 -0.17012855535955D+01 -0.20818036092278D+01
   1   4   3   8 -0.20124752209882D+00 -0.43694538152907D-01
   2   4   3   8 -0.10036784634587D+00 -0.27124301571688D-01
   3   4   3   8 -0.60263375953986D-01 -0.27124301571686D-01
   1   5   3   8  0.40104470391872D-01  0.29702308059807D-15
   2   5   3   8  0.14098414614478D+00  0.16570236581221D-01
   3   5   3   8 -0.60263375953989D-01 -0.27124301571683D-01
   1   6   3   8  0.21113253976382D+00 -0.20742484915873D+00
   2   6   3   8  0.37674263071245D-01 -0.23479297574340D+00
   3   6   3   8  0.24880680283506D+00 -0.44221782490213D+00
   1   7   3   8 -0.11187791770659D+00  0.11734465424687D-01
   2   7   3   8 -0.79982035596136D+00  0.11734183185387D-01
   3   7   3   8 -0.91169827366794D+00  0.23468648610073D-01
   1   8   3   8  0.23379664680757D+01  0.32109992394444D-01
   2   8   3   8  0.96973806364809D+01 -0.32071371858633D-01
   3   8   3   8  0.12035347104557D+02  0.38620535810160D-04
   1   9   3   8  0.45313267378356D+00 -0.19177137356374D+00
   2   9   3   8 -0.24669656659138D-01 -0.53913960425147D+01
   3   9   3   8  0.42846301712441D+00 -0.55831674160783D+01
   1   1   1   9 -0.89191140220519D+00  0.89192096355723D+00
   2   1   1   9 -0.95131116826748D+00  0.30580410045989D-05
   3   1   1   9 -0.89191446024613D+00 -0.59390204710255D-01
   1   2   1   9  0.89192096355728D+00  0.89191140220516D+00
   2   2   1   9  0.95131116826749D+00 -0.30580409951316D-05
   3   2   1   9  0.89191790551622D+00 -0.59399766062331D-01
   1   3   1   9 -0.55967814246114D+01  0.13863795352322D+00
   2   3   1   9 -0.20314345026747D+00  0.13864804535486D+00
   3   3   1   9 -0.53936379743439D+01 -0.10091831635945D-04
   1   4   1   9  0.42847333483369D+00 -0.55839941763243D+01
   2   4   1   9  0.45312571263548D+00 -0.53922153999682D+01
   3   4   1   9 -0.24652377801771D-01 -0.19177877635623D+00
   1   5   1   9 -0.42847065948337D+00 -0.55839317559818D+01
   2   5   1   9 -0.45311686610419D+00 -0.53921815700057D+01
   3   5   1   9  0.24646206620825D-01 -0.19175018597588D+00
   1   6   1   9  0.55967493572475D+01  0.13866441487678D+00
   2   6   1   9  0.20311138290362D+00  0.13865432304514D+00
   3   6   1   9  0.53936379743440D+01  0.10091831631848D-04
   1   7   1   9 -0.41260505509098D-05  0.54256162131426D+00
   2   7   1   9 -0.45312850101084D+00  0.35081405512923D+00
   3   7   1   9 -0.45311820377938D+00  0.19178139614714D+00
   1   8   1   9 -0.41260505305925D-05  0.54256162131431D+00
   2   8   1   9  0.45311407772885D+00  0.35078022516716D+00
   3   8   1   9  0.45312437496029D+00  0.19174756618510D+00
   1   9   1   9  0.20920283176912D+02 -0.47358941263432D-04
   2   9   1   9  0.10402684568390D+02 -0.15786313754660D-04
   3   9   1   9  0.10517598608521D+02 -0.31572627508824D-04
   1   1   2   9 -0.83252119749488D+00  0.65033110577184D-05
   2   1   2   9 -0.57999313077786D-14 -0.89983976923074D-15
   3   1   2   9 -0.83252119749486D+00  0.65033110649366D-05
   1   2   2   9  0.83252119749491D+00 -0.65033110486952D-05
   2   2   2   9  0.52742056385542D-13 -0.70434836766542D-14
   3   2   2   9  0.83252119749494D+00 -0.65033110741141D-05
   1   3   2   9 -0.20314345026746D+00  0.13864804535486D+00
   2   3   2   9 -0.40625483317092D+00 -0.62776902961474D-05
   3   3   2   9 -0.20311138290337D+00 -0.13865432304515D+00
   1   4   2   9 -0.24644868945660D-01 -0.53922127801771D+01
   2   4   2   9  0.11634906673437D-04 -0.57429956251352D+01
   3   4   2   9 -0.24642080570267D-01 -0.35081143533830D+00
   1   5   2   9  0.24653715476942D-01 -0.53921841897969D+01
   2   5   2   9  0.11634906667400D-04 -0.57429956251350D+01
   3   5   2   9  0.24656503852325D-01 -0.35078284495801D+00
   1   6   2   9  0.20311138290361D+00  0.13865432304513D+00
   2   6   2   9  0.40625483317109D+00  0.62776903060687D-05
   3   6   2   9  0.20314345026772D+00 -0.13864804535483D+00
   1   7   2   9  0.24642080570295D-01  0.35081143533809D+00
   2   7   2   9 -0.11634906643352D-04  0.57429956251350D+01
   3   7   2   9  0.24644868945667D-01  0.53922127801769D+01
   1   8   2   9 -0.24656503852295D-01  0.35078284495832D+00
   2   8   2   9 -0.11634906662216D-04  0.57429956251352D+01
   3   8   2   9 -0.24653715476949D-01  0.53921841897971D+01
   1   9   2   9  0.10402684568391D+02 -0.15786313754660D-04
   2   9   2   9  0.20805369136780D+02 -0.31572627508919D-04
   3   9   2   9  0.10402684568390D+02 -0.15786313755107D-04
   1   1   3   9 -0.89191790551620D+00  0.59399766062337D-01
   2   1   3   9 -0.95131116826746D+00  0.30580410113476D-05
   3   1   3   9 -0.89192096355722D+00 -0.89191140220514D+00
   1   2   3   9  0.89191446024618D+00  0.59390204710263D-01
   2   2   3   9  0.95131116826754D+00 -0.30580410209192D-05
   3   2   3   9  0.89191140220520D+00 -0.89192096355727D+00
   1   3   3   9 -0.53936379743439D+01 -0.10091831635743D-04
   2   3   3   9 -0.20311138290339D+00 -0.13865432304515D+00
   3   3   3   9 -0.55967493572474D+01 -0.13866441487680D+00
   1   4   3   9  0.45311820377937D+00 -0.19178139614737D+00
   2   4   3   9  0.45312850101087D+00 -0.35081405512944D+00
   3   4   3   9  0.41260505519401D-05 -0.54256162131424D+00
   1   5   3   9 -0.45312437496031D+00 -0.19174756618473D+00
   2   5   3   9 -0.45311407772881D+00 -0.35078022516687D+00
   3   5   3   9  0.41260505453183D-05 -0.54256162131421D+00
   1   6   3   9  0.53936379743440D+01  0.10091831631757D-04
   2   6   3   9  0.20314345026772D+00 -0.13864804535482D+00
   3   6   3   9  0.55967814246117D+01 -0.13863795352320D+00
   1   7   3   9  0.24652377801764D-01  0.19177877635599D+00
   2   7   3   9 -0.45312571263547D+00  0.53922153999680D+01
   3   7   3   9 -0.42847333483371D+00  0.55839941763241D+01
   1   8   3   9 -0.24646206620845D-01  0.19175018597624D+00
   2   8   3   9  0.45311686610418D+00  0.53921815700060D+01
   3   8   3   9  0.42847065948333D+00  0.55839317559821D+01
   1   9   3   9  0.10517598608522D+02 -0.31572627508824D-04
   2   9   3   9  0.10402684568391D+02 -0.15786313755107D-04
   3   9   3   9  0.20920283176912D+02 -0.47358941263173D-04

 List of bloks and their characteristics 
  
 2nd derivatives (non-stat.)  - # elements :     906
 qpt  0.00000000E+00  0.00000000E+00  0.00000000E+00   1.0
  
 2nd derivatives (non-stat.)  - # elements :     729
 qpt  2.50000000E-01  0.00000000E+00  0.00000000E+00   1.0
  
 2nd derivatives (non-stat.)  - # elements :     729
 qpt  5.00000000E-01  0.00000000E+00  0.00000000E+00   1.0
  
 2nd derivatives (non-stat.)  - # elements :     729
 qpt  2.50000000E-01  2.50000000E-01  0.00000000E+00   1.0
  
 2nd derivatives (non-stat.)  - # elements :     729
 qpt  5.00000000E-01  2.50000000E-01  0.00000000E+00   1.0
  
 2nd derivatives (non-stat.)  - # elements :     729
 qpt -2.50000000E-01  2.50000000E-01  0.00000000E+00   1.0
  
 2nd derivatives (non-stat.)  - # elements :     729
 qpt  5.00000000E-01  5.00000000E-01  0.00000000E+00   1.0
  
 2nd derivatives (non-stat.)  - # elements :     729
 qpt -2.50000000E-01  5.00000000E-01  2.50000000E-01   1.0
