
.Version 9.2.2 of ABINIT 
.(MPI version, prepared for a x86_64_linux_gnu9.3 computer) 

.Copyright (C) 1998-2020 ABINIT group . 
 ABINIT comes with ABSOLUTELY NO WARRANTY.
 It is free software, and you are welcome to redistribute it
 under certain conditions (GNU General Public License,
 see ~abinit/COPYING or http://www.gnu.org/copyleft/gpl.txt).

 ABINIT is a project of the Universite Catholique de Louvain,
 Corning Inc. and other collaborators, see ~abinit/doc/developers/contributors.txt .
 Please read https://docs.abinit.org/theory/acknowledgments for suggested
 acknowledgments of the ABINIT effort.
 For more information, see https://www.abinit.org .

.Starting date : Sat  5 Nov 2022.
- ( at 11h43 )
  
- input  file    -> Cs2TiI6.in
- output file    -> Cs2TiI6.out
- root for input  files -> Cs2TiI6i
- root for output files -> Cs2TiI6o

- inpspheads : Reading pseudopotential header in XML form from 
-   ../../../Psps_for_tests/ATOMICDATA/Cs.GGA_PBE-JTH.xml
- inpspheads : Reading pseudopotential header in XML form from 
-   ../../../Psps_for_tests/ATOMICDATA/I.GGA_PBE-JTH.xml
- inpspheads : Reading pseudopotential header in XML form from 
-   ../../../Psps_for_tests/ATOMICDATA/Hf.GGA_PBE-JTH.xml
- inpspheads : Reading pseudopotential header in XML form from 
-   ../../../Psps_for_tests/ATOMICDATA/Cl.GGA_PBE-JTH.xml

 DATASET    1 : space group I4 m m (#107); Bravais tI (body-center tetrag.)
================================================================================
 Values of the parameters that define the memory need for DATASET  1.
     intxc =       0    ionmov =       2      iscf =      17    lmnmax =      18
     lnmax =       6     mgfft =      64  mpssoang =       3    mqgrid =    4031
     natom =       9  nloc_mem =       2    nspden =       1   nspinor =       1
    nsppol =       1      nsym =       8    n1xccc =       1    ntypat =       4
    occopt =       1   xclevel =       2
-    mband =          42        mffmem =           1         mkmem =           4
       mpw =       11301          nfft =      262144          nkpt =          20
Pmy_natom=         2
 PAW method is used; the additional fine FFT grid is defined by:
   mgfftf=       100    nfftf =   1000000
================================================================================
P This job should need less than                     331.633 Mbytes of memory.
  Rough estimation (10% accuracy) of disk space for files :
_ WF disk file :    144.851 Mbytes ; DEN or POT disk file :      7.631 Mbytes.
================================================================================


 DATASET    2 : space group I4 m m (#107); Bravais tI (body-center tetrag.)
================================================================================
 Values of the parameters that define the memory need for DATASET  2.
     intxc =       0    ionmov =       2      iscf =      17    lmnmax =      18
     lnmax =       6     mgfft =      64  mpssoang =       3    mqgrid =    4027
     natom =       9  nloc_mem =       2    nspden =       1   nspinor =       1
    nsppol =       1      nsym =       8    n1xccc =       1    ntypat =       4
    occopt =       1   xclevel =       2
-    mband =          42        mffmem =           1         mkmem =           4
       mpw =       11270          nfft =      262144          nkpt =          20
Pmy_natom=         2
 PAW method is used; the additional fine FFT grid is defined by:
   mgfftf=       100    nfftf =   1000000
================================================================================
P This job should need less than                     331.609 Mbytes of memory.
  Rough estimation (10% accuracy) of disk space for files :
_ WF disk file :    144.454 Mbytes ; DEN or POT disk file :      7.631 Mbytes.
================================================================================


 DATASET    3 : space group I4 m m (#107); Bravais tI (body-center tetrag.)
================================================================================
 Values of the parameters that define the memory need for DATASET  3.
     intxc =       0    ionmov =       2      iscf =      17    lmnmax =      18
     lnmax =       6     mgfft =      64  mpssoang =       3    mqgrid =    4023
     natom =       9  nloc_mem =       2    nspden =       1   nspinor =       1
    nsppol =       1      nsym =       8    n1xccc =       1    ntypat =       4
    occopt =       1   xclevel =       2
-    mband =          42        mffmem =           1         mkmem =           4
       mpw =       11237          nfft =      262144          nkpt =          20
Pmy_natom=         2
 PAW method is used; the additional fine FFT grid is defined by:
   mgfftf=       100    nfftf =   1000000
================================================================================
P This job should need less than                     331.580 Mbytes of memory.
  Rough estimation (10% accuracy) of disk space for files :
_ WF disk file :    144.031 Mbytes ; DEN or POT disk file :      7.631 Mbytes.
================================================================================


 DATASET    4 : space group I4 m m (#107); Bravais tI (body-center tetrag.)
================================================================================
 Values of the parameters that define the memory need for DATASET  4.
     intxc =       0    ionmov =       2      iscf =      17    lmnmax =      18
     lnmax =       6     mgfft =      64  mpssoang =       3    mqgrid =    4019
     natom =       9  nloc_mem =       2    nspden =       1   nspinor =       1
    nsppol =       1      nsym =       8    n1xccc =       1    ntypat =       4
    occopt =       1   xclevel =       2
-    mband =          42        mffmem =           1         mkmem =           4
       mpw =       11208          nfft =      262144          nkpt =          20
Pmy_natom=         2
 PAW method is used; the additional fine FFT grid is defined by:
   mgfftf=       100    nfftf =   1000000
================================================================================
P This job should need less than                     331.562 Mbytes of memory.
  Rough estimation (10% accuracy) of disk space for files :
_ WF disk file :    143.659 Mbytes ; DEN or POT disk file :      7.631 Mbytes.
================================================================================


 DATASET    5 : space group I4 m m (#107); Bravais tI (body-center tetrag.)
================================================================================
 Values of the parameters that define the memory need for DATASET  5.
     intxc =       0    ionmov =       2      iscf =      17    lmnmax =      18
     lnmax =       6     mgfft =      64  mpssoang =       3    mqgrid =    4015
     natom =       9  nloc_mem =       2    nspden =       1   nspinor =       1
    nsppol =       1      nsym =       8    n1xccc =       1    ntypat =       4
    occopt =       1   xclevel =       2
-    mband =          42        mffmem =           1         mkmem =           4
       mpw =       11190          nfft =      262144          nkpt =          20
Pmy_natom=         2
 PAW method is used; the additional fine FFT grid is defined by:
   mgfftf=       100    nfftf =   1000000
================================================================================
P This job should need less than                     331.577 Mbytes of memory.
  Rough estimation (10% accuracy) of disk space for files :
_ WF disk file :    143.429 Mbytes ; DEN or POT disk file :      7.631 Mbytes.
================================================================================


 DATASET    6 : space group I4 m m (#107); Bravais tI (body-center tetrag.)
================================================================================
 Values of the parameters that define the memory need for DATASET  6.
     intxc =       0    ionmov =       2      iscf =      17    lmnmax =      18
     lnmax =       6     mgfft =      64  mpssoang =       3    mqgrid =    4011
     natom =       9  nloc_mem =       2    nspden =       1   nspinor =       1
    nsppol =       1      nsym =       8    n1xccc =       1    ntypat =       4
    occopt =       1   xclevel =       2
-    mband =          42        mffmem =           1         mkmem =           4
       mpw =       11158          nfft =      262144          nkpt =          20
Pmy_natom=         2
 PAW method is used; the additional fine FFT grid is defined by:
   mgfftf=       100    nfftf =   1000000
================================================================================
P This job should need less than                     331.550 Mbytes of memory.
  Rough estimation (10% accuracy) of disk space for files :
_ WF disk file :    143.018 Mbytes ; DEN or POT disk file :      7.631 Mbytes.
================================================================================


 DATASET    7 : space group I4 m m (#107); Bravais tI (body-center tetrag.)
================================================================================
 Values of the parameters that define the memory need for DATASET  7.
     intxc =       0    ionmov =       2      iscf =      17    lmnmax =      18
     lnmax =       6     mgfft =      64  mpssoang =       3    mqgrid =    4007
     natom =       9  nloc_mem =       2    nspden =       1   nspinor =       1
    nsppol =       1      nsym =       8    n1xccc =       1    ntypat =       4
    occopt =       1   xclevel =       2
-    mband =          42        mffmem =           1         mkmem =           4
       mpw =       11109          nfft =      262144          nkpt =          20
Pmy_natom=         2
 PAW method is used; the additional fine FFT grid is defined by:
   mgfftf=       100    nfftf =   1000000
================================================================================
P This job should need less than                     331.476 Mbytes of memory.
  Rough estimation (10% accuracy) of disk space for files :
_ WF disk file :    142.390 Mbytes ; DEN or POT disk file :      7.631 Mbytes.
================================================================================


 DATASET    8 : space group I4 m m (#107); Bravais tI (body-center tetrag.)
================================================================================
 Values of the parameters that define the memory need for DATASET  8.
     intxc =       0    ionmov =       2      iscf =      17    lmnmax =      18
     lnmax =       6     mgfft =      64  mpssoang =       3    mqgrid =    4003
     natom =       9  nloc_mem =       2    nspden =       1   nspinor =       1
    nsppol =       1      nsym =       8    n1xccc =       1    ntypat =       4
    occopt =       1   xclevel =       2
-    mband =          42        mffmem =           1         mkmem =           4
       mpw =       11082          nfft =      262144          nkpt =          20
Pmy_natom=         2
 PAW method is used; the additional fine FFT grid is defined by:
   mgfftf=       100    nfftf =   1000000
================================================================================
P This job should need less than                     331.465 Mbytes of memory.
  Rough estimation (10% accuracy) of disk space for files :
_ WF disk file :    142.044 Mbytes ; DEN or POT disk file :      7.631 Mbytes.
================================================================================


 DATASET    9 : space group I4 m m (#107); Bravais tI (body-center tetrag.)
================================================================================
 Values of the parameters that define the memory need for DATASET  9.
     intxc =       0    ionmov =       2      iscf =      17    lmnmax =      18
     lnmax =       6     mgfft =      64  mpssoang =       3    mqgrid =    3999
     natom =       9  nloc_mem =       2    nspden =       1   nspinor =       1
    nsppol =       1      nsym =       8    n1xccc =       1    ntypat =       4
    occopt =       1   xclevel =       2
-    mband =          42        mffmem =           1         mkmem =           4
       mpw =       11034          nfft =      262144          nkpt =          20
Pmy_natom=         2
 PAW method is used; the additional fine FFT grid is defined by:
   mgfftf=       100    nfftf =   1000000
================================================================================
P This job should need less than                     331.394 Mbytes of memory.
  Rough estimation (10% accuracy) of disk space for files :
_ WF disk file :    141.429 Mbytes ; DEN or POT disk file :      7.631 Mbytes.
================================================================================


 DATASET   10 : space group I4 m m (#107); Bravais tI (body-center tetrag.)
================================================================================
 Values of the parameters that define the memory need for DATASET 10.
     intxc =       0    ionmov =       2      iscf =      17    lmnmax =      18
     lnmax =       6     mgfft =      64  mpssoang =       3    mqgrid =    3995
     natom =       9  nloc_mem =       2    nspden =       1   nspinor =       1
    nsppol =       1      nsym =       8    n1xccc =       1    ntypat =       4
    occopt =       1   xclevel =       2
-    mband =          42        mffmem =           1         mkmem =           4
       mpw =       11001          nfft =      262144          nkpt =          20
Pmy_natom=         2
 PAW method is used; the additional fine FFT grid is defined by:
   mgfftf=       100    nfftf =   1000000
================================================================================
P This job should need less than                     331.366 Mbytes of memory.
  Rough estimation (10% accuracy) of disk space for files :
_ WF disk file :    141.006 Mbytes ; DEN or POT disk file :      7.631 Mbytes.
================================================================================

--------------------------------------------------------------------------------
------------- Echo of variables that govern the present computation ------------
--------------------------------------------------------------------------------
-
- outvars: echo of selected default values                                      
-   iomode0 =  0 , fftalg0 =112 , wfoptalg0 = 10
-
- outvars: echo of global parameters not present in the input file              
-  max_nthreads =    0
-
 -outvars: echo values of preprocessed input variables --------
            acell1     1.5017081802E+01  1.5213546564E+01  1.5017081802E+01 Bohr
            acell2     1.5002049688E+01  1.5198317788E+01  1.5002049688E+01 Bohr
            acell3     1.4987017574E+01  1.5183089013E+01  1.4987017574E+01 Bohr
            acell4     1.4971985460E+01  1.5167860238E+01  1.4971985460E+01 Bohr
            acell5     1.4956953346E+01  1.5152631462E+01  1.4956953346E+01 Bohr
            acell6     1.4941921233E+01  1.5137402687E+01  1.4941921233E+01 Bohr
            acell7     1.4926889119E+01  1.5122173912E+01  1.4926889119E+01 Bohr
            acell8     1.4911857005E+01  1.5106945136E+01  1.4911857005E+01 Bohr
            acell9     1.4896824891E+01  1.5091716361E+01  1.4896824891E+01 Bohr
            acell10    1.4881792777E+01  1.5076487586E+01  1.4881792777E+01 Bohr
              amu      1.32905430E+02  1.26904470E+02  1.78490000E+02
                       3.54527000E+01
           diemac      1.20000000E+01
          dilatmx      1.15000000E+00
             ecut      1.60000000E+01 Hartree
           ecutsm      5.00000000E-01 Hartree
-          fftalg         112
          getxred1          0
          getxred2         -1
          getxred3         -1
          getxred4         -1
          getxred5         -1
          getxred6         -1
          getxred7         -1
          getxred8         -1
          getxred9         -1
          getxred10        -1
           ionmov           2
              ixc     -101130
           jdtset        1    2    3    4    5    6    7    8    9   10
              kpt      0.00000000E+00 -1.25000000E-01  0.00000000E+00
                       0.00000000E+00 -3.75000000E-01  0.00000000E+00
                       1.25000000E-01 -2.50000000E-01  0.00000000E+00
                       1.25000000E-01 -1.25000000E-01  1.25000000E-01
                       1.25000000E-01  5.00000000E-01  0.00000000E+00
                       2.50000000E-01 -3.75000000E-01  0.00000000E+00
                       1.25000000E-01 -3.75000000E-01  1.25000000E-01
                       2.50000000E-01 -2.50000000E-01  1.25000000E-01
                       2.50000000E-01 -1.25000000E-01  2.50000000E-01
                       1.25000000E-01  2.50000000E-01  0.00000000E+00
                       2.50000000E-01  3.75000000E-01  0.00000000E+00
                       3.75000000E-01  5.00000000E-01  0.00000000E+00
                       1.25000000E-01  3.75000000E-01  1.25000000E-01
                       2.50000000E-01  5.00000000E-01  1.25000000E-01
                       3.75000000E-01 -3.75000000E-01  1.25000000E-01
                       2.50000000E-01 -3.75000000E-01  2.50000000E-01
                       3.75000000E-01 -2.50000000E-01  2.50000000E-01
                       3.75000000E-01 -1.25000000E-01  3.75000000E-01
                       5.00000000E-01  2.50000000E-01  1.25000000E-01
                      -3.75000000E-01  3.75000000E-01  1.25000000E-01
         kptrlatt        4    4   -4     -4    4    4      4   -4    4
          kptrlen1     8.38233366E+01
          kptrlen2     8.37394294E+01
          kptrlen3     8.36555221E+01
          kptrlen4     8.35716149E+01
          kptrlen5     8.34877077E+01
          kptrlen6     8.34038004E+01
          kptrlen7     8.33198932E+01
          kptrlen8     8.32359859E+01
          kptrlen9     8.31520787E+01
          kptrlen10    8.30681714E+01
P           mkmem           4
            natom           9
            nband          42
           ndtset          10
            ngfft          64      64      64
          ngfftdg         100     100     100
             nkpt          20
            nstep        2500
             nsym           8
            ntime        1000
           ntypat           4
              occ      2.000000  2.000000  2.000000  2.000000  2.000000  2.000000
                       2.000000  2.000000  2.000000  2.000000  2.000000  2.000000
                       2.000000  2.000000  2.000000  2.000000  2.000000  2.000000
                       2.000000  2.000000  2.000000  2.000000  2.000000  2.000000
                       2.000000  2.000000  2.000000  2.000000  2.000000  2.000000
                       2.000000  2.000000  2.000000  2.000000  2.000000  2.000000
                       0.000000  0.000000  0.000000  0.000000  0.000000  0.000000
          optcell           3
        optforces           1
        pawecutdg      4.00000000E+01 Hartree
            prtwf           0
            rprim      0.0000000000E+00  6.9773323591E-01  7.1635768405E-01
                       7.0710678119E-01  0.0000000000E+00  7.0710678119E-01
                       7.1635768405E-01  6.9773323591E-01  0.0000000000E+00
           shiftk     -5.00000000E-01  5.00000000E-01  5.00000000E-01
          spgroup         107
           symrel      1  0  0   0  1  0   0  0  1       0  0  1   0  1  0   1  0  0
                       0 -1  1   0 -1  0   1 -1  0       1 -1  0   0 -1  0   0 -1  1
                       0 -1  1  -1  0  1   0  0  1       0  0  1  -1  0  1   0 -1  1
                       1  0  0   1  0 -1   1 -1  0       1 -1  0   1  0 -1   1  0  0
           toldff      1.00000000E-08
           tolmxf      1.00000000E-05
            typat      1  1  4  2  2  2  2  2  3
           useylm           1
              wtk        0.03125    0.03125    0.06250    0.03125    0.06250    0.06250
                         0.03125    0.06250    0.03125    0.06250    0.06250    0.06250
                         0.03125    0.06250    0.06250    0.03125    0.06250    0.03125
                         0.06250    0.06250
           xangst1     2.8463388831E+00  2.7531133420E+00  2.8463388831E+00
                       8.5390166494E+00  8.2977882541E+00  8.5390166494E+00
                       5.6926777662E+00  8.5860792707E+00  5.6926777662E+00
                       5.6926777662E+00  5.5327187728E+00  2.8429214905E+00
                       5.6926777663E+00  5.5327187728E+00  8.5424340420E+00
                       5.6926777663E+00  2.7561897943E+00  5.6926777663E+00
                       8.5424340420E+00  5.5327187728E+00  5.6926777663E+00
                       2.8429214905E+00  5.5327187728E+00  5.6926777662E+00
                       7.8022568510E-13 -8.8752877777E-02  7.8022568510E-13
           xangst2     2.8434896951E+00  2.7503574728E+00  2.8434896951E+00
                       8.5304690852E+00  8.2894821597E+00  8.5304690852E+00
                       5.6869793901E+00  8.5774845967E+00  5.6869793901E+00
                       5.6869793901E+00  5.5271805158E+00  2.8400757233E+00
                       5.6869793902E+00  5.5271805158E+00  8.5338830570E+00
                       5.6869793902E+00  2.7534308456E+00  5.6869793902E+00
                       8.5338830570E+00  5.5271805158E+00  5.6869793902E+00
                       2.8400757233E+00  5.5271805158E+00  5.6869793901E+00
                       7.7945618571E-13 -8.8664036057E-02  7.7945618571E-13
           xangst3     2.8406405070E+00  2.7476016036E+00  2.8406405070E+00
                       8.5219215210E+00  8.2811760654E+00  8.5219215210E+00
                       5.6812810140E+00  8.5688899228E+00  5.6812810140E+00
                       5.6812810140E+00  5.5216422587E+00  2.8372299560E+00
                       5.6812810140E+00  5.5216422587E+00  8.5253320720E+00
                       5.6812810140E+00  2.7506718968E+00  5.6812810140E+00
                       8.5253320720E+00  5.5216422587E+00  5.6812810140E+00
                       2.8372299560E+00  5.5216422587E+00  5.6812810140E+00
                       7.7865228780E-13 -8.8575194338E-02  7.7865228780E-13
           xangst4     2.8377913189E+00  2.7448457344E+00  2.8377913189E+00
                       8.5133739568E+00  8.2728699710E+00  8.5133739568E+00
                       5.6755826378E+00  8.5602952488E+00  5.6755826378E+00
                       5.6755826378E+00  5.5161040017E+00  2.8343841887E+00
                       5.6755826379E+00  5.5161040017E+00  8.5167810870E+00
                       5.6755826379E+00  2.7479129481E+00  5.6755826379E+00
                       8.5167810870E+00  5.5161040017E+00  5.6755826379E+00
                       2.8343841887E+00  5.5161040017E+00  5.6755826378E+00
                       7.7787778665E-13 -8.8486352618E-02  7.7787778665E-13
           xangst5     2.8349421309E+00  2.7420898651E+00  2.8349421309E+00
                       8.5048263926E+00  8.2645638767E+00  8.5048263926E+00
                       5.6698842617E+00  8.5517005749E+00  5.6698842617E+00
                       5.6698842617E+00  5.5105657447E+00  2.8315384215E+00
                       5.6698842617E+00  5.5105657447E+00  8.5082301019E+00
                       5.6698842617E+00  2.7451539994E+00  5.6698842617E+00
                       8.5082301019E+00  5.5105657447E+00  5.6698842617E+00
                       2.8315384215E+00  5.5105657447E+00  5.6698842617E+00
                       7.7707892192E-13 -8.8397510899E-02  7.7707892192E-13
           xangst6     2.8320929428E+00  2.7393339959E+00  2.8320929428E+00
                       8.4962788283E+00  8.2562577823E+00  8.4962788283E+00
                       5.6641858855E+00  8.5431059009E+00  5.6641858855E+00
                       5.6641858855E+00  5.5050274877E+00  2.8286926542E+00
                       5.6641858856E+00  5.5050274877E+00  8.4996791169E+00
                       5.6641858856E+00  2.7423950506E+00  5.6641858856E+00
                       8.4996791169E+00  5.5050274877E+00  5.6641858856E+00
                       2.8286926542E+00  5.5050274877E+00  5.6641858855E+00
                       7.7632412003E-13 -8.8308669179E-02  7.7632412003E-13
           xangst7     2.8292437547E+00  2.7365781267E+00  2.8292437547E+00
                       8.4877312641E+00  8.2479516880E+00  8.4877312641E+00
                       5.6584875094E+00  8.5345112270E+00  5.6584875094E+00
                       5.6584875094E+00  5.4994892306E+00  2.8258468870E+00
                       5.6584875094E+00  5.4994892306E+00  8.4911281319E+00
                       5.6584875094E+00  2.7396361019E+00  5.6584875094E+00
                       8.4911281319E+00  5.4994892306E+00  5.6584875094E+00
                       2.8258468870E+00  5.4994892306E+00  5.6584875094E+00
                       7.7553012700E-13 -8.8219827460E-02  7.7553012700E-13
           xangst8     2.8263945666E+00  2.7338222575E+00  2.8263945666E+00
                       8.4791836999E+00  8.2396455936E+00  8.4791836999E+00
                       5.6527891332E+00  8.5259165530E+00  5.6527891332E+00
                       5.6527891333E+00  5.4939509736E+00  2.8230011197E+00
                       5.6527891333E+00  5.4939509736E+00  8.4825771468E+00
                       5.6527891333E+00  2.7368771531E+00  5.6527891333E+00
                       8.4825771468E+00  5.4939509736E+00  5.6527891333E+00
                       2.8230011197E+00  5.4939509736E+00  5.6527891333E+00
                       7.7475822801E-13 -8.8130985740E-02  7.7475822801E-13
           xangst9     2.8235453786E+00  2.7310663883E+00  2.8235453786E+00
                       8.4706361357E+00  8.2313394993E+00  8.4706361357E+00
                       5.6470907571E+00  8.5173218791E+00  5.6470907571E+00
                       5.6470907571E+00  5.4884127166E+00  2.8201553525E+00
                       5.6470907572E+00  5.4884127166E+00  8.4740261618E+00
                       5.6470907572E+00  2.7341182044E+00  5.6470907572E+00
                       8.4740261618E+00  5.4884127166E+00  5.6470907572E+00
                       2.8201553525E+00  5.4884127166E+00  5.6470907571E+00
                       7.7397158867E-13 -8.8042144021E-02  7.7397158867E-13
           xangst10    2.8206961905E+00  2.7283105191E+00  2.8206961905E+00
                       8.4620885715E+00  8.2230334049E+00  8.4620885715E+00
                       5.6413923810E+00  8.5087272052E+00  5.6413923810E+00
                       5.6413923810E+00  5.4828744595E+00  2.8173095852E+00
                       5.6413923810E+00  5.4828744595E+00  8.4654751768E+00
                       5.6413923810E+00  2.7313592556E+00  5.6413923810E+00
                       8.4654751768E+00  5.4828744595E+00  5.6413923810E+00
                       2.8173095852E+00  5.4828744595E+00  5.6413923810E+00
                       7.7319719781E-13 -8.7953302301E-02  7.7319719781E-13
            xcart1     5.3788009705E+00  5.2026302291E+00  5.3788009705E+00
                       1.6136402912E+01  1.5680547309E+01  1.6136402912E+01
                       1.0757601941E+01  1.6225338377E+01  1.0757601941E+01
                       1.0757601941E+01  1.0455323251E+01  5.3723430344E+00
                       1.0757601941E+01  1.0455323251E+01  1.6142860848E+01
                       1.0757601941E+01  5.2084438815E+00  1.0757601941E+01
                       1.6142860848E+01  1.0455323251E+01  1.0757601941E+01
                       5.3723430344E+00  1.0455323251E+01  1.0757601941E+01
                       1.4744128667E-12 -1.6771863250E-01  1.4744128667E-12
            xcart2     5.3734167854E+00  5.1974223911E+00  5.3734167854E+00
                       1.6120250356E+01  1.5664851065E+01  1.6120250356E+01
                       1.0746833571E+01  1.6209096797E+01  1.0746833571E+01
                       1.0746833571E+01  1.0444857462E+01  5.3669653136E+00
                       1.0746833571E+01  1.0444857462E+01  1.6126701828E+01
                       1.0746833571E+01  5.2032302240E+00  1.0746833571E+01
                       1.6126701828E+01  1.0444857462E+01  1.0746833571E+01
                       5.3669653136E+00  1.0444857462E+01  1.0746833571E+01
                       1.4729587236E-12 -1.6755074598E-01  1.4729587236E-12
            xcart3     5.3680326002E+00  5.1922145530E+00  5.3680326002E+00
                       1.6104097801E+01  1.5649154822E+01  1.6104097801E+01
                       1.0736065200E+01  1.6192855217E+01  1.0736065200E+01
                       1.0736065200E+01  1.0434391673E+01  5.3615875929E+00
                       1.0736065200E+01  1.0434391673E+01  1.6110542808E+01
                       1.0736065200E+01  5.1980165664E+00  1.0736065200E+01
                       1.6110542808E+01  1.0434391673E+01  1.0736065200E+01
                       5.3615875929E+00  1.0434391673E+01  1.0736065200E+01
                       1.4714395767E-12 -1.6738285947E-01  1.4714395767E-12
            xcart4     5.3626484150E+00  5.1870067149E+00  5.3626484150E+00
                       1.6087945245E+01  1.5633458578E+01  1.6087945245E+01
                       1.0725296830E+01  1.6176613637E+01  1.0725296830E+01
                       1.0725296830E+01  1.0423925884E+01  5.3562098721E+00
                       1.0725296830E+01  1.0423925884E+01  1.6094383788E+01
                       1.0725296830E+01  5.1928029089E+00  1.0725296830E+01
                       1.6094383788E+01  1.0423925884E+01  1.0725296830E+01
                       5.3562098721E+00  1.0423925884E+01  1.0725296830E+01
                       1.4699759816E-12 -1.6721497295E-01  1.4699759816E-12
            xcart5     5.3572642299E+00  5.1817988769E+00  5.3572642299E+00
                       1.6071792690E+01  1.5617762335E+01  1.6071792690E+01
                       1.0714528460E+01  1.6160372057E+01  1.0714528460E+01
                       1.0714528460E+01  1.0413460095E+01  5.3508321513E+00
                       1.0714528460E+01  1.0413460095E+01  1.6078224768E+01
                       1.0714528460E+01  5.1875892514E+00  1.0714528460E+01
                       1.6078224768E+01  1.0413460095E+01  1.0714528460E+01
                       5.3508321513E+00  1.0413460095E+01  1.0714528460E+01
                       1.4684663461E-12 -1.6704708643E-01  1.4684663461E-12
            xcart6     5.3518800447E+00  5.1765910388E+00  5.3518800447E+00
                       1.6055640134E+01  1.5602066091E+01  1.6055640134E+01
                       1.0703760089E+01  1.6144130477E+01  1.0703760089E+01
                       1.0703760089E+01  1.0402994306E+01  5.3454544306E+00
                       1.0703760090E+01  1.0402994306E+01  1.6062065748E+01
                       1.0703760090E+01  5.1823755938E+00  1.0703760090E+01
                       1.6062065748E+01  1.0402994306E+01  1.0703760090E+01
                       5.3454544306E+00  1.0402994306E+01  1.0703760089E+01
                       1.4670399772E-12 -1.6687919991E-01  1.4670399772E-12
            xcart7     5.3464958596E+00  5.1713832007E+00  5.3464958596E+00
                       1.6039487579E+01  1.5586369848E+01  1.6039487579E+01
                       1.0692991719E+01  1.6127888897E+01  1.0692991719E+01
                       1.0692991719E+01  1.0392528517E+01  5.3400767098E+00
                       1.0692991719E+01  1.0392528517E+01  1.6045906728E+01
                       1.0692991719E+01  5.1771619363E+00  1.0692991719E+01
                       1.6045906728E+01  1.0392528517E+01  1.0692991719E+01
                       5.3400767098E+00  1.0392528517E+01  1.0692991719E+01
                       1.4655395478E-12 -1.6671131339E-01  1.4655395478E-12
            xcart8     5.3411116744E+00  5.1661753627E+00  5.3411116744E+00
                       1.6023335023E+01  1.5570673604E+01  1.6023335023E+01
                       1.0682223349E+01  1.6111647317E+01  1.0682223349E+01
                       1.0682223349E+01  1.0382062728E+01  5.3346989891E+00
                       1.0682223349E+01  1.0382062728E+01  1.6029747709E+01
                       1.0682223349E+01  5.1719482788E+00  1.0682223349E+01
                       1.6029747709E+01  1.0382062728E+01  1.0682223349E+01
                       5.3346989891E+00  1.0382062728E+01  1.0682223349E+01
                       1.4640808701E-12 -1.6654342687E-01  1.4640808701E-12
            xcart9     5.3357274893E+00  5.1609675246E+00  5.3357274893E+00
                       1.6007182468E+01  1.5554977360E+01  1.6007182468E+01
                       1.0671454978E+01  1.6095405737E+01  1.0671454978E+01
                       1.0671454978E+01  1.0371596939E+01  5.3293212683E+00
                       1.0671454979E+01  1.0371596939E+01  1.6013588689E+01
                       1.0671454979E+01  5.1667346212E+00  1.0671454979E+01
                       1.6013588689E+01  1.0371596939E+01  1.0671454979E+01
                       5.3293212683E+00  1.0371596939E+01  1.0671454978E+01
                       1.4625943372E-12 -1.6637554035E-01  1.4625943372E-12
            xcart10    5.3303433041E+00  5.1557596865E+00  5.3303433041E+00
                       1.5991029912E+01  1.5539281117E+01  1.5991029912E+01
                       1.0660686608E+01  1.6079164157E+01  1.0660686608E+01
                       1.0660686608E+01  1.0361131150E+01  5.3239435476E+00
                       1.0660686608E+01  1.0361131150E+01  1.5997429669E+01
                       1.0660686608E+01  5.1615209637E+00  1.0660686608E+01
                       1.5997429669E+01  1.0361131150E+01  1.0660686608E+01
                       5.3239435476E+00  1.0361131150E+01  1.0660686608E+01
                       1.4611309506E-12 -1.6620765383E-01  1.4611309506E-12
             xred      2.4826643452E-01  2.5173356548E-01  2.4826643452E-01
                       7.4826643452E-01  7.5173356548E-01  7.4826643452E-01
                       7.7426354176E-01  2.2573645824E-01  7.7426354176E-01
                       2.4862167900E-01  2.5077800727E-01  7.4922199273E-01
                       7.4922199273E-01  7.5137832100E-01  2.4862167900E-01
                       2.4854385857E-01  7.5145614143E-01  2.4854385857E-01
                       2.4862167900E-01  7.5137832100E-01  7.4922199273E-01
                       7.4922199273E-01  2.5077800727E-01  2.4862167900E-01
                      -8.0034338518E-03  8.0034338518E-03 -8.0034338518E-03
            znucl       55.00000   53.00000   72.00000   17.00000

================================================================================

 chkinp: Checking input parameters for consistency, jdtset=   1.

 chkinp: Checking input parameters for consistency, jdtset=   2.

 chkinp: Checking input parameters for consistency, jdtset=   3.

 chkinp: Checking input parameters for consistency, jdtset=   4.

 chkinp: Checking input parameters for consistency, jdtset=   5.

 chkinp: Checking input parameters for consistency, jdtset=   6.

 chkinp: Checking input parameters for consistency, jdtset=   7.

 chkinp: Checking input parameters for consistency, jdtset=   8.

 chkinp: Checking input parameters for consistency, jdtset=   9.

 chkinp: Checking input parameters for consistency, jdtset=  10.

================================================================================
== DATASET  1 ==================================================================
-   mpi_nproc: 6, omp_nthreads: -1 (-1 if OMP is not activated)


--- !DatasetInfo
iteration_state: {dtset: 1, }
dimensions: {natom: 9, nkpt: 20, mband: 42, nsppol: 1, nspinor: 1, nspden: 1, mpw: 11301, }
cutoff_energies: {ecut:  16.0, pawecutdg:  40.0, }
electrons: {nelect:   7.20000000E+01, charge:   0.00000000E+00, occopt:   1.00000000E+00, tsmear:   1.00000000E-02, }
meta: {optdriver: 0, ionmov: 2, optcell: 3, iscf: 17, paral_kgb: 0, }
...

 Real(R)+Recip(G) space primitive vectors, cartesian coordinates (Bohr,Bohr^-1):
 R(1)=  0.0000000 10.4779171 10.7576019  G(1)= -0.0464788  0.0477194  0.0464788
 R(2)= 10.7576019  0.0000000 10.7576019  G(2)=  0.0464788 -0.0477194  0.0464788
 R(3)= 10.7576019 10.4779171  0.0000000  G(3)=  0.0464788  0.0477194 -0.0464788
 Unit cell volume ucvol=  2.4251349E+03 bohr^3
 Angles (23,13,12)=  5.95662741E+01  6.08674518E+01  5.95662741E+01 degrees

 Coarse grid specifications (used for wave-functions):

 getcut: wavevector=  0.0000  0.0000  0.0000  ngfft=  64  64  64
         ecut(hartree)=     21.160   => boxcut(ratio)=   2.03155

 Fine grid specifications (used for densities):

 getcut: wavevector=  0.0000  0.0000  0.0000  ngfft= 100 100 100
         ecut(hartree)=     52.900   => boxcut(ratio)=   2.00760

--- Pseudopotential description ------------------------------------------------
- pspini: atom type   1  psp file is ../../../Psps_for_tests/ATOMICDATA/Cs.GGA_PBE-JTH.xml
- pspatm: opening atomic psp file    ../../../Psps_for_tests/ATOMICDATA/Cs.GGA_PBE-JTH.xml
- pspatm : Reading pseudopotential header in XML form from ../../../Psps_for_tests/ATOMICDATA/Cs.GGA_PBE-JTH.xml
 Pseudopotential format is: paw10
 basis_size (lnmax)=  6 (lmn_size= 18), orbitals=   0   0   1   1   2   2
 Spheres core radius: rc_sph= 2.20660278
 1 radial meshes are used:
  - mesh 1: r(i)=AA*[exp(BB*(i-1))-1], size=1500 , AA= 0.15922E-03 BB= 0.87573E-02
 Shapefunction is SIN type: shapef(r)=[sin(pi*r/rshp)/(pi*r/rshp)]**2
 Radius for shape functions =  2.00394208
 mmax= 1500
 Radial grid used for partial waves is grid 1
 Radial grid used for projectors is grid 1
 Radial grid used for (t)core density is grid 1
 Radial grid used for Vloc is grid 1
 Radial grid used for pseudo valence density is grid 1
 Mesh size for Vloc has been set to 1341 to avoid numerical noise.
 Compensation charge density is not taken into account in XC energy/potential
 pspatm: atomic psp has been read  and splines computed

- pspini: atom type   2  psp file is ../../../Psps_for_tests/ATOMICDATA/I.GGA_PBE-JTH.xml
- pspatm: opening atomic psp file    ../../../Psps_for_tests/ATOMICDATA/I.GGA_PBE-JTH.xml
- pspatm : Reading pseudopotential header in XML form from ../../../Psps_for_tests/ATOMICDATA/I.GGA_PBE-JTH.xml
 Pseudopotential format is: paw10
 basis_size (lnmax)=  4 (lmn_size=  8), orbitals=   0   0   1   1
 Spheres core radius: rc_sph= 2.30022271
 1 radial meshes are used:
  - mesh 1: r(i)=AA*[exp(BB*(i-1))-1], size=2000 , AA= 0.12610E-03 BB= 0.66836E-02
 Shapefunction is SIN type: shapef(r)=[sin(pi*r/rshp)/(pi*r/rshp)]**2
 Radius for shape functions =  2.10879093
 mmax= 2000
 Radial grid used for partial waves is grid 1
 Radial grid used for projectors is grid 1
 Radial grid used for (t)core density is grid 1
 Radial grid used for Vloc is grid 1
 Radial grid used for pseudo valence density is grid 1
 Mesh size for Vloc has been set to 1792 to avoid numerical noise.
 Compensation charge density is not taken into account in XC energy/potential
 pspatm: atomic psp has been read  and splines computed

- pspini: atom type   3  psp file is ../../../Psps_for_tests/ATOMICDATA/Hf.GGA_PBE-JTH.xml
- pspatm: opening atomic psp file    ../../../Psps_for_tests/ATOMICDATA/Hf.GGA_PBE-JTH.xml
- pspatm : Reading pseudopotential header in XML form from ../../../Psps_for_tests/ATOMICDATA/Hf.GGA_PBE-JTH.xml
 Pseudopotential format is: paw10
 basis_size (lnmax)=  6 (lmn_size= 18), orbitals=   0   0   1   1   2   2
 Spheres core radius: rc_sph= 2.41000000
 1 radial meshes are used:
  - mesh 1: r(i)=AA*[exp(BB*(i-1))-1], size= 972 , AA= 0.19796E-03 BB= 0.14253E-01
 Shapefunction is SIN type: shapef(r)=[sin(pi*r/rshp)/(pi*r/rshp)]**2
 Radius for shape functions =  2.41000000
 mmax=  972
 Radial grid used for partial waves is grid 1
 Radial grid used for projectors is grid 1
 Radial grid used for (t)core density is grid 1
 Radial grid used for Vloc is grid 1
 Radial grid used for pseudo valence density is grid 1
 Mesh size for Vloc has been set to  809 to avoid numerical noise.
 Compensation charge density is not taken into account in XC energy/potential
 pspatm: atomic psp has been read  and splines computed

- pspini: atom type   4  psp file is ../../../Psps_for_tests/ATOMICDATA/Cl.GGA_PBE-JTH.xml
- pspatm: opening atomic psp file    ../../../Psps_for_tests/ATOMICDATA/Cl.GGA_PBE-JTH.xml
- pspatm : Reading pseudopotential header in XML form from ../../../Psps_for_tests/ATOMICDATA/Cl.GGA_PBE-JTH.xml
 Pseudopotential format is: paw10
 basis_size (lnmax)=  4 (lmn_size=  8), orbitals=   0   0   1   1
 Spheres core radius: rc_sph= 1.80315674
 1 radial meshes are used:
  - mesh 1: r(i)=AA*[exp(BB*(i-1))-1], size=1400 , AA= 0.50355E-03 BB= 0.85603E-02
 Shapefunction is SIN type: shapef(r)=[sin(pi*r/rshp)/(pi*r/rshp)]**2
 Radius for shape functions =  1.61320365
 mmax= 1400
 Radial grid used for partial waves is grid 1
 Radial grid used for projectors is grid 1
 Radial grid used for (t)core density is grid 1
 Radial grid used for Vloc is grid 1
 Radial grid used for pseudo valence density is grid 1
 Mesh size for Vloc has been set to 1238 to avoid numerical noise.
 Compensation charge density is not taken into account in XC energy/potential
 pspatm: atomic psp has been read  and splines computed

   4.43613238E+04                                ecore*ucvol(ha*bohr**3)
--------------------------------------------------------------------------------

_setup2: Arith. and geom. avg. npw (full set) are   11275.063   11275.056

================================================================================

=== [ionmov= 2] Broyden-Fletcher-Goldfard-Shanno method (forces)            
================================================================================

--- Iteration: (   1/1000) Internal Cycle: (1/1)
--------------------------------------------------------------------------------

---SELF-CONSISTENT-FIELD CONVERGENCE--------------------------------------------

--- !BeginCycle
iteration_state: {dtset: 1, itime: 1, icycle: 1, }
solver: {iscf: 17, nstep: 2500, nline: 4, wfoptalg: 10, }
tolerances: {toldff: 1.00E-08, }
...

     iter   Etot(hartree)      deltaE(h)  residm     nres2    diffor    maxfor
 ETOT  1  -163.04106438347    -1.630E+02 5.673E+00 6.844E+00 6.001E-02 6.001E-02
 ETOT  2  -164.85071544925    -1.810E+00 2.791E-02 4.035E+00 8.582E-02 3.550E-02
 ETOT  3  -164.83674635900     1.397E-02 1.927E-02 6.398E-01 6.550E-02 3.000E-02
 ETOT  4  -164.83756310129    -8.167E-04 5.030E-03 1.410E-01 3.607E-02 6.063E-03
 ETOT  5  -164.83759738381    -3.428E-05 3.635E-03 1.750E-02 1.241E-02 6.351E-03
 ETOT  6  -164.83765553022    -5.815E-05 1.849E-03 1.538E-03 6.727E-03 5.939E-04
 ETOT  7  -164.83767427613    -1.875E-05 2.610E-03 4.531E-04 2.488E-04 5.051E-04
 ETOT  8  -164.83767727070    -2.995E-06 5.520E-04 3.248E-05 2.683E-04 2.940E-04
 ETOT  9  -164.83767747727    -2.066E-07 7.217E-04 4.634E-06 3.790E-04 6.158E-04
 ETOT 10  -164.83767753136    -5.409E-08 2.725E-04 2.242E-06 2.520E-05 6.136E-04
 ETOT 11  -164.83767753287    -1.506E-09 4.139E-04 5.774E-07 2.076E-05 6.049E-04
 ETOT 12  -164.83767753461    -1.737E-09 1.711E-04 2.684E-07 1.743E-05 6.004E-04
 ETOT 13  -164.83767753376     8.469E-10 2.488E-04 1.016E-07 4.335E-06 6.048E-04
 ETOT 14  -164.83767753356     1.989E-10 9.846E-05 7.758E-09 9.002E-06 6.138E-04
 ETOT 15  -164.83767753368    -1.205E-10 1.393E-04 5.302E-09 1.629E-06 6.133E-04
 ETOT 16  -164.83767753365     3.152E-11 5.385E-05 2.192E-10 9.198E-07 6.130E-04
 ETOT 17  -164.83767753366    -1.336E-11 7.494E-05 8.298E-11 2.887E-07 6.133E-04
 ETOT 18  -164.83767753367    -5.400E-12 2.863E-05 3.724E-11 2.008E-07 6.134E-04
 ETOT 19  -164.83767753367    -6.708E-12 3.949E-05 1.521E-11 7.471E-08 6.135E-04
 ETOT 20  -164.83767753367     5.684E-14 1.501E-05 9.786E-13 6.445E-08 6.135E-04
 ETOT 21  -164.83767753367     5.087E-12 2.059E-05 1.079E-12 5.627E-09 6.135E-04
 ETOT 22  -164.83767753367    -5.684E-13 7.811E-06 5.745E-14 1.056E-08 6.135E-04
 ETOT 23  -164.83767753367    -6.821E-13 1.069E-05 5.513E-15 5.218E-09 6.135E-04
 ETOT 24  -164.83767753367    -4.661E-12 4.055E-06 1.742E-14 1.179E-09 6.135E-04

 At SCF step   24, forces are converged : 
  for the second time, max diff in force=  1.179E-09 < toldff=  1.000E-08

 Cartesian components of stress tensor (hartree/bohr^3)
  sigma(1 1)= -6.24944455E-05  sigma(3 2)=  6.57579622E-14
  sigma(2 2)= -6.27084091E-05  sigma(3 1)= -1.28096060E-13
  sigma(3 3)= -6.24944455E-05  sigma(2 1)=  6.57587784E-14


--- !ResultsGS
iteration_state: {dtset: 1, itime: 1, icycle: 1, }
comment   : Summary of ground state results
lattice_vectors:
- [  0.0000000,  10.4779171,  10.7576019, ]
- [ 10.7576019,   0.0000000,  10.7576019, ]
- [ 10.7576019,  10.4779171,   0.0000000, ]
lattice_lengths: [  15.01708,   15.21355,   15.01708, ]
lattice_angles: [ 59.566,  60.867,  59.566, ] # degrees, (23, 13, 12)
lattice_volume:   2.4251349E+03
convergence: {deltae: -4.661E-12, res2:  1.742E-14, residm:  4.055E-06, diffor:  1.179E-09, }
etotal    :  -1.64837678E+02
entropy   :   0.00000000E+00
fermie    :  -1.06477534E-01
cartesian_stress_tensor: # hartree/bohr^3
- [ -6.24944455E-05,   6.57587784E-14,  -1.28096060E-13, ]
- [  6.57587784E-14,  -6.27084091E-05,   6.57579622E-14, ]
- [ -1.28096060E-13,   6.57579622E-14,  -6.24944455E-05, ]
pressure_GPa:   1.8407E+00
xred      :
- [  2.4827E-01,   2.5173E-01,   2.4827E-01, Cs]
- [  7.4827E-01,   7.5173E-01,   7.4827E-01, Cs]
- [  7.7426E-01,   2.2574E-01,   7.7426E-01, Cl]
- [  2.4862E-01,   2.5078E-01,   7.4922E-01,  I]
- [  7.4922E-01,   7.5138E-01,   2.4862E-01,  I]
- [  2.4854E-01,   7.5146E-01,   2.4854E-01,  I]
- [  2.4862E-01,   7.5138E-01,   7.4922E-01,  I]
- [  7.4922E-01,   2.5078E-01,   2.4862E-01,  I]
- [ -8.0034E-03,   8.0034E-03,  -8.0034E-03, Hf]
cartesian_forces: # hartree/bohr
- [ -5.76468266E-21,   1.88311721E-06,   7.30898773E-22, ]
- [ -5.76468266E-21,   1.88311721E-06,   7.30898773E-22, ]
- [ -2.63475957E-20,  -6.13478411E-04,   2.13138118E-20, ]
- [ -3.53157150E-15,   1.88968363E-05,   4.12458464E-04, ]
- [  3.53158044E-15,   1.88968363E-05,  -4.12458464E-04, ]
- [ -1.97277251E-21,   4.10279638E-04,  -3.06101137E-21, ]
- [ -4.12458464E-04,   1.88968363E-05,   3.53154044E-15, ]
- [  4.12458464E-04,   1.88968363E-05,  -3.53154403E-15, ]
- [ -7.92483212E-21,   1.23845194E-04,   2.89104824E-21, ]
force_length_stats: {min:   1.88311721E-06, max:   6.13478411E-04, mean:   3.11437105E-04, }
...

 Integrated electronic density in atomic spheres:
 ------------------------------------------------
 Atom  Sphere_radius  Integrated_density
    1        2.20660          5.36509627
    2        2.20660          5.36509627
    3        1.80316          4.35873881
    4        2.30022          4.03188403
    5        2.30022          4.03188403
    6        2.30022          4.03225231
    7        2.30022          4.03188403
    8        2.30022          4.03188403
    9        2.41000          9.30394866

 PAW TEST:
 ==== Compensation charge inside spheres ============
 The following values must be close to each other ...
 Compensation charge over spherical meshes =     -0.739159672284154
 Compensation charge over fine fft grid    =     -0.739163154296388

 ==== Results concerning PAW augmentation regions ====

 Total pseudopotential strength Dij (hartree):
 Atom #  1
   0.44471  -0.14723   0.00000   0.00000   0.00000  -0.00000   0.00000   0.00000   0.00000   0.00000   0.00000  -0.00000 ...
  -0.14723   0.04440  -0.00000   0.00000   0.00000   0.00000   0.00000   0.00000   0.00000   0.00000  -0.00000   0.00000 ...
   0.00000  -0.00000  -0.09411   0.00000   0.00000  -0.16625   0.00000   0.00000   0.00000   0.00000   0.00000  -0.00000 ...
   0.00000   0.00000   0.00000  -0.09411  -0.00000   0.00000  -0.16625   0.00000  -0.00000   0.00000   0.00000   0.00000 ...
   0.00000   0.00000   0.00000  -0.00000  -0.09411   0.00000   0.00000  -0.16625   0.00000  -0.00000   0.00000   0.00000 ...
  -0.00000   0.00000  -0.16625   0.00000   0.00000   0.40538   0.00000   0.00000   0.00000   0.00000  -0.00000   0.00000 ...
   0.00000   0.00000   0.00000  -0.16625   0.00000   0.00000   0.40538  -0.00001   0.00000  -0.00000   0.00000   0.00000 ...
   0.00000   0.00000   0.00000   0.00000  -0.16625   0.00000  -0.00001   0.40538  -0.00000   0.00000   0.00000   0.00000 ...
   0.00000   0.00000   0.00000  -0.00000   0.00000   0.00000   0.00000  -0.00000   0.00515  -0.00000   0.00000   0.00000 ...
   0.00000   0.00000   0.00000   0.00000  -0.00000   0.00000  -0.00000   0.00000  -0.00000   0.00515   0.00000   0.00000 ...
   0.00000  -0.00000   0.00000   0.00000   0.00000  -0.00000   0.00000   0.00000   0.00000   0.00000   0.00515  -0.00000 ...
  -0.00000   0.00000  -0.00000   0.00000   0.00000   0.00000   0.00000   0.00000   0.00000   0.00000  -0.00000   0.00515 ...
   ...  only 12  components have been written...
 Atom #  9
  -3.52618   0.43103  -0.00028   0.00000   0.00000   0.00005   0.00000   0.00000   0.00000   0.00000  -0.00009   0.00000 ...
   0.43103   0.00232   0.00003   0.00000   0.00000  -0.00001   0.00000   0.00000   0.00000   0.00000   0.00001   0.00000 ...
  -0.00028   0.00003  -1.46836   0.00000   0.00000   0.12589   0.00000   0.00000   0.00000   0.00000   0.00007   0.00000 ...
   0.00000   0.00000   0.00000  -1.46898   0.00000   0.00000   0.12599   0.00000   0.00000  -0.00012   0.00000   0.00000 ...
   0.00000   0.00000   0.00000   0.00000  -1.46898   0.00000   0.00000   0.12599  -0.00012   0.00000   0.00000   0.00000 ...
   0.00005  -0.00001   0.12589   0.00000   0.00000   0.01298   0.00000   0.00000   0.00000   0.00000  -0.00001   0.00000 ...
   0.00000   0.00000   0.00000   0.12599   0.00000   0.00000   0.01297   0.00000   0.00000   0.00002   0.00000   0.00000 ...
   0.00000   0.00000   0.00000   0.00000   0.12599   0.00000   0.00000   0.01297   0.00002   0.00000   0.00000   0.00000 ...
   0.00000   0.00000   0.00000   0.00000  -0.00012   0.00000   0.00000   0.00002  -0.39640   0.00000   0.00000   0.00000 ...
   0.00000   0.00000   0.00000  -0.00012   0.00000   0.00000   0.00002   0.00000   0.00000  -0.39640   0.00000   0.00000 ...
  -0.00009   0.00001   0.00007   0.00000   0.00000  -0.00001   0.00000   0.00000   0.00000   0.00000  -0.39581   0.00000 ...
   0.00000   0.00000   0.00000   0.00000   0.00000   0.00000   0.00000   0.00000   0.00000   0.00000   0.00000  -0.39653 ...
   ...  only 12  components have been written...


 Augmentation waves occupancies Rhoij:
 Atom #  1
   1.99747  -0.01519   0.00001   0.00000   0.00000   0.00000   0.00000   0.00000   0.00000   0.00000   0.00060  -0.00339 ...
  -0.01519   0.16935   0.00002   0.00000   0.00000  -0.00001   0.00000   0.00000   0.00000   0.00000  -0.00683   0.01642 ...
   0.00001   0.00002   2.00806   0.00000   0.00000  -0.00517   0.00000   0.00000   0.00000   0.00000  -0.00011  -0.00097 ...
   0.00000   0.00000   0.00000   2.00694   0.00190   0.00000  -0.00495  -0.00031  -0.00118  -0.00017   0.00000   0.00000 ...
   0.00000   0.00000   0.00000   0.00190   2.00694   0.00000  -0.00031  -0.00495  -0.00017  -0.00118   0.00000   0.00000 ...
   0.00000  -0.00001  -0.00517   0.00000   0.00000   0.00014   0.00000   0.00000   0.00000   0.00000   0.00001   0.00003 ...
   0.00000   0.00000   0.00000  -0.00495  -0.00031   0.00000   0.00012   0.00002   0.00004   0.00001   0.00000   0.00000 ...
   0.00000   0.00000   0.00000  -0.00031  -0.00495   0.00000   0.00002   0.00012   0.00001   0.00004   0.00000   0.00000 ...
   0.00000   0.00000   0.00000  -0.00118  -0.00017   0.00000   0.00004   0.00001   0.06571   0.00023   0.00000   0.00000 ...
   0.00000   0.00000   0.00000  -0.00017  -0.00118   0.00000   0.00001   0.00004   0.00023   0.06571   0.00000   0.00000 ...
   0.00060  -0.00683  -0.00011   0.00000   0.00000   0.00001   0.00000   0.00000   0.00000   0.00000   0.04135   0.00706 ...
  -0.00339   0.01642  -0.00097   0.00000   0.00000   0.00003   0.00000   0.00000   0.00000   0.00000   0.00706   0.03952 ...
   ...  only 12  components have been written...
 Atom #  9
   1.99795  -0.02055   0.00002   0.00000   0.00000   0.00053   0.00000   0.00000   0.00000   0.00000  -0.00033   0.00000 ...
  -0.02055   1.01021   0.00298   0.00000   0.00000  -0.04652   0.00000   0.00000   0.00000   0.00000  -0.02417   0.00000 ...
   0.00002   0.00298   1.99243   0.00000   0.00000  -0.06492   0.00000   0.00000   0.00000   0.00000   0.00021   0.00000 ...
   0.00000   0.00000   0.00000   1.99285   0.00000   0.00000  -0.05946   0.00000   0.00000  -0.00141   0.00000   0.00000 ...
   0.00000   0.00000   0.00000   0.00000   1.99285   0.00000   0.00000  -0.05946  -0.00141   0.00000   0.00000   0.00000 ...
   0.00053  -0.04652  -0.06492   0.00000   0.00000   1.38856   0.00000   0.00000   0.00000   0.00000   0.09219   0.00000 ...
   0.00000   0.00000   0.00000  -0.05946   0.00000   0.00000   1.18977   0.00000   0.00000   0.02890   0.00000   0.00000 ...
   0.00000   0.00000   0.00000   0.00000  -0.05946   0.00000   0.00000   1.18977   0.02890   0.00000   0.00000   0.00000 ...
   0.00000   0.00000   0.00000   0.00000  -0.00141   0.00000   0.00000   0.02890   0.49381   0.00000   0.00000   0.00000 ...
   0.00000   0.00000   0.00000  -0.00141   0.00000   0.00000   0.02890   0.00000   0.00000   0.49381   0.00000   0.00000 ...
  -0.00033  -0.02417   0.00021   0.00000   0.00000   0.09219   0.00000   0.00000   0.00000   0.00000   1.39960   0.00000 ...
   0.00000   0.00000   0.00000   0.00000   0.00000   0.00000   0.00000   0.00000   0.00000   0.00000   0.00000   0.44895 ...
   ...  only 12  components have been written...



---OUTPUT-----------------------------------------------------------------------

 Cartesian coordinates (xcart) [bohr]
  5.37880097051152E+00  5.20263022914330E+00  5.37880097051152E+00
  1.61364029115339E+01  1.56805473088365E+01  1.61364029115339E+01
  1.07576019409719E+01  1.62253383767818E+01  1.07576019409719E+01
  1.07576019409765E+01  1.04553232508836E+01  5.37234303436433E+00
  1.07576019410687E+01  1.04553232508836E+01  1.61428608476809E+01
  1.07576019410687E+01  5.20844388152693E+00  1.07576019410687E+01
  1.61428608476809E+01  1.04553232508836E+01  1.07576019410687E+01
  5.37234303436433E+00  1.04553232508836E+01  1.07576019409765E+01
  1.47441286667395E-12 -1.67718632503941E-01  1.47441286667395E-12
 Reduced coordinates (xred)
  2.48266434520000E-01  2.51733565480000E-01  2.48266434520000E-01
  7.48266434520000E-01  7.51733565480000E-01  7.48266434520000E-01
  7.74263541760000E-01  2.25736458240000E-01  7.74263541760000E-01
  2.48621679000000E-01  2.50778007270000E-01  7.49221992730000E-01
  7.49221992730000E-01  7.51378321000000E-01  2.48621679000000E-01
  2.48543858570000E-01  7.51456141430000E-01  2.48543858570000E-01
  2.48621679000000E-01  7.51378321000000E-01  7.49221992730000E-01
  7.49221992730000E-01  2.50778007270000E-01  2.48621679000000E-01
 -8.00343385180000E-03  8.00343385180000E-03 -8.00343385180000E-03
 Cartesian forces (fcart) [Ha/bohr]; max,rms= 6.13478E-04 2.14471E-04 (free atoms)
 -5.76468265607894E-21  1.88311721162507E-06  7.30898772889375E-22
 -5.76468265607894E-21  1.88311721162507E-06  7.30898772889375E-22
 -2.63475956643686E-20 -6.13478411030095E-04  2.13138117811790E-20
 -3.53157150146067E-15  1.88968363331941E-05  4.12458464366411E-04
  3.53158044174287E-15  1.88968363259424E-05 -4.12458464366411E-04
 -1.97277250982777E-21  4.10279637578768E-04 -3.06101137336180E-21
 -4.12458464366411E-04  1.88968363259424E-05  3.53154044034548E-15
  4.12458464366411E-04  1.88968363331941E-05 -3.53154402976074E-15
 -7.92483212049432E-21  1.23845193709804E-04  2.89104823730476E-21
 Reduced forces (fred)
 -1.97311459947507E-05  5.41514432729511E-20 -1.97311459947506E-05
 -1.97311459947507E-05  5.41514432729511E-20 -1.97311459947506E-05
  6.42797592095531E-03  5.41514432729510E-20  6.42797592095531E-03
 -4.63506346098898E-03 -4.43706397685923E-03 -1.97999484129751E-04
  4.23906449272948E-03  4.43706397685923E-03 -1.97999484129751E-04
 -4.29887602203693E-03  5.41514432729511E-20 -4.29887602203693E-03
 -1.97999484129751E-04  4.43706397685923E-03  4.23906449272948E-03
 -1.97999484129751E-04 -4.43706397685923E-03 -4.63506346098898E-03
 -1.29763967040987E-03  5.41514432729511E-20 -1.29763967040987E-03
 Scale of Primitive Cell (acell) [bohr]
  1.50170818020840E+01  1.52135465636610E+01  1.50170818020840E+01
 Real space primitive translations (rprimd) [bohr]
  0.00000000000000E+00  1.04779170796932E+01  1.07576019409303E+01
  1.07576019411145E+01  0.00000000000000E+00  1.07576019411145E+01
  1.07576019409303E+01  1.04779170796932E+01  0.00000000000000E+00
 Unitary Cell Volume (ucvol) [Bohr^3]=  2.42513485390156E+03
 Angles (23,13,12)= [degrees]
  5.95662740980861E+01  6.08674518038278E+01  5.95662740980861E+01
 Lengths [Bohr]
  1.50170818020158E+01  1.52135465637353E+01  1.50170818020158E+01
 Stress tensor in cartesian coordinates (strten) [Ha/bohr^3]
 -6.24944454854677E-05  6.57587784371882E-14 -1.28096059839512E-13
  6.57587784371882E-14 -6.27084090983688E-05  6.57579621845932E-14
 -1.28096059839512E-13  6.57579621845932E-14 -6.24944454854703E-05
 Total energy (etotal) [Ha]= -1.64837677533675E+02

--- Iteration: (   2/1000) Internal Cycle: (1/1)
--------------------------------------------------------------------------------

---SELF-CONSISTENT-FIELD CONVERGENCE--------------------------------------------

--- !BeginCycle
iteration_state: {dtset: 1, itime: 2, icycle: 1, }
solver: {iscf: 17, nstep: 2500, nline: 4, wfoptalg: 10, }
tolerances: {toldff: 1.00E-08, }
...

     iter   Etot(hartree)      deltaE(h)  residm     nres2    diffor    maxfor
 ETOT  1  -164.83768061646    -1.648E+02 2.026E-05 3.273E-04 2.272E-03 2.885E-03
 ETOT  2  -164.83767884728     1.769E-06 2.059E-06 3.730E-05 2.441E-03 4.442E-04
 ETOT  3  -164.83767869599     1.513E-07 1.430E-06 3.135E-06 2.985E-04 7.427E-04
 ETOT  4  -164.83767868739     8.599E-09 1.360E-06 6.842E-07 1.933E-04 5.495E-04
 ETOT  5  -164.83767868979    -2.404E-09 1.011E-06 2.476E-07 1.512E-05 5.510E-04
 ETOT  6  -164.83767869176    -1.967E-09 1.165E-06 3.783E-08 2.177E-05 5.292E-04
 ETOT  7  -164.83767869205    -2.917E-10 8.690E-07 1.816E-08 1.959E-06 5.305E-04
 ETOT  8  -164.83767869260    -5.473E-10 9.975E-07 1.810E-09 4.131E-06 5.263E-04
 ETOT  9  -164.83767869252     8.038E-11 7.463E-07 5.385E-10 5.343E-07 5.259E-04
 ETOT 10  -164.83767869238     1.365E-10 8.537E-07 2.120E-10 6.536E-07 5.252E-04
 ETOT 11  -164.83767869231     7.466E-11 6.397E-07 2.427E-11 2.607E-07 5.254E-04
 ETOT 12  -164.83767869221     1.011E-10 7.302E-07 2.924E-11 9.292E-08 5.253E-04
 ETOT 13  -164.83767869216     4.027E-11 5.478E-07 7.022E-13 8.303E-08 5.253E-04
 ETOT 14  -164.83767869215     1.788E-11 6.242E-07 2.388E-12 1.956E-08 5.253E-04
 ETOT 15  -164.83767869213     1.577E-11 4.688E-07 4.654E-14 2.845E-08 5.253E-04
 ETOT 16  -164.83767869212     8.384E-12 5.333E-07 8.663E-14 1.370E-08 5.253E-04
 ETOT 17  -164.83767869211     8.328E-12 4.009E-07 1.220E-14 2.782E-09 5.253E-04
 ETOT 18  -164.83767869211     3.581E-12 4.553E-07 1.394E-14 1.695E-09 5.253E-04

 At SCF step   18, forces are converged : 
  for the second time, max diff in force=  1.695E-09 < toldff=  1.000E-08

 Cartesian components of stress tensor (hartree/bohr^3)
  sigma(1 1)= -6.23469144E-05  sigma(3 2)=  6.57605091E-14
  sigma(2 2)= -6.24860982E-05  sigma(3 1)= -1.28102016E-13
  sigma(3 3)= -6.23469144E-05  sigma(2 1)=  6.57593668E-14


--- !ResultsGS
iteration_state: {dtset: 1, itime: 2, icycle: 1, }
comment   : Summary of ground state results
lattice_vectors:
- [  0.0000000,  10.4779619,  10.7575789, ]
- [ 10.7575789,   0.0000000,  10.7575789, ]
- [ 10.7575789,  10.4779619,   0.0000000, ]
lattice_lengths: [  15.01710,   15.21351,   15.01710, ]
lattice_angles: [ 59.566,  60.867,  59.566, ] # degrees, (23, 13, 12)
lattice_volume:   2.4251349E+03
convergence: {deltae:  3.581E-12, res2:  1.394E-14, residm:  4.553E-07, diffor:  1.695E-09, }
etotal    :  -1.64837679E+02
entropy   :   0.00000000E+00
fermie    :  -1.06480737E-01
cartesian_stress_tensor: # hartree/bohr^3
- [ -6.23469144E-05,   6.57593668E-14,  -1.28102016E-13, ]
- [  6.57593668E-14,  -6.24860982E-05,   6.57605091E-14, ]
- [ -1.28102016E-13,   6.57605091E-14,  -6.23469144E-05, ]
pressure_GPa:   1.8357E+00
xred      :
- [  2.4827E-01,   2.5173E-01,   2.4827E-01, Cs]
- [  7.4827E-01,   7.5173E-01,   7.4827E-01, Cs]
- [  7.7423E-01,   2.2577E-01,   7.7423E-01, Cl]
- [  2.4864E-01,   2.5080E-01,   7.4920E-01,  I]
- [  7.4920E-01,   7.5136E-01,   2.4864E-01,  I]
- [  2.4856E-01,   7.5144E-01,   2.4856E-01,  I]
- [  2.4864E-01,   7.5136E-01,   7.4920E-01,  I]
- [  7.4920E-01,   2.5080E-01,   2.4864E-01,  I]
- [ -7.9975E-03,   7.9975E-03,  -7.9975E-03, Hf]
cartesian_forces: # hartree/bohr
- [ -5.93289052E-21,   1.81274656E-06,  -8.61742568E-22, ]
- [ -5.87995097E-21,   1.81274656E-06,  -9.14682127E-22, ]
- [ -9.54318060E-21,  -5.25280899E-04,   2.74854751E-21, ]
- [ -3.15555240E-15,   1.91362788E-05,   3.68538961E-04, ]
- [  3.15552833E-15,   1.91362788E-05,  -3.68538961E-04, ]
- [ -1.63484487E-20,   3.65161860E-04,   9.55381564E-21, ]
- [ -3.68538961E-04,   1.91362788E-05,   3.15553153E-15, ]
- [  3.68538961E-04,   1.91362788E-05,  -3.15559090E-15, ]
- [ -6.67065353E-21,   7.99484307E-05,  -1.23979565E-22, ]
force_length_stats: {min:   1.81274656E-06, max:   5.25280899E-04, mean:   2.72239831E-04, }
...

 Integrated electronic density in atomic spheres:
 ------------------------------------------------
 Atom  Sphere_radius  Integrated_density
    1        2.20660          5.36509672
    2        2.20660          5.36509672
    3        1.80316          4.35753612
    4        2.30022          4.03182623
    5        2.30022          4.03182623
    6        2.30022          4.03136110
    7        2.30022          4.03182623
    8        2.30022          4.03182623
    9        2.41000          9.30406004

 PAW TEST:
 ==== Compensation charge inside spheres ============
 The following values must be close to each other ...
 Compensation charge over spherical meshes =     -0.739190190142932
 Compensation charge over fine fft grid    =     -0.739193782440121

 ==== Results concerning PAW augmentation regions ====

 Total pseudopotential strength Dij (hartree):
 Atom #  1
   0.44471  -0.14723   0.00000   0.00000   0.00000  -0.00000   0.00000   0.00000   0.00000   0.00000   0.00000  -0.00000 ...
  -0.14723   0.04440  -0.00000   0.00000   0.00000   0.00000   0.00000   0.00000   0.00000   0.00000  -0.00000   0.00000 ...
   0.00000  -0.00000  -0.09411   0.00000   0.00000  -0.16625   0.00000   0.00000   0.00000   0.00000   0.00000  -0.00000 ...
   0.00000   0.00000   0.00000  -0.09411  -0.00000   0.00000  -0.16625   0.00000  -0.00000   0.00000   0.00000   0.00000 ...
   0.00000   0.00000   0.00000  -0.00000  -0.09411   0.00000   0.00000  -0.16625   0.00000  -0.00000   0.00000   0.00000 ...
  -0.00000   0.00000  -0.16625   0.00000   0.00000   0.40538   0.00000   0.00000   0.00000   0.00000  -0.00000   0.00000 ...
   0.00000   0.00000   0.00000  -0.16625   0.00000   0.00000   0.40538  -0.00001   0.00000  -0.00000   0.00000   0.00000 ...
   0.00000   0.00000   0.00000   0.00000  -0.16625   0.00000  -0.00001   0.40538  -0.00000   0.00000   0.00000   0.00000 ...
   0.00000   0.00000   0.00000  -0.00000   0.00000   0.00000   0.00000  -0.00000   0.00515  -0.00000   0.00000   0.00000 ...
   0.00000   0.00000   0.00000   0.00000  -0.00000   0.00000  -0.00000   0.00000  -0.00000   0.00515   0.00000   0.00000 ...
   0.00000  -0.00000   0.00000   0.00000   0.00000  -0.00000   0.00000   0.00000   0.00000   0.00000   0.00515  -0.00000 ...
  -0.00000   0.00000  -0.00000   0.00000   0.00000   0.00000   0.00000   0.00000   0.00000   0.00000  -0.00000   0.00515 ...
   ...  only 12  components have been written...
 Atom #  9
  -3.52620   0.43103  -0.00029   0.00000   0.00000   0.00005   0.00000   0.00000   0.00000   0.00000  -0.00009   0.00000 ...
   0.43103   0.00232   0.00003   0.00000   0.00000  -0.00001   0.00000   0.00000   0.00000   0.00000   0.00001   0.00000 ...
  -0.00029   0.00003  -1.46839   0.00000   0.00000   0.12589   0.00000   0.00000   0.00000   0.00000   0.00007   0.00000 ...
   0.00000   0.00000   0.00000  -1.46901   0.00000   0.00000   0.12600   0.00000   0.00000  -0.00012   0.00000   0.00000 ...
   0.00000   0.00000   0.00000   0.00000  -1.46901   0.00000   0.00000   0.12600  -0.00012   0.00000   0.00000   0.00000 ...
   0.00005  -0.00001   0.12589   0.00000   0.00000   0.01298   0.00000   0.00000   0.00000   0.00000  -0.00001   0.00000 ...
   0.00000   0.00000   0.00000   0.12600   0.00000   0.00000   0.01297   0.00000   0.00000   0.00002   0.00000   0.00000 ...
   0.00000   0.00000   0.00000   0.00000   0.12600   0.00000   0.00000   0.01297   0.00002   0.00000   0.00000   0.00000 ...
   0.00000   0.00000   0.00000   0.00000  -0.00012   0.00000   0.00000   0.00002  -0.39641   0.00000   0.00000   0.00000 ...
   0.00000   0.00000   0.00000  -0.00012   0.00000   0.00000   0.00002   0.00000   0.00000  -0.39641   0.00000   0.00000 ...
  -0.00009   0.00001   0.00007   0.00000   0.00000  -0.00001   0.00000   0.00000   0.00000   0.00000  -0.39581   0.00000 ...
   0.00000   0.00000   0.00000   0.00000   0.00000   0.00000   0.00000   0.00000   0.00000   0.00000   0.00000  -0.39653 ...
   ...  only 12  components have been written...


 Augmentation waves occupancies Rhoij:
 Atom #  1
   1.99747  -0.01519   0.00001   0.00000   0.00000   0.00000   0.00000   0.00000   0.00000   0.00000   0.00060  -0.00339 ...
  -0.01519   0.16935   0.00002   0.00000   0.00000  -0.00001   0.00000   0.00000   0.00000   0.00000  -0.00683   0.01642 ...
   0.00001   0.00002   2.00806   0.00000   0.00000  -0.00517   0.00000   0.00000   0.00000   0.00000  -0.00011  -0.00097 ...
   0.00000   0.00000   0.00000   2.00694   0.00190   0.00000  -0.00495  -0.00031  -0.00118  -0.00017   0.00000   0.00000 ...
   0.00000   0.00000   0.00000   0.00190   2.00694   0.00000  -0.00031  -0.00495  -0.00017  -0.00118   0.00000   0.00000 ...
   0.00000  -0.00001  -0.00517   0.00000   0.00000   0.00014   0.00000   0.00000   0.00000   0.00000   0.00001   0.00003 ...
   0.00000   0.00000   0.00000  -0.00495  -0.00031   0.00000   0.00012   0.00002   0.00004   0.00001   0.00000   0.00000 ...
   0.00000   0.00000   0.00000  -0.00031  -0.00495   0.00000   0.00002   0.00012   0.00001   0.00004   0.00000   0.00000 ...
   0.00000   0.00000   0.00000  -0.00118  -0.00017   0.00000   0.00004   0.00001   0.06571   0.00023   0.00000   0.00000 ...
   0.00000   0.00000   0.00000  -0.00017  -0.00118   0.00000   0.00001   0.00004   0.00023   0.06571   0.00000   0.00000 ...
   0.00060  -0.00683  -0.00011   0.00000   0.00000   0.00001   0.00000   0.00000   0.00000   0.00000   0.04135   0.00706 ...
  -0.00339   0.01642  -0.00097   0.00000   0.00000   0.00003   0.00000   0.00000   0.00000   0.00000   0.00706   0.03952 ...
   ...  only 12  components have been written...
 Atom #  9
   1.99795  -0.02056   0.00002   0.00000   0.00000   0.00053   0.00000   0.00000   0.00000   0.00000  -0.00032   0.00000 ...
  -0.02056   1.01007   0.00298   0.00000   0.00000  -0.04632   0.00000   0.00000   0.00000   0.00000  -0.02409   0.00000 ...
   0.00002   0.00298   1.99242   0.00000   0.00000  -0.06498   0.00000   0.00000   0.00000   0.00000   0.00021   0.00000 ...
   0.00000   0.00000   0.00000   1.99284   0.00000   0.00000  -0.05951   0.00000   0.00000  -0.00140   0.00000   0.00000 ...
   0.00000   0.00000   0.00000   0.00000   1.99284   0.00000   0.00000  -0.05951  -0.00140   0.00000   0.00000   0.00000 ...
   0.00053  -0.04632  -0.06498   0.00000   0.00000   1.38775   0.00000   0.00000   0.00000   0.00000   0.09195   0.00000 ...
   0.00000   0.00000   0.00000  -0.05951   0.00000   0.00000   1.18936   0.00000   0.00000   0.02891   0.00000   0.00000 ...
   0.00000   0.00000   0.00000   0.00000  -0.05951   0.00000   0.00000   1.18936   0.02891   0.00000   0.00000   0.00000 ...
   0.00000   0.00000   0.00000   0.00000  -0.00140   0.00000   0.00000   0.02891   0.49352   0.00000   0.00000   0.00000 ...
   0.00000   0.00000   0.00000  -0.00140   0.00000   0.00000   0.02891   0.00000   0.00000   0.49352   0.00000   0.00000 ...
  -0.00032  -0.02409   0.00021   0.00000   0.00000   0.09195   0.00000   0.00000   0.00000   0.00000   1.39899   0.00000 ...
   0.00000   0.00000   0.00000   0.00000   0.00000   0.00000   0.00000   0.00000   0.00000   0.00000   0.00000   0.44879 ...
   ...  only 12  components have been written...



---OUTPUT-----------------------------------------------------------------------

 Cartesian coordinates (xcart) [bohr]
  5.37878946185926E+00  5.20265437576360E+00  5.37878946185926E+00
  1.61363683855771E+01  1.56806162933647E+01  1.61363683855771E+01
  1.07575789236673E+01  1.62247943284602E+01  1.07575789236674E+01
  1.07575789236720E+01  1.04553868890234E+01  5.37274399711153E+00
  1.07575789237642E+01  1.04553868890234E+01  1.61424138503246E+01
  1.07575789237642E+01  5.20887645129346E+00  1.07575789237642E+01
  1.61424138503246E+01  1.04553868890234E+01  1.07575789237642E+01
  5.37274399711153E+00  1.04553868890234E+01  1.07575789236720E+01
  1.47440444479298E-12 -1.67595504494722E-01  1.47440444479298E-12
 Reduced coordinates (xred)
  2.48266524381238E-01  2.51733475618761E-01  2.48266524381238E-01
  7.48266524381238E-01  7.51733475618762E-01  7.48266524381238E-01
  7.74234266933412E-01  2.25765733066588E-01  7.74234266933411E-01
  2.48641751303865E-01  2.50796276082179E-01  7.49203723917821E-01
  7.49203723917820E-01  7.51358248696136E-01  2.48641751303864E-01
  2.48563436871415E-01  7.51436563128585E-01  2.48563436871415E-01
  2.48641751303864E-01  7.51358248696136E-01  7.49203723917820E-01
  7.49203723917821E-01  2.50796276082178E-01  2.48641751303865E-01
 -7.99752403247389E-03  7.99752403247399E-03 -7.99752403247389E-03
 Cartesian forces (fcart) [Ha/bohr]; max,rms= 5.25281E-04 1.88602E-04 (free atoms)
 -5.93289052432645E-21  1.81274655690850E-06 -8.61742568099580E-22
 -5.87995096512305E-21  1.81274655690850E-06 -9.14682127302974E-22
 -9.54318059756519E-21 -5.25280898898194E-04  2.74854750513916E-21
 -3.15555239563234E-15  1.91362787648135E-05  3.68538960965215E-04
  3.15552833254134E-15  1.91362787583340E-05 -3.68538960965215E-04
 -1.63484487317255E-20  3.65161860043623E-04  9.55381563929944E-21
 -3.68538960965215E-04  1.91362787583340E-05  3.15553152543659E-15
  3.68538960965215E-04  1.91362787648135E-05 -3.15559090437526E-15
 -6.67065352731825E-21  7.99484306944586E-05 -1.23979565107774E-22
 Reduced forces (fred)
 -1.89938893895497E-05  7.30938017501041E-20 -1.89938893895497E-05
 -1.89938893895497E-05  7.30938017501041E-20 -1.89938893895497E-05
  5.50387325469854E-03  7.30938017501041E-20  5.50387325469854E-03
 -4.16509615915665E-03 -3.96458695904828E-03 -2.00509200108368E-04
  3.76407775893991E-03  3.96458695904828E-03 -2.00509200108368E-04
 -3.82615206329746E-03  7.30938017501041E-20 -3.82615206329746E-03
 -2.00509200108368E-04  3.96458695904828E-03  3.76407775893991E-03
 -2.00509200108368E-04 -3.96458695904828E-03 -4.16509615915665E-03
 -8.37696612188508E-04  7.30938017501041E-20 -8.37696612188508E-04
 Scale of Primitive Cell (acell) [bohr]
  1.50170965983687E+01  1.52135140123511E+01  1.50170965983687E+01
 Real space primitive translations (rprimd) [bohr]
  0.00000000000000E+00  1.04779619176011E+01  1.07575789236258E+01
  1.07575789238100E+01  0.00000000000000E+00  1.07575789238100E+01
  1.07575789236258E+01  1.04779619176011E+01  0.00000000000000E+00
 Unitary Cell Volume (ucvol) [Bohr^3]=  2.42513485390156E+03
 Angles (23,13,12)= [degrees]
  5.95663792849984E+01  6.08672414300032E+01  5.95663792849984E+01
 Lengths [Bohr]
  1.50170965983687E+01  1.52135140123511E+01  1.50170965983687E+01
 Stress tensor in cartesian coordinates (strten) [Ha/bohr^3]
 -6.23469144130093E-05  6.57593667576596E-14 -1.28102015610002E-13
  6.57593667576596E-14 -6.24860981645950E-05  6.57605090946156E-14
 -1.28102015610002E-13  6.57605090946156E-14 -6.23469144130093E-05
 Total energy (etotal) [Ha]= -1.64837678692111E+02

 Difference of energy with previous step (new-old):
           Absolute (Ha)=-1.15844E-06
           Relative     =-7.02774E-09

--- Iteration: (   3/1000) Internal Cycle: (1/1)
--------------------------------------------------------------------------------

---SELF-CONSISTENT-FIELD CONVERGENCE--------------------------------------------

--- !BeginCycle
iteration_state: {dtset: 1, itime: 3, icycle: 1, }
solver: {iscf: 17, nstep: 2500, nline: 4, wfoptalg: 10, }
tolerances: {toldff: 1.00E-08, }
...

     iter   Etot(hartree)      deltaE(h)  residm     nres2    diffor    maxfor
 ETOT  1  -164.83778359303    -1.648E+02 1.192E-04 1.738E-02 1.635E-02 1.687E-02
 ETOT  2  -164.83769195108     9.164E-05 1.246E-05 2.224E-03 1.786E-02 9.853E-04
 ETOT  3  -164.83768280375     9.147E-06 1.780E-06 1.914E-04 2.538E-03 1.553E-03
 ETOT  4  -164.83768254091     2.628E-07 3.107E-07 3.973E-05 1.515E-03 1.077E-04
 ETOT  5  -164.83768259183    -5.091E-08 3.537E-07 1.387E-05 1.356E-04 1.908E-04
 ETOT  6  -164.83768263420    -4.237E-08 2.124E-07 2.148E-06 1.598E-04 2.094E-04
 ETOT  7  -164.83768264388    -9.681E-09 2.975E-07 1.036E-06 1.363E-05 1.957E-04
 ETOT  8  -164.83768265575    -1.187E-08 1.774E-07 1.009E-07 3.099E-05 1.893E-04
 ETOT  9  -164.83768265564     1.093E-10 2.574E-07 2.858E-08 4.393E-06 1.937E-04
 ETOT 10  -164.83768265512     5.205E-10 1.499E-07 1.405E-08 4.718E-06 1.965E-04
 ETOT 11  -164.83768265466     4.541E-10 2.213E-07 1.576E-09 2.083E-06 1.944E-04
 ETOT 12  -164.83768265395     7.086E-10 1.283E-07 2.142E-09 8.471E-07 1.935E-04
 ETOT 13  -164.83768265368     2.736E-10 1.903E-07 8.393E-11 6.614E-07 1.942E-04
 ETOT 14  -164.83768265354     1.419E-10 1.100E-07 9.353E-11 1.377E-07 1.943E-04
 ETOT 15  -164.83768265343     1.144E-10 1.637E-07 2.952E-12 1.599E-07 1.942E-04
 ETOT 16  -164.83768265335     7.793E-11 9.463E-08 3.406E-12 3.525E-08 1.942E-04
 ETOT 17  -164.83768265330     5.002E-11 1.410E-07 8.706E-13 1.309E-08 1.942E-04
 ETOT 18  -164.83768265326     3.638E-11 8.147E-08 2.388E-13 1.056E-08 1.942E-04
 ETOT 19  -164.83768265322     4.266E-11 1.215E-07 9.325E-14 1.463E-08 1.942E-04
 ETOT 20  -164.83768265320     2.277E-11 7.018E-08 4.354E-14 8.145E-09 1.942E-04
 ETOT 21  -164.83768265318     1.194E-11 1.048E-07 1.832E-14 3.125E-09 1.942E-04

 At SCF step   21, forces are converged : 
  for the second time, max diff in force=  3.125E-09 < toldff=  1.000E-08

 Cartesian components of stress tensor (hartree/bohr^3)
  sigma(1 1)= -6.12515975E-05  sigma(3 2)=  6.57684711E-14
  sigma(2 2)= -6.09093142E-05  sigma(3 1)= -1.28123279E-13
  sigma(3 3)= -6.12515975E-05  sigma(2 1)=  6.57685774E-14


--- !ResultsGS
iteration_state: {dtset: 1, itime: 3, icycle: 1, }
comment   : Summary of ground state results
lattice_vectors:
- [  0.0000000,  10.4782051,  10.7574541, ]
- [ 10.7574541,   0.0000000,  10.7574541, ]
- [ 10.7574541,  10.4782051,   0.0000000, ]
lattice_lengths: [  15.01718,   15.21334,   15.01718, ]
lattice_angles: [ 59.567,  60.866,  59.567, ] # degrees, (23, 13, 12)
lattice_volume:   2.4251349E+03
convergence: {deltae:  1.194E-11, res2:  1.832E-14, residm:  1.048E-07, diffor:  3.125E-09, }
etotal    :  -1.64837683E+02
entropy   :   0.00000000E+00
fermie    :  -1.06495845E-01
cartesian_stress_tensor: # hartree/bohr^3
- [ -6.12515975E-05,   6.57685774E-14,  -1.28123279E-13, ]
- [  6.57685774E-14,  -6.09093142E-05,   6.57684711E-14, ]
- [ -1.28123279E-13,   6.57684711E-14,  -6.12515975E-05, ]
pressure_GPa:   1.7987E+00
xred      :
- [  2.4827E-01,   2.5173E-01,   2.4827E-01, Cs]
- [  7.4827E-01,   7.5173E-01,   7.4827E-01, Cs]
- [  7.7403E-01,   2.2597E-01,   7.7403E-01, Cl]
- [  2.4879E-01,   2.5093E-01,   7.4907E-01,  I]
- [  7.4907E-01,   7.5121E-01,   2.4879E-01,  I]
- [  2.4871E-01,   7.5129E-01,   2.4871E-01,  I]
- [  2.4879E-01,   7.5121E-01,   7.4907E-01,  I]
- [  7.4907E-01,   2.5093E-01,   2.4879E-01,  I]
- [ -7.9657E-03,   7.9657E-03,  -7.9657E-03, Hf]
cartesian_forces: # hartree/bohr
- [  4.12252690E-22,   1.27100760E-06,   1.17968356E-22, ]
- [  4.05802789E-22,   1.27100760E-06,   1.24418257E-22, ]
- [  2.26747730E-21,   8.62658344E-05,  -1.73725625E-21, ]
- [ -3.65085442E-16,   1.99242076E-05,   4.26368479E-05, ]
- [  3.65082370E-16,   1.99242076E-05,  -4.26368479E-05, ]
- [  5.18883542E-22,   2.56627900E-05,   1.13375047E-23, ]
- [ -4.26368479E-05,   1.99242076E-05,   3.65083639E-16, ]
- [  4.26368479E-05,   1.99242076E-05,  -3.65074510E-16, ]
- [  3.49408367E-21,  -1.94167470E-04,  -2.96386262E-21, ]
force_length_stats: {min:   1.27100760E-06, max:   1.94167470E-04, mean:   5.52097708E-05, }
...

 Integrated electronic density in atomic spheres:
 ------------------------------------------------
 Atom  Sphere_radius  Integrated_density
    1        2.20660          5.36510029
    2        2.20660          5.36510029
    3        1.80316          4.35631885
    4        2.30022          4.03016903
    5        2.30022          4.03016903
    6        2.30022          4.03006140
    7        2.30022          4.03016903
    8        2.30022          4.03016903
    9        2.41000          9.30115050

 PAW TEST:
 ==== Compensation charge inside spheres ============
 The following values must be close to each other ...
 Compensation charge over spherical meshes =     -0.739415052630269
 Compensation charge over fine fft grid    =     -0.739419493967483

 ==== Results concerning PAW augmentation regions ====

 Total pseudopotential strength Dij (hartree):
 Atom #  1
   0.44470  -0.14723   0.00000   0.00000   0.00000  -0.00000   0.00000   0.00000   0.00000   0.00000   0.00000  -0.00000 ...
  -0.14723   0.04440  -0.00000   0.00000   0.00000   0.00000   0.00000   0.00000   0.00000   0.00000  -0.00000   0.00000 ...
   0.00000  -0.00000  -0.09411   0.00000   0.00000  -0.16625   0.00000   0.00000   0.00000   0.00000   0.00000  -0.00000 ...
   0.00000   0.00000   0.00000  -0.09411  -0.00000   0.00000  -0.16625   0.00000  -0.00000   0.00000   0.00000   0.00000 ...
   0.00000   0.00000   0.00000  -0.00000  -0.09411   0.00000   0.00000  -0.16625   0.00000  -0.00000   0.00000   0.00000 ...
  -0.00000   0.00000  -0.16625   0.00000   0.00000   0.40537   0.00000   0.00000   0.00000   0.00000  -0.00000   0.00000 ...
   0.00000   0.00000   0.00000  -0.16625   0.00000   0.00000   0.40538  -0.00001   0.00000  -0.00000   0.00000   0.00000 ...
   0.00000   0.00000   0.00000   0.00000  -0.16625   0.00000  -0.00001   0.40538  -0.00000   0.00000   0.00000   0.00000 ...
   0.00000   0.00000   0.00000  -0.00000   0.00000   0.00000   0.00000  -0.00000   0.00515  -0.00000   0.00000   0.00000 ...
   0.00000   0.00000   0.00000   0.00000  -0.00000   0.00000  -0.00000   0.00000  -0.00000   0.00515   0.00000   0.00000 ...
   0.00000  -0.00000   0.00000   0.00000   0.00000  -0.00000   0.00000   0.00000   0.00000   0.00000   0.00515  -0.00000 ...
  -0.00000   0.00000  -0.00000   0.00000   0.00000   0.00000   0.00000   0.00000   0.00000   0.00000  -0.00000   0.00515 ...
   ...  only 12  components have been written...
 Atom #  9
  -3.52633   0.43108  -0.00029   0.00000   0.00000   0.00005   0.00000   0.00000   0.00000   0.00000  -0.00009   0.00000 ...
   0.43108   0.00231   0.00003   0.00000   0.00000  -0.00001   0.00000   0.00000   0.00000   0.00000   0.00001   0.00000 ...
  -0.00029   0.00003  -1.46860   0.00000   0.00000   0.12594   0.00000   0.00000   0.00000   0.00000   0.00007   0.00000 ...
   0.00000   0.00000   0.00000  -1.46921   0.00000   0.00000   0.12604   0.00000   0.00000  -0.00012   0.00000   0.00000 ...
   0.00000   0.00000   0.00000   0.00000  -1.46921   0.00000   0.00000   0.12604  -0.00012   0.00000   0.00000   0.00000 ...
   0.00005  -0.00001   0.12594   0.00000   0.00000   0.01297   0.00000   0.00000   0.00000   0.00000  -0.00001   0.00000 ...
[...]
                       8.4624877427E+00  5.4856259795E+00  5.6504787378E+00
                       2.8384697330E+00  5.4856259795E+00  5.6504787378E+00
                       8.2716770106E-13 -9.4088665139E-02  8.2716770106E-13
           xangst10    2.8225989364E+00  2.7287051283E+00  2.8225989364E+00
                       8.4677968093E+00  8.2160224011E+00  8.4677968093E+00
                       5.6451978729E+00  8.4627217755E+00  5.6451978729E+00
                       5.6451978729E+00  5.4797417914E+00  2.8375822712E+00
                       5.6451978729E+00  5.4797417914E+00  8.4528134745E+00
                       5.6451978729E+00  2.7444687725E+00  5.6451978729E+00
                       8.4528134745E+00  5.4797417914E+00  5.6451978729E+00
                       2.8375822712E+00  5.4797417914E+00  5.6451978729E+00
                       8.3740161607E-13 -9.5259263621E-02  8.3801856607E-13
            xcart1     5.3789437355E+00  5.2025884595E+00  5.3789437355E+00
                       1.6136831206E+01  1.5679949348E+01  1.6136831206E+01
                       1.0757887471E+01  1.6218671744E+01  1.0757887471E+01
                       1.0757887471E+01  1.0455614459E+01  5.3762305081E+00
                       1.0757887471E+01  1.0455614459E+01  1.6139544434E+01
                       1.0757887471E+01  5.2112386626E+00  1.0757887471E+01
                       1.6139544434E+01  1.0455614459E+01  1.0757887471E+01
                       5.3762305081E+00  1.0455614459E+01  1.0757887471E+01
                       1.4804555087E-12 -1.6882922305E-01  1.4816498742E-12
            xcart2     5.3737325735E+00  5.1975544879E+00  5.3737325735E+00
                       1.6121197721E+01  1.5663752958E+01  1.6121197721E+01
                       1.0747465147E+01  1.6195264972E+01  1.0747465147E+01
                       1.0747465147E+01  1.0445350462E+01  5.3747230832E+00
                       1.0747465147E+01  1.0445350462E+01  1.6120207211E+01
                       1.0747465147E+01  5.2086831960E+00  1.0747465147E+01
                       1.6120207211E+01  1.0445350462E+01  1.0747465147E+01
                       5.3747230832E+00  1.0445350462E+01  1.0747465147E+01
                       1.4927340725E-12 -1.7003679407E-01  1.4927340725E-12
            xcart3     5.3685024025E+00  5.1923006074E+00  5.3685024025E+00
                       1.6105507208E+01  1.5647410764E+01  1.6105507208E+01
                       1.0737004805E+01  1.6172280567E+01  1.0737004805E+01
                       1.0737004805E+01  1.0435099765E+01  5.3732158166E+00
                       1.0737004805E+01  1.0435099765E+01  1.6100793794E+01
                       1.0737004805E+01  5.2062596010E+00  1.0737004805E+01
                       1.6100793794E+01  1.0435099765E+01  1.0737004805E+01
                       5.3732158166E+00  1.0435099765E+01  1.0737004805E+01
                       1.5022060276E-12 -1.7089221416E-01  1.5031000628E-12
            xcart4     5.3633954757E+00  5.1869198175E+00  5.3633954757E+00
                       1.6090186427E+01  1.5630461737E+01  1.6090186427E+01
                       1.0726790951E+01  1.6148323688E+01  1.0726790951E+01
                       1.0726790951E+01  1.0424327641E+01  5.3716880916E+00
                       1.0726790951E+01  1.0424327641E+01  1.6081893811E+01
                       1.0726790951E+01  5.2038248618E+00  1.0726790951E+01
                       1.6081893811E+01  1.0424327641E+01  1.0726790951E+01
                       5.3716880916E+00  1.0424327641E+01  1.0726790951E+01
                       1.5105301781E-12 -1.7179069744E-01  1.5105115701E-12
            xcart5     5.3590069094E+00  5.1796786518E+00  5.3590069094E+00
                       1.6077020728E+01  1.5608855933E+01  1.6077020728E+01
                       1.0718013819E+01  1.6119394088E+01  1.0718013819E+01
                       1.0718013819E+01  1.0410629327E+01  5.3703165396E+00
                       1.0718013819E+01  1.0410629327E+01  1.6065711098E+01
                       1.0718013819E+01  5.2014760408E+00  1.0718013819E+01
                       1.6065711098E+01  1.0410629327E+01  1.0718013819E+01
                       5.3703165396E+00  1.0410629327E+01  1.0718013819E+01
                       1.5117932180E-12 -1.7199095229E-01  1.5129645638E-12
            xcart6     5.3538932165E+00  5.1754245410E+00  5.3538932165E+00
                       1.6061679649E+01  1.5593060690E+01  1.6061679649E+01
                       1.0707786433E+01  1.6094753094E+01  1.0707786433E+01
                       1.0707786433E+01  1.0399808487E+01  5.3687444740E+00
                       1.0707786433E+01  1.0399808487E+01  1.6046828392E+01
                       1.0707786433E+01  5.1984831764E+00  1.0707786433E+01
                       1.6046828392E+01  1.0399808487E+01  1.0707786433E+01
                       5.3687444740E+00  1.0399808487E+01  1.0707786433E+01
                       1.5261957323E-12 -1.7351557489E-01  1.5261957323E-12
            xcart7     5.3490187237E+00  5.1700982948E+00  5.3490187237E+00
                       1.6047056171E+01  1.5575262804E+01  1.6047056171E+01
                       1.0698037447E+01  1.6068569670E+01  1.0698037447E+01
                       1.0698037447E+01  1.0388192617E+01  5.3671739254E+00
                       1.0698037447E+01  1.0388192617E+01  1.6028900969E+01
                       1.0698037447E+01  5.1956034112E+00  1.0698037447E+01
                       1.6028900969E+01  1.0388192617E+01  1.0698037447E+01
                       5.3671739254E+00  1.0388192617E+01  1.0698037447E+01
                       1.5391888802E-12 -1.7481309746E-01  1.5380382758E-12
            xcart8     5.3438998807E+00  5.1659409081E+00  5.3438998807E+00
                       1.6031699642E+01  1.5559584785E+01  1.6031699642E+01
                       1.0687799761E+01  1.6043841992E+01  1.0687799761E+01
                       1.0687799761E+01  1.0377458144E+01  5.3655497910E+00
                       1.0687799761E+01  1.0377458144E+01  1.6010049732E+01
                       1.0687799761E+01  5.1924880015E+00  1.0687799761E+01
                       1.6010049732E+01  1.0377458144E+01  1.0687799761E+01
                       5.3655497910E+00  1.0377458144E+01  1.0687799761E+01
                       1.5518789765E-12 -1.7652362170E-01  1.5518789765E-12
            xcart9     5.3389286671E+00  5.1606214433E+00  5.3389286671E+00
                       1.6016786001E+01  1.5542170690E+01  1.6016786001E+01
                       1.0677857334E+01  1.6018301111E+01  1.0677857334E+01
                       1.0677857334E+01  1.0366330769E+01  5.3639304318E+00
                       1.0677857334E+01  1.0366330769E+01  1.5991784237E+01
                       1.0677857334E+01  5.1896231824E+00  1.0677857334E+01
                       1.5991784237E+01  1.0366330769E+01  1.0677857334E+01
                       5.3639304318E+00  1.0366330769E+01  1.0677857334E+01
                       1.5631204210E-12 -1.7780180932E-01  1.5631204210E-12
            xcart10    5.3339389729E+00  5.1565053900E+00  5.3339389729E+00
                       1.6001816919E+01  1.5526032240E+01  1.6001816919E+01
                       1.0667877946E+01  1.5992226494E+01  1.0667877946E+01
                       1.0667877946E+01  1.0355211265E+01  5.3622533722E+00
                       1.0667877946E+01  1.0355211265E+01  1.5973502519E+01
                       1.0667877946E+01  5.1862943602E+00  1.0667877946E+01
                       1.5973502519E+01  1.0355211265E+01  1.0667877946E+01
                       5.3622533722E+00  1.0355211265E+01  1.0667877946E+01
                       1.5824597176E-12 -1.8001391986E-01  1.5836255842E-12
             xred1     2.4827762042E-01  2.5172237958E-01  2.4827762042E-01
                       7.4827762042E-01  7.5172237958E-01  7.4827762042E-01
                       7.7398649888E-01  2.2601350112E-01  7.7398649888E-01
                       2.4883611405E-01  2.5091167775E-01  7.4908832225E-01
                       7.4908832225E-01  7.5116388595E-01  2.4883611405E-01
                       2.4869042490E-01  7.5130957510E-01  2.4869042490E-01
                       2.4883611405E-01  7.5116388595E-01  7.4908832225E-01
                       7.4908832225E-01  2.5091167775E-01  2.4883611405E-01
                      -8.0568582508E-03  8.0568582508E-03 -8.0568582508E-03
             xred2     2.4830192656E-01  2.5169807344E-01  2.4830192656E-01
                       7.4830192656E-01  7.5169807344E-01  7.4830192656E-01
                       7.7369376366E-01  2.2630623634E-01  7.7369376366E-01
                       2.4905011254E-01  2.5104204963E-01  7.4895795037E-01
                       7.4895795037E-01  7.5094988746E-01  2.4905011254E-01
                       2.4883357652E-01  7.5116642348E-01  2.4883357652E-01
                       2.4905011254E-01  7.5094988746E-01  7.4895795037E-01
                       7.4895795037E-01  2.5104204963E-01  2.4905011254E-01
                      -8.1231401519E-03  8.1231401519E-03 -8.1231401519E-03
             xred3     2.4831400767E-01  2.5168599233E-01  2.4831400767E-01
                       7.4831400767E-01  7.5168599233E-01  7.4831400767E-01
                       7.7341512067E-01  2.2658487933E-01  7.7341512067E-01
                       2.4926252683E-01  2.5117646096E-01  7.4882353904E-01
                       7.4882353904E-01  7.5073747317E-01  2.4926252683E-01
                       2.4898157565E-01  7.5101842435E-01  2.4898157565E-01
                       2.4926252683E-01  7.5073747317E-01  7.4882353904E-01
                       7.4882353904E-01  2.5117646096E-01  2.4926252683E-01
                      -8.1726644483E-03  8.1726644483E-03 -8.1726644483E-03
             xred4     2.4833145007E-01  2.5166854993E-01  2.4833145007E-01
                       7.4833145007E-01  7.5166854993E-01  7.4833145007E-01
                       7.7312485615E-01  2.2687514385E-01  7.7312485615E-01
                       2.4946662562E-01  2.5130644956E-01  7.4869355044E-01
                       7.4869355044E-01  7.5053337438E-01  2.4946662562E-01
                       2.4914080405E-01  7.5085919595E-01  2.4914080405E-01
                       2.4946662562E-01  7.5053337438E-01  7.4869355044E-01
                       7.4869355044E-01  2.5130644956E-01  2.4946662562E-01
                      -8.2247334649E-03  8.2247334649E-03 -8.2247334649E-03
             xred5     2.4832633063E-01  2.5167366937E-01  2.4832633063E-01
                       7.4832633063E-01  7.5167366937E-01  7.4832633063E-01
                       7.7280276541E-01  2.2719723459E-01  7.7280276541E-01
                       2.4963836531E-01  2.5141683301E-01  7.4858316699E-01
                       7.4858316699E-01  7.5036163469E-01  2.4963836531E-01
                       2.4937135022E-01  7.5062864978E-01  2.4937135022E-01
                       2.4963836531E-01  7.5036163469E-01  7.4858316699E-01
                       7.4858316699E-01  2.5141683301E-01  2.4963836531E-01
                      -8.2456625120E-03  8.2456625120E-03 -8.2456625120E-03
             xred6     2.4839725956E-01  2.5160274044E-01  2.4839725956E-01
                       7.4839725956E-01  7.5160274044E-01  7.4839725956E-01
                       7.7247625391E-01  2.2752374609E-01  7.7247625391E-01
                       2.4983783120E-01  2.5154912750E-01  7.4845087250E-01
                       7.4845087250E-01  7.5016216880E-01  2.4983783120E-01
                       2.4950397106E-01  7.5049602894E-01  2.4950397106E-01
                       2.4983783120E-01  7.5016216880E-01  7.4845087250E-01
                       7.4845087250E-01  2.5154912750E-01  2.4983783120E-01
                      -8.3279725080E-03  8.3279725080E-03 -8.3279725080E-03
             xred7     2.4843904632E-01  2.5156095368E-01  2.4843904632E-01
                       7.4843904632E-01  7.5156095368E-01  7.4843904632E-01
                       7.7214395100E-01  2.2785604900E-01  7.7214395100E-01
                       2.5003297817E-01  2.5166408093E-01  7.4833591907E-01
                       7.4833591907E-01  7.4996702183E-01  2.5003297817E-01
                       2.4966464522E-01  7.5033535478E-01  2.4966464522E-01
                       2.5003297817E-01  7.4996702183E-01  7.4833591907E-01
                       7.4833591907E-01  2.5166408093E-01  2.5003297817E-01
                      -8.4003043542E-03  8.4003043542E-03 -8.4003043542E-03
             xred8     2.4851442716E-01  2.5148557284E-01  2.4851442716E-01
                       7.4851442716E-01  7.5148557284E-01  7.4851442716E-01
                       7.7181026127E-01  2.2818973873E-01  7.7181026127E-01
                       2.5023419682E-01  2.5179146897E-01  7.4820853103E-01
                       7.4820853103E-01  7.4976580318E-01  2.5023419682E-01
                       2.4979151023E-01  7.5020848977E-01  2.4979151023E-01
                       2.5023419682E-01  7.4976580318E-01  7.4820853103E-01
                       7.4820853103E-01  2.5179146897E-01  2.5023419682E-01
                      -8.4919025415E-03  8.4919025415E-03 -8.4919025415E-03
             xred9     2.4854775143E-01  2.5145224857E-01  2.4854775143E-01
                       7.4854775143E-01  7.5145224857E-01  7.4854775143E-01
                       7.7147932022E-01  2.2852067978E-01  7.7147932022E-01
                       2.5043777154E-01  2.5190368742E-01  7.4809631258E-01
                       7.4809631258E-01  7.4956222846E-01  2.5043777154E-01
                       2.4994454388E-01  7.5005545612E-01  2.4994454388E-01
                       2.5043777154E-01  7.4956222846E-01  7.4809631258E-01
                       7.4809631258E-01  2.5190368742E-01  2.5043777154E-01
                      -8.5633562535E-03  8.5633562535E-03 -8.5633562535E-03
             xred10    2.4863744820E-01  2.5136255180E-01  2.4863744820E-01
                       7.4863744820E-01  7.5136255180E-01  7.4863744820E-01
                       7.7111649963E-01  2.2888350037E-01  7.7111649963E-01
                       2.5063681491E-01  2.5201735862E-01  7.4798264138E-01
                       7.4798264138E-01  7.4936318509E-01  2.5063681491E-01
                       2.5007381896E-01  7.4992618104E-01  2.5007381896E-01
                       2.5063681491E-01  7.4936318509E-01  7.4798264138E-01
                       7.4798264138E-01  2.5201735862E-01  2.5063681491E-01
                      -8.6799485874E-03  8.6799485874E-03 -8.6799485874E-03
            znucl       55.00000   53.00000   72.00000   17.00000

================================================================================


- Timing analysis has been suppressed with timopt=0



================================================================================

 Suggested references for the acknowledgment of ABINIT usage.

 The users of ABINIT have little formal obligations with respect to the ABINIT group
 (those specified in the GNU General Public License, http://www.gnu.org/copyleft/gpl.txt).
 However, it is common practice in the scientific literature,
 to acknowledge the efforts of people that have made the research possible.
 In this spirit, please find below suggested citations of work written by ABINIT developers,
 corresponding to implementations inside of ABINIT that you have used in the present run.
 Note also that it will be of great value to readers of publications presenting these results,
 to read papers enabling them to understand the theoretical formalism and details
 of the ABINIT implementation.
 For information on why they are suggested, see also https://docs.abinit.org/theory/acknowledgments.
-
- [1] Implementation of the Projector Augmented-Wave Method in the ABINIT code.
- M. Torrent, F. Jollet, F. Bottin, G. Zerah, and X. Gonze Comput. Mat. Science 42, 337, (2008).
- Comment: PAW calculations. Strong suggestion to cite this paper.
- DOI and bibtex: see https://docs.abinit.org/theory/bibliography/#torrent2008
-
- [2] Libxc: A library of exchange and correlation functionals for density functional theory.
- M.A.L. Marques, M.J.T. Oliveira, T. Burnus, Computer Physics Communications 183, 2227 (2012).
- Comment: to be cited when LibXC is used (negative value of ixc)
- Strong suggestion to cite this paper.
- DOI and bibtex: see https://docs.abinit.org/theory/bibliography/#marques2012
-
- [3] The Abinit project: Impact, environment and recent developments.
- Computer Phys. Comm. 248, 107042 (2020).
- X.Gonze, B. Amadon, G. Antonius, F.Arnardi, L.Baguet, J.-M.Beuken,
- J.Bieder, F.Bottin, J.Bouchet, E.Bousquet, N.Brouwer, F.Bruneval,
- G.Brunin, T.Cavignac, J.-B. Charraud, Wei Chen, M.Cote, S.Cottenier,
- J.Denier, G.Geneste, Ph.Ghosez, M.Giantomassi, Y.Gillet, O.Gingras,
- D.R.Hamann, G.Hautier, Xu He, N.Helbig, N.Holzwarth, Y.Jia, F.Jollet,
- W.Lafargue-Dit-Hauret, K.Lejaeghere, M.A.L.Marques, A.Martin, C.Martins,
- H.P.C. Miranda, F.Naccarato, K. Persson, G.Petretto, V.Planes, Y.Pouillon,
- S.Prokhorenko, F.Ricci, G.-M.Rignanese, A.H.Romero, M.M.Schmitt, M.Torrent,
- M.J.van Setten, B.Van Troeye, M.J.Verstraete, G.Zerah and J.W.Zwanzig
- Comment: the fifth generic paper describing the ABINIT project.
- Note that a version of this paper, that is not formatted for Computer Phys. Comm. 
- is available at https://www.abinit.org/sites/default/files/ABINIT20.pdf .
- The licence allows the authors to put it on the Web.
- DOI and bibtex: see https://docs.abinit.org/theory/bibliography/#gonze2020
-
- [4] ABINIT: Overview, and focus on selected capabilities
- J. Chem. Phys. 152, 124102 (2020).
- A. Romero, D.C. Allan, B. Amadon, G. Antonius, T. Applencourt, L.Baguet,
- J.Bieder, F.Bottin, J.Bouchet, E.Bousquet, F.Bruneval,
- G.Brunin, D.Caliste, M.Cote,
- J.Denier, C. Dreyer, Ph.Ghosez, M.Giantomassi, Y.Gillet, O.Gingras,
- D.R.Hamann, G.Hautier, F.Jollet, G. Jomard,
- A.Martin, 
- H.P.C. Miranda, F.Naccarato, G.Petretto, N.A. Pike, V.Planes,
- S.Prokhorenko, T. Rangel, F.Ricci, G.-M.Rignanese, M.Royo, M.Stengel, M.Torrent,
- M.J.van Setten, B.Van Troeye, M.J.Verstraete, J.Wiktor, J.W.Zwanziger, and X.Gonze.
- Comment: a global overview of ABINIT, with focus on selected capabilities .
- Note that a version of this paper, that is not formatted for J. Chem. Phys 
- is available at https://www.abinit.org/sites/default/files/ABINIT20_JPC.pdf .
- The licence allows the authors to put it on the Web.
- DOI and bibtex: see https://docs.abinit.org/theory/bibliography/#romero2020
-
- [5] Recent developments in the ABINIT software package.
- Computer Phys. Comm. 205, 106 (2016).
- X.Gonze, F.Jollet, F.Abreu Araujo, D.Adams, B.Amadon, T.Applencourt,
- C.Audouze, J.-M.Beuken, J.Bieder, A.Bokhanchuk, E.Bousquet, F.Bruneval
- D.Caliste, M.Cote, F.Dahm, F.Da Pieve, M.Delaveau, M.Di Gennaro,
- B.Dorado, C.Espejo, G.Geneste, L.Genovese, A.Gerossier, M.Giantomassi,
- Y.Gillet, D.R.Hamann, L.He, G.Jomard, J.Laflamme Janssen, S.Le Roux,
- A.Levitt, A.Lherbier, F.Liu, I.Lukacevic, A.Martin, C.Martins,
- M.J.T.Oliveira, S.Ponce, Y.Pouillon, T.Rangel, G.-M.Rignanese,
- A.H.Romero, B.Rousseau, O.Rubel, A.A.Shukri, M.Stankovski, M.Torrent,
- M.J.Van Setten, B.Van Troeye, M.J.Verstraete, D.Waroquier, J.Wiktor,
- B.Xu, A.Zhou, J.W.Zwanziger.
- Comment: the fourth generic paper describing the ABINIT project.
- Note that a version of this paper, that is not formatted for Computer Phys. Comm. 
- is available at https://www.abinit.org/sites/default/files/ABINIT16.pdf .
- The licence allows the authors to put it on the Web.
- DOI and bibtex: see https://docs.abinit.org/theory/bibliography/#gonze2016
-
- Proc.   0 individual time (sec): cpu=      40357.6  wall=      40358.6

================================================================================

 Calculation completed.
.Delivered   0 WARNINGs and 175 COMMENTs to log file.
+Overall time at end (sec) : cpu=     242145.3  wall=     242151.7
