
.Version 9.2.2 of ABINIT 
.(MPI version, prepared for a x86_64_linux_gnu9.3 computer) 

.Copyright (C) 1998-2020 ABINIT group . 
 ABINIT comes with ABSOLUTELY NO WARRANTY.
 It is free software, and you are welcome to redistribute it
 under certain conditions (GNU General Public License,
 see ~abinit/COPYING or http://www.gnu.org/copyleft/gpl.txt).

 ABINIT is a project of the Universite Catholique de Louvain,
 Corning Inc. and other collaborators, see ~abinit/doc/developers/contributors.txt .
 Please read https://docs.abinit.org/theory/acknowledgments for suggested
 acknowledgments of the ABINIT effort.
 For more information, see https://www.abinit.org .

.Starting date : Thu 15 Dec 2022.
- ( at 10h14 )
  
- The starting date is more than 2 years after the initial release
- of this version of ABINIT, namely Nov 2020.
- Note that the use beyond 3 years after the release will not be supported.
- Action: please, switch to a more recent version of ABINIT.

- input  file    -> Cs2TiI6.in
- output file    -> Cs2TiI6.out
- root for input  files -> Cs2TiI6i
- root for output files -> Cs2TiI6o

- inpspheads : Reading pseudopotential header in XML form from 
-   ../../../Psps_for_tests/ATOMICDATA/Cs.GGA_PBE-JTH.xml
- inpspheads : Reading pseudopotential header in XML form from 
-   ../../../Psps_for_tests/ATOMICDATA/I.GGA_PBE-JTH.xml
- inpspheads : Reading pseudopotential header in XML form from 
-   ../../../Psps_for_tests/ATOMICDATA/Zr.GGA_PBE-JTH.xml
- inpspheads : Reading pseudopotential header in XML form from 
-   ../../../Psps_for_tests/ATOMICDATA/Cl.GGA_PBE-JTH.xml

 DATASET    1 : space group Fm m 2 (# 42); Bravais oF (face-center ortho.)
================================================================================
 Values of the parameters that define the memory need for DATASET  1.
     intxc =       0    ionmov =       0      iscf =      17    lmnmax =      18
     lnmax =       6     mgfft =      54  mpssoang =       3    mqgrid =    3284
     natom =       9  nloc_mem =       2    nspden =       1   nspinor =       1
    nsppol =       1      nsym =       4    n1xccc =       1    ntypat =       4
    occopt =       1   xclevel =       2
-    mband =          42        mffmem =           1         mkmem =          70
       mpw =        6146          nfft =      157464          nkpt =         280
Pmy_natom=         3
 PAW method is used; the additional fine FFT grid is defined by:
   mgfftf=        90    nfftf =    729000
================================================================================
P This job should need less than                     513.912 Mbytes of memory.
  Rough estimation (10% accuracy) of disk space for files :
_ WF disk file :   1102.861 Mbytes ; DEN or POT disk file :      5.564 Mbytes.
================================================================================


 DATASET    2 : space group Fm m 2 (# 42); Bravais oF (face-center ortho.)
================================================================================
 Values of the parameters that define the memory need for DATASET  2.
     intxc =       0    ionmov =       0      iscf =      17    lmnmax =      18
     lnmax =       6     mgfft =      54  mpssoang =       3    mqgrid =    3280
     natom =       9  nloc_mem =       2    nspden =       1   nspinor =       1
    nsppol =       1      nsym =       4    n1xccc =       1    ntypat =       4
    occopt =       1   xclevel =       2
-    mband =          42        mffmem =           1         mkmem =          70
       mpw =        6122          nfft =      157464          nkpt =         280
Pmy_natom=         3
 PAW method is used; the additional fine FFT grid is defined by:
   mgfftf=        90    nfftf =    729000
================================================================================
P This job should need less than                     512.716 Mbytes of memory.
  Rough estimation (10% accuracy) of disk space for files :
_ WF disk file :   1098.554 Mbytes ; DEN or POT disk file :      5.564 Mbytes.
================================================================================


 DATASET    3 : space group Fm m 2 (# 42); Bravais oF (face-center ortho.)
================================================================================
 Values of the parameters that define the memory need for DATASET  3.
     intxc =       0    ionmov =       0      iscf =      17    lmnmax =      18
     lnmax =       6     mgfft =      54  mpssoang =       3    mqgrid =    3277
     natom =       9  nloc_mem =       2    nspden =       1   nspinor =       1
    nsppol =       1      nsym =       4    n1xccc =       1    ntypat =       4
    occopt =       1   xclevel =       2
-    mband =          42        mffmem =           1         mkmem =          70
       mpw =        6097          nfft =      157464          nkpt =         280
Pmy_natom=         3
 PAW method is used; the additional fine FFT grid is defined by:
   mgfftf=        90    nfftf =    729000
================================================================================
P This job should need less than                     511.469 Mbytes of memory.
  Rough estimation (10% accuracy) of disk space for files :
_ WF disk file :   1094.068 Mbytes ; DEN or POT disk file :      5.564 Mbytes.
================================================================================


 DATASET    4 : space group Fm m 2 (# 42); Bravais oF (face-center ortho.)
================================================================================
 Values of the parameters that define the memory need for DATASET  4.
     intxc =       0    ionmov =       0      iscf =      17    lmnmax =      18
     lnmax =       6     mgfft =      54  mpssoang =       3    mqgrid =    3274
     natom =       9  nloc_mem =       2    nspden =       1   nspinor =       1
    nsppol =       1      nsym =       4    n1xccc =       1    ntypat =       4
    occopt =       1   xclevel =       2
-    mband =          42        mffmem =           1         mkmem =          70
       mpw =        6072          nfft =      157464          nkpt =         280
Pmy_natom=         3
 PAW method is used; the additional fine FFT grid is defined by:
   mgfftf=        90    nfftf =    729000
================================================================================
P This job should need less than                     510.223 Mbytes of memory.
  Rough estimation (10% accuracy) of disk space for files :
_ WF disk file :   1089.582 Mbytes ; DEN or POT disk file :      5.564 Mbytes.
================================================================================


 DATASET    5 : space group Fm m 2 (# 42); Bravais oF (face-center ortho.)
================================================================================
 Values of the parameters that define the memory need for DATASET  5.
     intxc =       0    ionmov =       0      iscf =      17    lmnmax =      18
     lnmax =       6     mgfft =      54  mpssoang =       3    mqgrid =    3270
     natom =       9  nloc_mem =       2    nspden =       1   nspinor =       1
    nsppol =       1      nsym =       4    n1xccc =       1    ntypat =       4
    occopt =       1   xclevel =       2
-    mband =          42        mffmem =           1         mkmem =          70
       mpw =        6050          nfft =      157464          nkpt =         280
Pmy_natom=         3
 PAW method is used; the additional fine FFT grid is defined by:
   mgfftf=        90    nfftf =    729000
================================================================================
P This job should need less than                     509.127 Mbytes of memory.
  Rough estimation (10% accuracy) of disk space for files :
_ WF disk file :   1085.634 Mbytes ; DEN or POT disk file :      5.564 Mbytes.
================================================================================


 DATASET    6 : space group Fm m 2 (# 42); Bravais oF (face-center ortho.)
================================================================================
 Values of the parameters that define the memory need for DATASET  6.
     intxc =       0    ionmov =       0      iscf =      17    lmnmax =      18
     lnmax =       6     mgfft =      54  mpssoang =       3    mqgrid =    3264
     natom =       9  nloc_mem =       2    nspden =       1   nspinor =       1
    nsppol =       1      nsym =       4    n1xccc =       1    ntypat =       4
    occopt =       1   xclevel =       2
-    mband =          42        mffmem =           1         mkmem =          70
       mpw =        6020          nfft =      157464          nkpt =         280
Pmy_natom=         3
 PAW method is used; the additional fine FFT grid is defined by:
   mgfftf=        90    nfftf =    729000
================================================================================
P This job should need less than                     507.644 Mbytes of memory.
  Rough estimation (10% accuracy) of disk space for files :
_ WF disk file :   1080.251 Mbytes ; DEN or POT disk file :      5.564 Mbytes.
================================================================================


 DATASET    7 : space group Fm m 2 (# 42); Bravais oF (face-center ortho.)
================================================================================
 Values of the parameters that define the memory need for DATASET  7.
     intxc =       0    ionmov =       0      iscf =      17    lmnmax =      18
     lnmax =       6     mgfft =      54  mpssoang =       3    mqgrid =    3261
     natom =       9  nloc_mem =       2    nspden =       1   nspinor =       1
    nsppol =       1      nsym =       4    n1xccc =       1    ntypat =       4
    occopt =       1   xclevel =       2
-    mband =          42        mffmem =           1         mkmem =          70
       mpw =        6008          nfft =      157464          nkpt =         280
Pmy_natom=         3
 PAW method is used; the additional fine FFT grid is defined by:
   mgfftf=        90    nfftf =    729000
================================================================================
P This job should need less than                     507.054 Mbytes of memory.
  Rough estimation (10% accuracy) of disk space for files :
_ WF disk file :   1078.098 Mbytes ; DEN or POT disk file :      5.564 Mbytes.
================================================================================


 DATASET    8 : space group Fm m 2 (# 42); Bravais oF (face-center ortho.)
================================================================================
 Values of the parameters that define the memory need for DATASET  8.
     intxc =       0    ionmov =       0      iscf =      17    lmnmax =      18
     lnmax =       6     mgfft =      54  mpssoang =       3    mqgrid =    3257
     natom =       9  nloc_mem =       2    nspden =       1   nspinor =       1
    nsppol =       1      nsym =       4    n1xccc =       1    ntypat =       4
    occopt =       1   xclevel =       2
-    mband =          42        mffmem =           1         mkmem =          70
       mpw =        5982          nfft =      157464          nkpt =         280
Pmy_natom=         3
 PAW method is used; the additional fine FFT grid is defined by:
   mgfftf=        90    nfftf =    729000
================================================================================
P This job should need less than                     505.758 Mbytes of memory.
  Rough estimation (10% accuracy) of disk space for files :
_ WF disk file :   1073.432 Mbytes ; DEN or POT disk file :      5.564 Mbytes.
================================================================================


 DATASET    9 : space group Fm m 2 (# 42); Bravais oF (face-center ortho.)
================================================================================
 Values of the parameters that define the memory need for DATASET  9.
     intxc =       0    ionmov =       0      iscf =      17    lmnmax =      18
     lnmax =       6     mgfft =      54  mpssoang =       3    mqgrid =    3254
     natom =       9  nloc_mem =       2    nspden =       1   nspinor =       1
    nsppol =       1      nsym =       4    n1xccc =       1    ntypat =       4
    occopt =       1   xclevel =       2
-    mband =          42        mffmem =           1         mkmem =          70
       mpw =        5963          nfft =      157464          nkpt =         280
Pmy_natom=         3
 PAW method is used; the additional fine FFT grid is defined by:
   mgfftf=        90    nfftf =    729000
================================================================================
P This job should need less than                     504.814 Mbytes of memory.
  Rough estimation (10% accuracy) of disk space for files :
_ WF disk file :   1070.023 Mbytes ; DEN or POT disk file :      5.564 Mbytes.
================================================================================


 DATASET   10 : space group Fm m 2 (# 42); Bravais oF (face-center ortho.)
================================================================================
 Values of the parameters that define the memory need for DATASET 10.
     intxc =       0    ionmov =       0      iscf =      17    lmnmax =      18
     lnmax =       6     mgfft =      54  mpssoang =       3    mqgrid =    3251
     natom =       9  nloc_mem =       2    nspden =       1   nspinor =       1
    nsppol =       1      nsym =       4    n1xccc =       1    ntypat =       4
    occopt =       1   xclevel =       2
-    mband =          42        mffmem =           1         mkmem =          70
       mpw =        5948          nfft =      157464          nkpt =         280
Pmy_natom=         3
 PAW method is used; the additional fine FFT grid is defined by:
   mgfftf=        90    nfftf =    729000
================================================================================
P This job should need less than                     504.073 Mbytes of memory.
  Rough estimation (10% accuracy) of disk space for files :
_ WF disk file :   1067.331 Mbytes ; DEN or POT disk file :      5.564 Mbytes.
================================================================================

--------------------------------------------------------------------------------
------------- Echo of variables that govern the present computation ------------
--------------------------------------------------------------------------------
-
- outvars: echo of selected default values                                      
-   iomode0 =  0 , fftalg0 =112 , wfoptalg0 = 10
-
- outvars: echo of global parameters not present in the input file              
-  max_nthreads =    0
-
 -outvars: echo values of preprocessed input variables --------
            acell1     1.4170718915E+01  1.3946642697E+01  1.4282583462E+01 Bohr
            acell2     1.4155354924E+01  1.3933031641E+01  1.4269405240E+01 Bohr
            acell3     1.4140829005E+01  1.3919018268E+01  1.4255808148E+01 Bohr
            acell4     1.4126527425E+01  1.3904899036E+01  1.4242096692E+01 Bohr
            acell5     1.4111894834E+01  1.3890944034E+01  1.4228545291E+01 Bohr
            acell6     1.4083552906E+01  1.3862884319E+01  1.4200633404E+01 Bohr
            acell7     1.4068820077E+01  1.3848900451E+01  1.4187223959E+01 Bohr
            acell8     1.4054202082E+01  1.3834974743E+01  1.4173623560E+01 Bohr
            acell9     1.4039109088E+01  1.3821169449E+01  1.4160390050E+01 Bohr
            acell10    1.4024160191E+01  1.3807482271E+01  1.4146863540E+01 Bohr
              amu      1.32905430E+02  1.26904470E+02  9.12240000E+01
                       3.54527000E+01
           diemac      1.20000000E+01
             ecut      1.60000000E+01 Hartree
-          fftalg         112
           istwfk        2    0    0    0    0    0    3    0    0    0
                         0    0    0    0    0    0    0    0    0    0
                         0    0    0    0    0    0    0    0    0    0
                         0    0    0    0    0    0    0    0    0    0
                         0    0    7    0    0    0    0    0    0    0
                       outvar_i_n : Printing only first  50 k-points.
              ixc     -101130
           jdtset        1    2    3    4    5    6    7    8    9   10
              kpt      0.00000000E+00  0.00000000E+00  0.00000000E+00
                       8.33333333E-02  0.00000000E+00  0.00000000E+00
                       1.66666667E-01  0.00000000E+00  0.00000000E+00
                       2.50000000E-01  0.00000000E+00  0.00000000E+00
                       3.33333333E-01  0.00000000E+00  0.00000000E+00
                       4.16666667E-01  0.00000000E+00  0.00000000E+00
                       5.00000000E-01  0.00000000E+00  0.00000000E+00
                       8.33333333E-02  8.33333333E-02  0.00000000E+00
                       1.66666667E-01  8.33333333E-02  0.00000000E+00
                       2.50000000E-01  8.33333333E-02  0.00000000E+00
                       3.33333333E-01  8.33333333E-02  0.00000000E+00
                       4.16666667E-01  8.33333333E-02  0.00000000E+00
                       5.00000000E-01  8.33333333E-02  0.00000000E+00
                      -4.16666667E-01  8.33333333E-02  0.00000000E+00
                      -3.33333333E-01  8.33333333E-02  0.00000000E+00
                      -2.50000000E-01  8.33333333E-02  0.00000000E+00
                      -1.66666667E-01  8.33333333E-02  0.00000000E+00
                      -8.33333333E-02  8.33333333E-02  0.00000000E+00
                       1.66666667E-01  1.66666667E-01  0.00000000E+00
                       2.50000000E-01  1.66666667E-01  0.00000000E+00
                       3.33333333E-01  1.66666667E-01  0.00000000E+00
                       4.16666667E-01  1.66666667E-01  0.00000000E+00
                       5.00000000E-01  1.66666667E-01  0.00000000E+00
                      -4.16666667E-01  1.66666667E-01  0.00000000E+00
                      -3.33333333E-01  1.66666667E-01  0.00000000E+00
                      -2.50000000E-01  1.66666667E-01  0.00000000E+00
                      -1.66666667E-01  1.66666667E-01  0.00000000E+00
                       2.50000000E-01  2.50000000E-01  0.00000000E+00
                       3.33333333E-01  2.50000000E-01  0.00000000E+00
                       4.16666667E-01  2.50000000E-01  0.00000000E+00
                       5.00000000E-01  2.50000000E-01  0.00000000E+00
                      -4.16666667E-01  2.50000000E-01  0.00000000E+00
                      -3.33333333E-01  2.50000000E-01  0.00000000E+00
                      -2.50000000E-01  2.50000000E-01  0.00000000E+00
                       3.33333333E-01  3.33333333E-01  0.00000000E+00
                       4.16666667E-01  3.33333333E-01  0.00000000E+00
                       5.00000000E-01  3.33333333E-01  0.00000000E+00
                      -4.16666667E-01  3.33333333E-01  0.00000000E+00
                      -3.33333333E-01  3.33333333E-01  0.00000000E+00
                       4.16666667E-01  4.16666667E-01  0.00000000E+00
                       5.00000000E-01  4.16666667E-01  0.00000000E+00
                      -4.16666667E-01  4.16666667E-01  0.00000000E+00
                       5.00000000E-01  5.00000000E-01  0.00000000E+00
                       8.33333333E-02  0.00000000E+00  8.33333333E-02
                       1.66666667E-01  0.00000000E+00  8.33333333E-02
                       2.50000000E-01  0.00000000E+00  8.33333333E-02
                       3.33333333E-01  0.00000000E+00  8.33333333E-02
                       4.16666667E-01  0.00000000E+00  8.33333333E-02
                       5.00000000E-01  0.00000000E+00  8.33333333E-02
                      -4.16666667E-01  0.00000000E+00  8.33333333E-02
                       outvar_i_n : Printing only first  50 k-points.
         kptrlatt       12    0    0      0   12    0      0    0   12
          kptrlen1     1.67359712E+02
          kptrlen2     1.67196380E+02
          kptrlen3     1.67028219E+02
          kptrlen4     1.66858788E+02
          kptrlen5     1.66691328E+02
          kptrlen6     1.66354612E+02
          kptrlen7     1.66186805E+02
          kptrlen8     1.66019697E+02
          kptrlen9     1.65854033E+02
          kptrlen10    1.65689787E+02
P           mkmem          70
            natom           9
            nband          42
           ndtset          10
            ngfft          54      54      54
          ngfftdg          90      90      90
             nkpt         280
            nstep        2500
             nsym           4
           ntypat           4
              occ      2.000000  2.000000  2.000000  2.000000  2.000000  2.000000
                       2.000000  2.000000  2.000000  2.000000  2.000000  2.000000
                       2.000000  2.000000  2.000000  2.000000  2.000000  2.000000
                       2.000000  2.000000  2.000000  2.000000  2.000000  2.000000
                       2.000000  2.000000  2.000000  2.000000  2.000000  2.000000
                       2.000000  2.000000  2.000000  2.000000  2.000000  2.000000
                       0.000000  0.000000  0.000000  0.000000  0.000000  0.000000
        pawecutdg      4.00000000E+01 Hartree
            prtwf           0
            rprim1     0.0000000000E+00  7.2361096128E-01  6.9020806770E-01
                       7.1286880341E-01  0.0000000000E+00  7.0129741845E-01
                       6.9610141034E-01  7.1794347028E-01  0.0000000000E+00
            rprim2     0.0000000000E+00  7.2365192772E-01  6.9016511611E-01
                       7.1298648153E-01  0.0000000000E+00  7.0117777856E-01
                       6.9617920577E-01  7.1786803345E-01  0.0000000000E+00
            rprim3     0.0000000000E+00  7.2368976444E-01  6.9012544139E-01
                       7.1304020648E-01  0.0000000000E+00  7.0112314463E-01
                       6.9619481106E-01  7.1785289931E-01  0.0000000000E+00
            rprim4     0.0000000000E+00  7.2372661576E-01  6.9008679573E-01
                       7.1307672844E-01  0.0000000000E+00  7.0108599997E-01
                       6.9619383495E-01  7.1785384597E-01  0.0000000000E+00
            rprim5     0.0000000000E+00  7.2376430028E-01  6.9004727204E-01
                       7.1313843190E-01  0.0000000000E+00  7.0102323567E-01
                       6.9621776812E-01  7.1783063417E-01  0.0000000000E+00
            rprim6     0.0000000000E+00  7.2380495546E-01  6.9000462784E-01
                       7.1317298724E-01  0.0000000000E+00  7.0098808140E-01
                       6.9621081962E-01  7.1783737339E-01  0.0000000000E+00
            rprim7     0.0000000000E+00  7.2385149911E-01  6.8995580093E-01
                       7.1324751159E-01  0.0000000000E+00  7.0091225357E-01
                       6.9623865903E-01  7.1781037167E-01  0.0000000000E+00
            rprim8     0.0000000000E+00  7.2388559421E-01  6.8992002906E-01
                       7.1330630690E-01  0.0000000000E+00  7.0085241851E-01
                       6.9626335838E-01  7.1778641376E-01  0.0000000000E+00
            rprim9     0.0000000000E+00  7.2393326051E-01  6.8987001263E-01
                       7.1340863751E-01  0.0000000000E+00  7.0074825432E-01
                       6.9631850750E-01  7.1773291419E-01  0.0000000000E+00
            rprim10    0.0000000000E+00  7.2396041109E-01  6.8984152033E-01
                       7.1348838341E-01  0.0000000000E+00  7.0066705841E-01
                       6.9637189736E-01  7.1768111342E-01  0.0000000000E+00
          spgroup          42
           symrel      1  0  0   0  1  0   0  0  1       1  0  0   1  0 -1   1 -1  0
                       0 -1  1   0 -1  0   1 -1  0       0 -1  1  -1  0  1   0  0  1
           toldfe      1.00000000E-08 Hartree
            typat      1  1  4  4  2  4  2  2  3
           useylm           1
              wtk        0.00058    0.00463    0.00463    0.00463    0.00463    0.00463
                         0.00231    0.00116    0.00463    0.00463    0.00463    0.00463
                         0.00463    0.00463    0.00463    0.00463    0.00463    0.00231
                         0.00116    0.00463    0.00463    0.00463    0.00463    0.00463
                         0.00463    0.00463    0.00231    0.00116    0.00463    0.00463
                         0.00463    0.00463    0.00463    0.00231    0.00116    0.00463
                         0.00463    0.00463    0.00231    0.00116    0.00463    0.00231
                         0.00058    0.00116    0.00463    0.00463    0.00463    0.00463
                         0.00463    0.00463
                       outvars : Printing only first  50 k-points.
           xangst1     2.6305733720E+00  2.7214232264E+00  2.5878735415E+00
                       7.8917201160E+00  8.1476526452E+00  7.7636206244E+00
                       5.2611467440E+00  5.3551851774E+00  2.4455161552E+00
                       5.2611467440E+00  5.3551851776E+00  7.9059780107E+00
                       7.6927451452E+00  5.4729908166E+00  5.1757470828E+00
                       5.2611467440E+00  8.2770214788E+00  5.1757470831E+00
                       5.2611467440E+00  2.7303363966E+00  5.1757470828E+00
                       2.8295483428E+00  5.4729908168E+00  5.1757470830E+00
                      -1.1975558902E-12 -1.2295038461E-01 -4.7442483672E-12
           xangst2     2.6284399189E+00  2.7186924658E+00  2.5849068827E+00
                       7.8853197566E+00  8.1393455964E+00  7.7547206481E+00
                       5.2568798377E+00  5.3497485748E+00  2.4451782043E+00
                       5.2568798377E+00  5.3497485748E+00  7.8944493266E+00
                       7.6853845250E+00  5.4679547409E+00  5.1698137654E+00
                       5.2568798377E+00  8.2660025823E+00  5.1698137654E+00
                       5.2568798377E+00  2.7289151675E+00  5.1698137654E+00
                       2.8283751504E+00  5.4679547410E+00  5.1698137654E+00
                      -1.8468682706E-13 -1.2313739825E-01 -3.4950936973E-13
           xangst3     2.6259941817E+00  2.7162703999E+00  2.5821058641E+00
                       7.8779825451E+00  8.1316441058E+00  7.7463175922E+00
                       5.2519883635E+00  5.3448319779E+00  2.4447634731E+00
                       5.2519883634E+00  5.3448319780E+00  7.8836599832E+00
                       7.6768544986E+00  5.4630158568E+00  5.1642117281E+00
                       5.2519883635E+00  8.2554610536E+00  5.1642117282E+00
                       5.2519883634E+00  2.7273788420E+00  5.1642117281E+00
                       2.8271222283E+00  5.4630158569E+00  5.1642117282E+00
                      -1.7544751113E-12 -1.2346042362E-01 -2.8565874631E-12
           xangst4     2.6234647818E+00  2.7139596255E+00  2.5793499586E+00
                       7.8703943454E+00  8.1241318761E+00  7.7380498759E+00
                       5.2469295636E+00  5.3399146069E+00  2.4443380871E+00
                       5.2469295637E+00  5.3399146071E+00  7.8730617474E+00
                       7.6680095738E+00  5.4582139949E+00  5.1586999172E+00
                       5.2469295636E+00  8.2450319154E+00  5.1586999173E+00
                       5.2469295637E+00  2.7258189228E+00  5.1586999172E+00
                       2.8258495535E+00  5.4582139951E+00  5.1586999173E+00
                       8.9139668095E-13 -1.2382153893E-01 -2.2664217708E-12
           xangst5     2.6210586480E+00  2.7117717651E+00  2.5765306316E+00
                       7.8631759441E+00  8.1166214479E+00  7.7295918948E+00
                       5.2421172961E+00  5.3348147706E+00  2.4438956991E+00
                       5.2421172961E+00  5.3348147708E+00  7.8622268272E+00
                       7.6596203130E+00  5.4532758098E+00  5.1530612631E+00
                       5.2421172961E+00  8.2342478882E+00  5.1530612632E+00
                       5.2421172961E+00  2.7242542865E+00  5.1530612631E+00
                       2.8246142792E+00  5.4532758100E+00  5.1530612632E+00
                      -4.6805951200E-13 -1.2427908638E-01 -1.7734938055E-12
           xangst6     2.6158908557E+00  2.7067114827E+00  2.5711970937E+00
                       7.8476725670E+00  8.1010092099E+00  7.7135912811E+00
                       5.2317817113E+00  5.3249249104E+00  2.4431058790E+00
                       5.2317817114E+00  5.3249249105E+00  7.8416824958E+00
                       7.6416066727E+00  5.4437478111E+00  5.1423941874E+00
                       5.2317817113E+00  8.2131062838E+00  5.1423941874E+00
                       5.2317817113E+00  2.7211352222E+00  5.1423941874E+00
                       2.8219567499E+00  5.4437478112E+00  5.1423941874E+00
                       1.3590521148E-12 -1.2492582451E-01 -7.5691302537E-13
           xangst7     2.6135252122E+00  2.7046086059E+00  2.5683256043E+00
                       7.8405756365E+00  8.0936098616E+00  7.7049768129E+00
                       5.2270504243E+00  5.3198658027E+00  2.4426001274E+00
                       5.2270504244E+00  5.3198658028E+00  7.8307022899E+00
                       7.6334317116E+00  5.4388256092E+00  5.1366512087E+00
                       5.2270504243E+00  8.2023704024E+00  5.1366512086E+00
                       5.2270504244E+00  2.7194920253E+00  5.1366512087E+00
                       2.8206691371E+00  5.4388256093E+00  5.1366512086E+00
                       2.2231470696E-12 -1.2545367275E-01  1.2959764077E-12
           xangst8     2.6111124169E+00  2.7022586797E+00  2.5655240037E+00
                       7.8333372506E+00  8.0859141460E+00  7.6965720112E+00
                       5.2222248338E+00  5.3148417467E+00  2.4421811850E+00
                       5.2222248337E+00  5.3148417467E+00  7.8199148299E+00
                       7.6250975569E+00  5.4338436818E+00  5.1310480074E+00
                       5.2222248338E+00  8.1916503243E+00  5.1310480075E+00
                       5.2222248337E+00  2.7178773362E+00  5.1310480074E+00
                       2.8193521106E+00  5.4338436818E+00  5.1310480075E+00
                      -1.9503295705E-12 -1.2582761210E-01 -1.0651268442E-12
           xangst9     2.6088811214E+00  2.6997476441E+00  2.5625830631E+00
                       7.8266433641E+00  8.0779756528E+00  7.6877491892E+00
                       5.2177622427E+00  5.3093954479E+00  2.4417658847E+00
                       5.2177622428E+00  5.3093954480E+00  7.8085663675E+00
                       7.6174992682E+00  5.4290020390E+00  5.1251661262E+00
                       5.2177622427E+00  8.1810027326E+00  5.1251661261E+00
                       5.2177622428E+00  2.7163605210E+00  5.1251661262E+00
                       2.8180252174E+00  5.4290020390E+00  5.1251661261E+00
                       1.0671395196E-12 -1.2605745448E-01  1.2102482624E-12
           xangst10    2.6065888684E+00  2.6972614230E+00  2.5597486903E+00
                       7.8197666053E+00  8.0699641657E+00  7.6792460708E+00
                       5.2131777370E+00  5.3041159980E+00  2.4413168945E+00
                       5.2131777368E+00  5.3041159980E+00  7.7976778665E+00
                       7.6096693232E+00  5.4239243665E+00  5.1194973804E+00
                       5.2131777370E+00  8.1699915729E+00  5.1194973806E+00
                       5.2131777368E+00  2.7147447052E+00  5.1194973804E+00
                       2.8166861506E+00  5.4239243665E+00  5.1194973806E+00
                      -3.3917123112E-12 -1.2642065470E-01 -3.9914235461E-12
            xcart1     4.9710632455E+00  5.1427445896E+00  4.8903722599E+00
                       1.4913189737E+01  1.5396832125E+01  1.4671116780E+01
                       9.9421264911E+00  1.0119833376E+01  4.6213557869E+00
                       9.9421264910E+00  1.0119833377E+01  1.4940133253E+01
                       1.4537181534E+01  1.0342453771E+01  9.7807445197E+00
                       9.9421264911E+00  1.5641303791E+01  9.7807445201E+00
                       9.9421264910E+00  5.1595880401E+00  9.7807445196E+00
                       5.3470714477E+00  1.0342453771E+01  9.7807445200E+00
                      -2.2630526613E-12 -2.3234255485E-01 -8.9653301205E-12
            xcart2     4.9670316034E+00  5.1375841999E+00  4.8847660873E+00
                       1.4901094810E+01  1.5381134078E+01  1.4654298262E+01
                       9.9340632068E+00  1.0109559686E+01  4.6207171522E+00
                       9.9340632068E+00  1.0109559686E+01  1.4918347197E+01
                       1.4523271978E+01  1.0332936967E+01  9.7695321747E+00
                       9.9340632068E+00  1.5620481094E+01  9.7695321747E+00
                       9.9340632068E+00  5.1569023064E+00  9.7695321747E+00
                       5.3448544353E+00  1.0332936967E+01  9.7695321747E+00
                      -3.4900752349E-13 -2.3269595940E-01 -6.6047698967E-13
            xcart3     4.9624098300E+00  5.1330071588E+00  4.8794729292E+00
                       1.4887229490E+01  1.5366580370E+01  1.4638418788E+01
                       9.9248196600E+00  1.0100268664E+01  4.6199334238E+00
                       9.9248196599E+00  1.0100268665E+01  1.4897958293E+01
                       1.4507152564E+01  1.0323603829E+01  9.7589458584E+00
                       9.9248196600E+00  1.5600560492E+01  9.7589458586E+00
                       9.9248196599E+00  5.1539990720E+00  9.7589458583E+00
                       5.3424867556E+00  1.0323603829E+01  9.7589458586E+00
                      -3.3154774674E-12 -2.3330638888E-01 -5.3981679799E-12
            xcart4     4.9576299569E+00  5.1286404279E+00  4.8742650227E+00
                       1.4872889871E+01  1.5352384313E+01  1.4622795068E+01
                       9.9152599138E+00  1.0090976180E+01  4.6191295608E+00
                       9.9152599138E+00  1.0090976180E+01  1.4877930530E+01
                       1.4490438079E+01  1.0314529625E+01  9.7485300452E+00
                       9.9152599138E+00  1.5580852277E+01  9.7485300454E+00
                       9.9152599138E+00  5.1510512519E+00  9.7485300452E+00
                       5.3400817488E+00  1.0314529625E+01  9.7485300454E+00
                       1.6844956028E-12 -2.3398879793E-01 -4.2829164484E-12
            xcart5     4.9530830230E+00  5.1245059709E+00  4.8689372667E+00
                       1.4859249069E+01  1.5338191661E+01  1.4606811800E+01
                       9.9061660461E+00  1.0081338886E+01  4.6182935687E+00
                       9.9061660460E+00  1.0081338886E+01  1.4857455498E+01
                       1.4474584673E+01  1.0305197808E+01  9.7378745333E+00
                       9.9061660461E+00  1.5560473419E+01  9.7378745334E+00
                       9.9061660460E+00  5.1480945179E+00  9.7378745333E+00
                       5.3377474187E+00  1.0305197808E+01  9.7378745334E+00
                      -8.8450429157E-13 -2.3485343730E-01 -3.3514175907E-12
            xcart6     4.9433173107E+00  5.1149434231E+00  4.8588583408E+00
                       1.4829951932E+01  1.5308688807E+01  1.4576575022E+01
                       9.8866346214E+00  1.0062649759E+01  4.6168010249E+00
                       9.8866346215E+00  1.0062649759E+01  1.4818632338E+01
                       1.4440543827E+01  1.0287192499E+01  9.7177166815E+00
                       9.8866346214E+00  1.5520521577E+01  9.7177166815E+00
                       9.8866346215E+00  5.1422003405E+00  9.7177166815E+00
                       5.3327254162E+00  1.0287192500E+01  9.7177166815E+00
                       2.5682362973E-12 -2.3607559524E-01 -1.4303583244E-12
            xcart7     4.9388468924E+00  5.1109695617E+00  4.8534320122E+00
                       1.4816540677E+01  1.5294706065E+01  1.4560296037E+01
                       9.8776937847E+00  1.0053089431E+01  4.6158452929E+00
                       9.8776937848E+00  1.0053089431E+01  1.4797882756E+01
                       1.4425095389E+01  1.0277890886E+01  9.7068640245E+00
                       9.8776937847E+00  1.5500233701E+01  9.7068640244E+00
                       9.8776937848E+00  5.1390951484E+00  9.7068640245E+00
                       5.3302921805E+00  1.0277890886E+01  9.7068640244E+00
                       4.2011391147E-12 -2.3707308386E-01  2.4490404852E-12
            xcart8     4.9342873701E+00  5.1065288448E+00  4.8481377544E+00
                       1.4802862110E+01  1.5280163270E+01  1.4544413263E+01
                       9.8685747402E+00  1.0043595341E+01  4.6150536065E+00
                       9.8685747401E+00  1.0043595341E+01  1.4777497411E+01
                       1.4409346119E+01  1.0268476407E+01  9.6962755087E+00
                       9.8685747402E+00  1.5479975689E+01  9.6962755088E+00
                       9.8685747401E+00  5.1360438281E+00  9.6962755087E+00
                       5.3278033613E+00  1.0268476408E+01  9.6962755088E+00
                      -3.6855887571E-12 -2.3777972682E-01 -2.0127980322E-12
            xcart9     4.9300708327E+00  5.1017836753E+00  4.8425801820E+00
                       1.4790212498E+01  1.5265161692E+01  1.4527740546E+01
                       9.8601416653E+00  1.0033303328E+01  4.6142688028E+00
                       9.8601416654E+00  1.0033303328E+01  1.4756051925E+01
                       1.4394987434E+01  1.0259327029E+01  9.6851603640E+00
                       9.8601416653E+00  1.5459854657E+01  9.6851603639E+00
                       9.8601416654E+00  5.1331774629E+00  9.6851603640E+00
                       5.3252958964E+00  1.0259327029E+01  9.6851603639E+00
                       2.0166014376E-12 -2.3821406597E-01  2.2870377687E-12
            xcart10    4.9257391024E+00  5.0970853984E+00  4.8372239936E+00
                       1.4777217307E+01  1.5250022175E+01  1.4511671981E+01
                       9.8514782049E+00  1.0023326613E+01  4.6134203342E+00
                       9.8514782046E+00  1.0023326613E+01  1.4735475640E+01
                       1.4380190983E+01  1.0249731618E+01  9.6744479870E+00
                       9.8514782049E+00  1.5439046581E+01  9.6744479874E+00
                       9.8514782046E+00  5.1301240135E+00  9.6744479870E+00
                       5.3227654270E+00  1.0249731618E+01  9.6744479873E+00
                      -6.4094073897E-12 -2.3890041492E-01 -7.5426973825E-12
             xred1     2.5076558844E-01  2.4923441156E-01  2.5076558844E-01
                       7.5076558844E-01  7.4923441156E-01  7.5076558844E-01
                       2.2970127571E-01  2.4279402130E-01  7.5720597870E-01
                       7.5720597870E-01  7.7029872429E-01  2.2970127571E-01
                       2.7321867782E-01  7.2678132218E-01  7.3539898175E-01
                       7.6268628176E-01  2.3731371824E-01  7.6268628176E-01
                       2.5158689265E-01  7.4841310735E-01  2.5158689265E-01
                       7.3539898175E-01  2.6460101825E-01  2.7321867782E-01
                      -1.1329265234E-02  1.1329265234E-02 -1.1329265234E-02
             xred2     2.5077166905E-01  2.4922833095E-01  2.5077166905E-01
                       7.5077166905E-01  7.4922833095E-01  7.5077166905E-01
                       2.2994587880E-01  2.4302632392E-01  7.5697367608E-01
                       7.5697367608E-01  7.7005412120E-01  2.2994587880E-01
                       2.7337962192E-01  7.2662037808E-01  7.3534656092E-01
                       7.6245448502E-01  2.3754551498E-01  7.6245448502E-01
                       2.5171460908E-01  7.4828539092E-01  2.5171460908E-01
                       7.3534656092E-01  2.6465343908E-01  2.7337962192E-01
                      -1.1358169881E-02  1.1358169881E-02 -1.1358169881E-02
             xred3     2.5079251659E-01  2.4920748341E-01  2.5079251659E-01
                       7.5079251659E-01  7.4920748341E-01  7.5079251659E-01
                       2.3018938377E-01  2.4321558136E-01  7.5678441864E-01
                       7.5678441864E-01  7.6981061623E-01  2.3018938377E-01
                       2.7354658710E-01  7.2645341290E-01  7.3525098691E-01
                       7.6222450213E-01  2.3777549787E-01  7.6222450213E-01
                       2.5181815606E-01  7.4818184394E-01  2.5181815606E-01
                       7.3525098691E-01  2.6474901309E-01  2.7354658710E-01
                      -1.1399067758E-02  1.1399067758E-02 -1.1399067758E-02
             xred4     2.5082007557E-01  2.4917992443E-01  2.5082007557E-01
                       7.5082007557E-01  7.4917992443E-01  7.5082007557E-01
                       2.3042105130E-01  2.4340726326E-01  7.5659273674E-01
                       7.5659273674E-01  7.6957894870E-01  2.3042105130E-01
                       2.7372596541E-01  7.2627403459E-01  7.3515392643E-01
                       7.6199347576E-01  2.3800652424E-01  7.6199347576E-01
                       2.5191609403E-01  7.4808390597E-01  2.5191609403E-01
                       7.3515392643E-01  2.6484607357E-01  2.7372596541E-01
                      -1.1443400801E-02  1.1443400801E-02 -1.1443400801E-02
             xred5     2.5086467934E-01  2.4913532066E-01  2.5086467934E-01
                       7.5086467934E-01  7.4913532066E-01  7.5086467934E-01
                       2.3065157654E-01  2.4360936745E-01  7.5639063255E-01
                       7.5639063255E-01  7.6934842346E-01  2.3065157654E-01
                       2.7389527951E-01  7.2610472049E-01  7.3506447515E-01
                       7.6174624379E-01  2.3825375621E-01  7.6174624379E-01
                       2.5201943129E-01  7.4798056871E-01  2.5201943129E-01
                       7.3506447515E-01  2.6493552485E-01  2.7389527951E-01
                      -1.1496997481E-02  1.1496997481E-02 -1.1496997481E-02
             xred6     2.5088636368E-01  2.4911363632E-01  2.5088636368E-01
                       7.5088636368E-01  7.4911363632E-01  7.5088636368E-01
                       2.3111536723E-01  2.4397576541E-01  7.5602423459E-01
                       7.5602423459E-01  7.6888463277E-01  2.3111536723E-01
                       2.7427721484E-01  7.2572278516E-01  7.3488988837E-01
                       7.6127669432E-01  2.3872330568E-01  7.6127669432E-01
                       2.5222330689E-01  7.4777669311E-01  2.5222330689E-01
                       7.3488988837E-01  2.6511011163E-01  2.7427721484E-01
                      -1.1579433582E-02  1.1579433582E-02 -1.1579433582E-02
             xred7     2.5093783407E-01  2.4906216593E-01  2.5093783407E-01
                       7.5093783407E-01  7.4906216593E-01  7.5093783407E-01
                       2.3134742603E-01  2.4417641785E-01  7.5582358215E-01
                       7.5582358215E-01  7.6865257397E-01  2.3134742603E-01
                       2.7443739116E-01  7.2556260884E-01  7.3480817237E-01
                       7.6102880785E-01  2.3897119215E-01  7.6102880785E-01
                       2.5231874110E-01  7.4768125890E-01  2.5231874110E-01
                       7.3480817237E-01  2.6519182763E-01  2.7443739116E-01
                      -1.1639788784E-02  1.1639788784E-02 -1.1639788784E-02
             xred8     2.5096876059E-01  2.4903123941E-01  2.5096876059E-01
                       7.5096876059E-01  7.4903123941E-01  7.5096876059E-01
                       2.3158975347E-01  2.4437172291E-01  7.5562827709E-01
                       7.5562827709E-01  7.6841024653E-01  2.3158975347E-01
                       2.7459899829E-01  7.2540100171E-01  7.3472333219E-01
                       7.6078887064E-01  2.3921112936E-01  7.6078887064E-01
                       2.5241932300E-01  7.4758067700E-01  2.5241932300E-01
                       7.3472333219E-01  2.6527666781E-01  2.7459899829E-01
                      -1.1686075835E-02  1.1686075835E-02 -1.1686075835E-02
             xred9     2.5098858209E-01  2.4901141791E-01  2.5098858209E-01
                       7.5098858209E-01  7.4901141791E-01  7.5098858209E-01
                       2.3181415446E-01  2.4461252609E-01  7.5538747391E-01
                       7.5538747391E-01  7.6818584554E-01  2.3181415446E-01
                       2.7476188175E-01  7.2523811825E-01  7.3467877979E-01
                       7.6056674423E-01  2.3943325577E-01  7.6056674423E-01
                       2.5253303845E-01  7.4746696155E-01  2.5253303845E-01
                       7.3467877979E-01  2.6532122021E-01  2.7476188175E-01
                      -1.1719236733E-02  1.1719236733E-02 -1.1719236733E-02
             xred10    2.5101532248E-01  2.4898467752E-01  2.5101532248E-01
                       7.5101532248E-01  7.4898467752E-01  7.5101532248E-01
                       2.3205036915E-01  2.4481614978E-01  7.5518385022E-01
                       7.5518385022E-01  7.6794963085E-01  2.3205036915E-01
                       2.7491743606E-01  7.2508256394E-01  7.3461624305E-01
                       7.6032417615E-01  2.3967582385E-01  7.6032417615E-01
                       2.5264236970E-01  7.4735763030E-01  2.5264236970E-01
                       7.3461624305E-01  2.6538375695E-01  2.7491743606E-01
                      -1.1765089263E-02  1.1765089263E-02 -1.1765089263E-02
            znucl       55.00000   53.00000   40.00000   17.00000

================================================================================

 chkinp: Checking input parameters for consistency, jdtset=   1.

 chkinp: Checking input parameters for consistency, jdtset=   2.

 chkinp: Checking input parameters for consistency, jdtset=   3.

 chkinp: Checking input parameters for consistency, jdtset=   4.

 chkinp: Checking input parameters for consistency, jdtset=   5.

 chkinp: Checking input parameters for consistency, jdtset=   6.

 chkinp: Checking input parameters for consistency, jdtset=   7.

 chkinp: Checking input parameters for consistency, jdtset=   8.

 chkinp: Checking input parameters for consistency, jdtset=   9.

 chkinp: Checking input parameters for consistency, jdtset=  10.

================================================================================
== DATASET  1 ==================================================================
-   mpi_nproc: 4, omp_nthreads: -1 (-1 if OMP is not activated)


--- !DatasetInfo
iteration_state: {dtset: 1, }
dimensions: {natom: 9, nkpt: 280, mband: 42, nsppol: 1, nspinor: 1, nspden: 1, mpw: 6146, }
cutoff_energies: {ecut:  16.0, pawecutdg:  40.0, }
electrons: {nelect:   7.20000000E+01, charge:   0.00000000E+00, occopt:   1.00000000E+00, tsmear:   1.00000000E-02, }
meta: {optdriver: 0, ionmov: 0, optcell: 0, iscf: 17, paral_kgb: 0, }
...

 Real(R)+Recip(G) space primitive vectors, cartesian coordinates (Bohr,Bohr^-1):
 R(1)=  0.0000000 10.2540875  9.7807445  G(1)= -0.0502911  0.0487610  0.0511209
 R(2)=  9.9421265  0.0000000  9.7807445  G(2)=  0.0502911 -0.0487610  0.0511209
 R(3)=  9.9421265 10.2540875  0.0000000  G(3)=  0.0502911  0.0487610 -0.0511209
 Unit cell volume ucvol=  1.9942436E+03 bohr^3
 Angles (23,13,12)=  6.02491767E+01  5.87004927E+01  6.10503307E+01 degrees

 Coarse grid specifications (used for wave-functions):

 getcut: wavevector=  0.0000  0.0000  0.0000  ngfft=  54  54  54
         ecut(hartree)=     16.000   => boxcut(ratio)=   2.09976

 Fine grid specifications (used for densities):

 getcut: wavevector=  0.0000  0.0000  0.0000  ngfft=  90  90  90
         ecut(hartree)=     40.000   => boxcut(ratio)=   2.21338

 getcut : COMMENT -
  Note that boxcut > 2.2 ; recall that boxcut=Gcut(box)/Gcut(sphere) = 2
  is sufficient for exact treatment of convolution.
  Such a large boxcut is a waste : you could raise ecut
  e.g. ecut=   48.990724 Hartrees makes boxcut=2


--- Pseudopotential description ------------------------------------------------
- pspini: atom type   1  psp file is ../../../Psps_for_tests/ATOMICDATA/Cs.GGA_PBE-JTH.xml
- pspatm: opening atomic psp file    ../../../Psps_for_tests/ATOMICDATA/Cs.GGA_PBE-JTH.xml
- pspatm : Reading pseudopotential header in XML form from ../../../Psps_for_tests/ATOMICDATA/Cs.GGA_PBE-JTH.xml
 Pseudopotential format is: paw10
 basis_size (lnmax)=  6 (lmn_size= 18), orbitals=   0   0   1   1   2   2
 Spheres core radius: rc_sph= 2.20660278
 1 radial meshes are used:
  - mesh 1: r(i)=AA*[exp(BB*(i-1))-1], size=1500 , AA= 0.15922E-03 BB= 0.87573E-02
 Shapefunction is SIN type: shapef(r)=[sin(pi*r/rshp)/(pi*r/rshp)]**2
 Radius for shape functions =  2.00394208
 mmax= 1500
 Radial grid used for partial waves is grid 1
 Radial grid used for projectors is grid 1
 Radial grid used for (t)core density is grid 1
 Radial grid used for Vloc is grid 1
 Radial grid used for pseudo valence density is grid 1
 Mesh size for Vloc has been set to 1341 to avoid numerical noise.
 Compensation charge density is not taken into account in XC energy/potential
 pspatm: atomic psp has been read  and splines computed

- pspini: atom type   2  psp file is ../../../Psps_for_tests/ATOMICDATA/I.GGA_PBE-JTH.xml
- pspatm: opening atomic psp file    ../../../Psps_for_tests/ATOMICDATA/I.GGA_PBE-JTH.xml
- pspatm : Reading pseudopotential header in XML form from ../../../Psps_for_tests/ATOMICDATA/I.GGA_PBE-JTH.xml
 Pseudopotential format is: paw10
 basis_size (lnmax)=  4 (lmn_size=  8), orbitals=   0   0   1   1
 Spheres core radius: rc_sph= 2.30022271
 1 radial meshes are used:
  - mesh 1: r(i)=AA*[exp(BB*(i-1))-1], size=2000 , AA= 0.12610E-03 BB= 0.66836E-02
 Shapefunction is SIN type: shapef(r)=[sin(pi*r/rshp)/(pi*r/rshp)]**2
 Radius for shape functions =  2.10879093
 mmax= 2000
 Radial grid used for partial waves is grid 1
 Radial grid used for projectors is grid 1
 Radial grid used for (t)core density is grid 1
 Radial grid used for Vloc is grid 1
 Radial grid used for pseudo valence density is grid 1
 Mesh size for Vloc has been set to 1792 to avoid numerical noise.
 Compensation charge density is not taken into account in XC energy/potential
 pspatm: atomic psp has been read  and splines computed

- pspini: atom type   3  psp file is ../../../Psps_for_tests/ATOMICDATA/Zr.GGA_PBE-JTH.xml
- pspatm: opening atomic psp file    ../../../Psps_for_tests/ATOMICDATA/Zr.GGA_PBE-JTH.xml
- pspatm : Reading pseudopotential header in XML form from ../../../Psps_for_tests/ATOMICDATA/Zr.GGA_PBE-JTH.xml
 Pseudopotential format is: paw10
 basis_size (lnmax)=  6 (lmn_size= 18), orbitals=   0   0   1   1   2   2
 Spheres core radius: rc_sph= 2.21000000
 1 radial meshes are used:
  - mesh 1: r(i)=AA*[exp(BB*(i-1))-1], size= 941 , AA= 0.35256E-03 BB= 0.14102E-01
 Shapefunction is BESSEL type: shapef(r,l)=aa(1,l)*jl(q(1,l)*r)+aa(2,l)*jl(q(2,l)*r)
 Radius for shape functions =  2.21000000
 mmax=  941
 Radial grid used for partial waves is grid 1
 Radial grid used for projectors is grid 1
 Radial grid used for (t)core density is grid 1
 Radial grid used for Vloc is grid 1
 Radial grid used for pseudo valence density is grid 1
 Mesh size for Vloc has been set to  777 to avoid numerical noise.
 Compensation charge density is not taken into account in XC energy/potential
 pspatm: atomic psp has been read  and splines computed

- pspini: atom type   4  psp file is ../../../Psps_for_tests/ATOMICDATA/Cl.GGA_PBE-JTH.xml
- pspatm: opening atomic psp file    ../../../Psps_for_tests/ATOMICDATA/Cl.GGA_PBE-JTH.xml
- pspatm : Reading pseudopotential header in XML form from ../../../Psps_for_tests/ATOMICDATA/Cl.GGA_PBE-JTH.xml
 Pseudopotential format is: paw10
 basis_size (lnmax)=  4 (lmn_size=  8), orbitals=   0   0   1   1
 Spheres core radius: rc_sph= 1.80315674
 1 radial meshes are used:
  - mesh 1: r(i)=AA*[exp(BB*(i-1))-1], size=1400 , AA= 0.50355E-03 BB= 0.85603E-02
 Shapefunction is SIN type: shapef(r)=[sin(pi*r/rshp)/(pi*r/rshp)]**2
 Radius for shape functions =  1.61320365
 mmax= 1400
 Radial grid used for partial waves is grid 1
 Radial grid used for projectors is grid 1
 Radial grid used for (t)core density is grid 1
 Radial grid used for Vloc is grid 1
 Radial grid used for pseudo valence density is grid 1
 Mesh size for Vloc has been set to 1238 to avoid numerical noise.
 Compensation charge density is not taken into account in XC energy/potential
 pspatm: atomic psp has been read  and splines computed

   2.74620051E+04                                ecore*ucvol(ha*bohr**3)
--------------------------------------------------------------------------------

_setup2: Arith. and geom. avg. npw (full set) are    6095.966    6095.957

================================================================================

--- !BeginCycle
iteration_state: {dtset: 1, }
solver: {iscf: 17, nstep: 2500, nline: 4, wfoptalg: 10, }
tolerances: {toldfe: 1.00E-08, }
...

     iter   Etot(hartree)      deltaE(h)  residm     nres2
 ETOT  1  -169.08535191631    -1.691E+02 2.689E-01 2.236E+01
 ETOT  2  -169.29276978115    -2.074E-01 2.232E-02 5.247E+00
 ETOT  3  -169.28982293389     2.947E-03 4.716E-03 1.100E+00
 ETOT  4  -169.29050032527    -6.774E-04 4.092E-03 6.683E-02
 ETOT  5  -169.29024130758     2.590E-04 1.753E-03 5.963E-03
 ETOT  6  -169.29028260836    -4.130E-05 1.403E-03 7.080E-04
 ETOT  7  -169.29028421140    -1.603E-06 8.259E-04 1.294E-04
 ETOT  8  -169.29028528964    -1.078E-06 9.474E-04 2.632E-05
 ETOT  9  -169.29028545797    -1.683E-07 9.536E-04 3.483E-06
 ETOT 10  -169.29028548328    -2.531E-08 1.542E-03 4.793E-07
 ETOT 11  -169.29028548576    -2.478E-09 1.061E-03 7.420E-08
 ETOT 12  -169.29028548652    -7.616E-10 6.870E-04 2.183E-08

 At SCF step   12, etot is converged : 
  for the second time, diff in etot=  7.616E-10 < toldfe=  1.000E-08

 Cartesian components of stress tensor (hartree/bohr^3)
  sigma(1 1)= -1.42073582E-04  sigma(3 2)= -5.51329579E-13
  sigma(2 2)= -1.42035628E-04  sigma(3 1)=  3.38226338E-13
  sigma(3 3)= -1.41873587E-04  sigma(2 1)=  2.19768720E-13


--- !ResultsGS
iteration_state: {dtset: 1, }
comment   : Summary of ground state results
lattice_vectors:
- [  0.0000000,  10.2540875,   9.7807445, ]
- [  9.9421265,   0.0000000,   9.7807445, ]
- [  9.9421265,  10.2540875,   0.0000000, ]
lattice_lengths: [  14.17072,   13.94664,   14.28258, ]
lattice_angles: [ 60.249,  58.700,  61.050, ] # degrees, (23, 13, 12)
lattice_volume:   1.9942436E+03
convergence: {deltae: -7.616E-10, res2:  2.183E-08, residm:  6.870E-04, diffor: null, }
etotal    :  -1.69290285E+02
entropy   :   0.00000000E+00
fermie    :   5.29974891E-04
cartesian_stress_tensor: # hartree/bohr^3
- [ -1.42073582E-04,   2.19768720E-13,   3.38226338E-13, ]
- [  2.19768720E-13,  -1.42035628E-04,  -5.51329579E-13, ]
- [  3.38226338E-13,  -5.51329579E-13,  -1.41873587E-04, ]
pressure_GPa:   4.1776E+00
xred      :
- [  2.5077E-01,   2.4923E-01,   2.5077E-01, Cs]
- [  7.5077E-01,   7.4923E-01,   7.5077E-01, Cs]
- [  2.2970E-01,   2.4279E-01,   7.5721E-01, Cl]
- [  7.5721E-01,   7.7030E-01,   2.2970E-01, Cl]
- [  2.7322E-01,   7.2678E-01,   7.3540E-01,  I]
- [  7.6269E-01,   2.3731E-01,   7.6269E-01, Cl]
- [  2.5159E-01,   7.4841E-01,   2.5159E-01,  I]
- [  7.3540E-01,   2.6460E-01,   2.7322E-01,  I]
- [ -1.1329E-02,   1.1329E-02,  -1.1329E-02, Zr]
cartesian_forces: # hartree/bohr
- [ -5.02409115E-17,  -1.18955921E-06,   5.10723929E-17, ]
- [ -5.02410405E-17,  -1.18955921E-06,   5.10723158E-17, ]
- [  1.25241171E-15,  -2.97653408E-05,   6.30580868E-05, ]
- [ -3.76669049E-15,  -2.97653407E-05,  -6.30580868E-05, ]
- [ -2.40436306E-05,  -7.97068803E-06,   9.66771059E-17, ]
- [  3.38444033E-15,   8.01334343E-05,  -3.44027184E-15, ]
- [  3.34213280E-16,   7.91317845E-06,  -3.39725295E-16, ]
- [  2.40436306E-05,  -7.97068803E-06,   5.87723859E-16, ]
- [ -4.30604864E-16,  -1.01954368E-05,   4.37711601E-16, ]
force_length_stats: {min:   1.18955921E-06, max:   8.01334343E-05, mean:   3.23046979E-05, }
...

 Integrated electronic density in atomic spheres:
 ------------------------------------------------
 Atom  Sphere_radius  Integrated_density
    1        2.20660          5.37095801
    2        2.20660          5.37095801
    3        1.80316          4.36931556
    4        1.80316          4.36931556
    5        2.30022          4.04562384
    6        1.80316          4.37660166
    7        2.30022          4.05181780
    8        2.30022          4.04562384
    9        2.21000          8.86511385

 PAW TEST:
 ==== Compensation charge inside spheres ============
 The following values must be close to each other ...
 Compensation charge over spherical meshes =     -5.650868344752542
 Compensation charge over fine fft grid    =     -5.650869398794942

 ==== Results concerning PAW augmentation regions ====

 Total pseudopotential strength Dij (hartree):
 Atom #  1
   0.41836  -0.13866  -0.00000   0.00000   0.00000  -0.00000   0.00000   0.00000   0.00000   0.00000  -0.00000  -0.00000 ...
  -0.13866   0.04162   0.00000   0.00000   0.00000   0.00000   0.00000   0.00000   0.00000   0.00000   0.00000   0.00000 ...
  -0.00000   0.00000  -0.09087   0.00000   0.00000  -0.16821   0.00000   0.00000   0.00000   0.00000   0.00000  -0.00000 ...
   0.00000   0.00000   0.00000  -0.09087   0.00000   0.00000  -0.16821   0.00000  -0.00000  -0.00000   0.00000   0.00000 ...
   0.00000   0.00000   0.00000   0.00000  -0.09086   0.00000   0.00000  -0.16821  -0.00000  -0.00000   0.00000   0.00000 ...
  -0.00000   0.00000  -0.16821   0.00000   0.00000   0.39743   0.00000   0.00000   0.00000   0.00000   0.00000   0.00000 ...
   0.00000   0.00000   0.00000  -0.16821   0.00000   0.00000   0.39743  -0.00001   0.00000   0.00000   0.00000   0.00000 ...
   0.00000   0.00000   0.00000   0.00000  -0.16821   0.00000  -0.00001   0.39744  -0.00000   0.00000   0.00000   0.00000 ...
   0.00000   0.00000   0.00000  -0.00000  -0.00000   0.00000   0.00000  -0.00000   0.00561  -0.00000   0.00000   0.00000 ...
   0.00000   0.00000   0.00000  -0.00000  -0.00000   0.00000   0.00000   0.00000  -0.00000   0.00561   0.00000   0.00000 ...
  -0.00000   0.00000   0.00000   0.00000   0.00000   0.00000   0.00000   0.00000   0.00000   0.00000   0.00561  -0.00000 ...
  -0.00000   0.00000  -0.00000   0.00000   0.00000   0.00000   0.00000   0.00000   0.00000   0.00000  -0.00000   0.00561 ...
   ...  only 12  components have been written...
 Atom #  9
   3.05423  -0.88911   0.00003   0.00000   0.00000   0.00000   0.00000   0.00000   0.00000   0.00000   0.00006   0.00000 ...
  -0.88911   0.26558  -0.00002   0.00000   0.00000   0.00000   0.00000   0.00000   0.00000   0.00000  -0.00000   0.00000 ...
   0.00003  -0.00002   0.27651   0.00000   0.00000  -0.05650   0.00000   0.00000   0.00000   0.00000   0.00006   0.00000 ...
   0.00000   0.00000   0.00000   0.27661   0.00000   0.00000  -0.05652   0.00000   0.00000  -0.00010   0.00000   0.00000 ...
   0.00000   0.00000   0.00000   0.00000   0.27644   0.00000   0.00000  -0.05650  -0.00010   0.00000   0.00000   0.00000 ...
   0.00000   0.00000  -0.05650   0.00000   0.00000   0.01540   0.00000   0.00000   0.00000   0.00000  -0.00001   0.00000 ...
   0.00000   0.00000   0.00000  -0.05652   0.00000   0.00000   0.01540   0.00000   0.00000   0.00002   0.00000   0.00000 ...
   0.00000   0.00000   0.00000   0.00000  -0.05650   0.00000   0.00000   0.01540   0.00002   0.00000   0.00000   0.00000 ...
   0.00000   0.00000   0.00000   0.00000  -0.00010   0.00000   0.00000   0.00002  -0.00583   0.00000   0.00000   0.00000 ...
   0.00000   0.00000   0.00000  -0.00010   0.00000   0.00000   0.00002   0.00000   0.00000  -0.00579   0.00000   0.00000 ...
   0.00006  -0.00000   0.00006   0.00000   0.00000  -0.00001   0.00000   0.00000   0.00000   0.00000  -0.00569   0.00000 ...
   0.00000   0.00000   0.00000   0.00000   0.00000   0.00000   0.00000   0.00000   0.00000   0.00000   0.00000  -0.00579 ...
   ...  only 12  components have been written...


 Augmentation waves occupancies Rhoij:
 Atom #  1
   1.99943  -0.01048   0.00005   0.00000   0.00000  -0.00001   0.00000   0.00000   0.00000   0.00000  -0.00187  -0.00421 ...
  -0.01048   0.22231   0.00008   0.00000   0.00000  -0.00006   0.00000   0.00000   0.00000   0.00000   0.03127   0.03806 ...
   0.00005   0.00008   2.00904   0.00000   0.00000  -0.00482   0.00000   0.00000   0.00000   0.00000   0.00356  -0.00303 ...
   0.00000   0.00000   0.00000   2.01002   0.00316   0.00000  -0.00507  -0.00050  -0.00279   0.00322   0.00000   0.00000 ...
   0.00000   0.00000   0.00000   0.00316   2.00708   0.00000  -0.00050  -0.00447  -0.00432  -0.00297   0.00000   0.00000 ...
  -0.00001  -0.00006  -0.00482   0.00000   0.00000   0.00016   0.00000   0.00000   0.00000   0.00000  -0.00018   0.00011 ...
   0.00000   0.00000   0.00000  -0.00507  -0.00050   0.00000   0.00020   0.00004   0.00010  -0.00020   0.00000   0.00000 ...
   0.00000   0.00000   0.00000  -0.00050  -0.00447   0.00000   0.00004   0.00014   0.00022   0.00011   0.00000   0.00000 ...
   0.00000   0.00000   0.00000  -0.00279  -0.00432   0.00000   0.00010   0.00022   0.03985  -0.00029   0.00000   0.00000 ...
   0.00000   0.00000   0.00000   0.00322  -0.00297   0.00000  -0.00020   0.00011  -0.00029   0.11210   0.00000   0.00000 ...
  -0.00187   0.03127   0.00356   0.00000   0.00000  -0.00018   0.00000   0.00000   0.00000   0.00000   0.03874   0.01132 ...
  -0.00421   0.03806  -0.00303   0.00000   0.00000   0.00011   0.00000   0.00000   0.00000   0.00000   0.01132   0.09076 ...
   ...  only 12  components have been written...
 Atom #  9
   1.99377  -0.06431  -0.00039   0.00000   0.00000  -0.00078   0.00000   0.00000   0.00000   0.00000  -0.00631   0.00000 ...
  -0.06431   1.07824   0.00294   0.00000   0.00000  -0.02691   0.00000   0.00000   0.00000   0.00000   0.05704   0.00000 ...
  -0.00039   0.00294   1.96921   0.00000   0.00000  -0.18885   0.00000   0.00000   0.00000   0.00000  -0.00045   0.00000 ...
   0.00000   0.00000   0.00000   1.96715   0.00000   0.00000  -0.20204   0.00000   0.00000  -0.00397   0.00000   0.00000 ...
   0.00000   0.00000   0.00000   0.00000   1.97046   0.00000   0.00000  -0.17834  -0.00438   0.00000   0.00000   0.00000 ...
  -0.00078  -0.02691  -0.18885   0.00000   0.00000   1.70944   0.00000   0.00000   0.00000   0.00000   0.06960   0.00000 ...
   0.00000   0.00000   0.00000  -0.20204   0.00000   0.00000   1.92640   0.00000   0.00000   0.03947   0.00000   0.00000 ...
   0.00000   0.00000   0.00000   0.00000  -0.17834   0.00000   0.00000   1.57068   0.09768   0.00000   0.00000   0.00000 ...
   0.00000   0.00000   0.00000   0.00000  -0.00438   0.00000   0.00000   0.09768   0.52178   0.00000   0.00000   0.00000 ...
   0.00000   0.00000   0.00000  -0.00397   0.00000   0.00000   0.03947   0.00000   0.00000   0.53814   0.00000   0.00000 ...
  -0.00631   0.05704  -0.00045   0.00000   0.00000   0.06960   0.00000   0.00000   0.00000   0.00000   1.62406   0.00000 ...
   0.00000   0.00000   0.00000   0.00000   0.00000   0.00000   0.00000   0.00000   0.00000   0.00000   0.00000   0.53257 ...
   ...  only 12  components have been written...


================================================================================

 ----iterations are completed or convergence reached----

 Mean square residual over all n,k,spin=   36.941E-08; max=  68.697E-05
 reduced coordinates (array xred) for    9 atoms
       0.250765588440      0.249234411560      0.250765588440
       0.750765588440      0.749234411560      0.750765588440
       0.229701275710      0.242794021300      0.757205978700
       0.757205978700      0.770298724290      0.229701275710
       0.273218677820      0.726781322180      0.735398981750
       0.762686281760      0.237313718240      0.762686281760
       0.251586892650      0.748413107350      0.251586892650
       0.735398981750      0.264601018250      0.273218677820
      -0.011329265234      0.011329265234     -0.011329265234
 rms dE/dt=  3.6357E-04; max dE/dt=  8.7890E-04; dE/dt below (all hartree)
    1      -0.000030876859      0.000000000000     -0.000030876859
    2      -0.000030876859      0.000000000000     -0.000030876859
    3      -0.000354613331     -0.000616755037      0.000262141706
    4       0.000878896744      0.000616755037      0.000262141706
    5       0.000038657429      0.000239044816      0.000277702246
    6      -0.000864769953      0.000000000000     -0.000864769953
    7      -0.000124217128      0.000000000000     -0.000124217128
    8       0.000038657429     -0.000239044816     -0.000200387387
    9       0.000061470198      0.000000000000      0.000061470198

 cartesian coordinates (angstrom) at end:
    1      2.63057337200380     2.72142322641909     2.58787354147243
    2      7.89172011601125     8.14765264519405     7.76362062441664
    3      5.26114674403463     5.35518517736475     2.44551615520163
    4      5.26114674397887     5.35518517759918     7.90597801068132
    5      7.69274514517359     5.47299081655199     5.17574708284925
    6      5.26114674403521     8.27702147876441     5.17574708305422
    7      5.26114674398119     2.73033639655122     5.17574708284019
    8      2.82954834284221     5.47299081675738     5.17574708304279
    9     -0.00000000000120    -0.12295038461167    -0.00000000000474

 cartesian forces (hartree/bohr) at end:
    1     -0.00000000000000    -0.00000118955921     0.00000000000000
    2     -0.00000000000000    -0.00000118955921     0.00000000000000
    3      0.00000000000000    -0.00002976534075     0.00006305808684
    4     -0.00000000000000    -0.00002976534075    -0.00006305808684
    5     -0.00002404363057    -0.00000797068803     0.00000000000000
    6      0.00000000000000     0.00008013343429    -0.00000000000000
    7      0.00000000000000     0.00000791317845    -0.00000000000000
    8      0.00002404363057    -0.00000797068803     0.00000000000000
    9     -0.00000000000000    -0.00001019543676     0.00000000000000
 frms,max,avg= 2.5530385E-05 8.0133434E-05   0.000E+00  4.201E-06  0.000E+00 h/b

 cartesian forces (eV/Angstrom) at end:
    1     -0.00000000000000    -0.00006116958899     0.00000000000000
    2     -0.00000000000000    -0.00006116958899     0.00000000000000
    3      0.00000000000006    -0.00153059523318     0.00324257692638
    4     -0.00000000000019    -0.00153059523293    -0.00324257692625
    5     -0.00123637309041    -0.00040986922331     0.00000000000000
    6      0.00000000000017     0.00412062652199    -0.00000000000018
    7      0.00000000000002     0.00040691196227    -0.00000000000002
    8      0.00123637309037    -0.00040986922333     0.00000000000003
    9     -0.00000000000002    -0.00052427039352     0.00000000000002
 frms,max,avg= 1.3128250E-03 4.1206265E-03   0.000E+00  2.160E-04  0.000E+00 e/A
 length scales= 14.170718915000 13.946642697000 14.282583462000 bohr
              =  7.498821479153  7.380245451601  7.558017647875 angstroms
 prteigrs : about to open file Cs2TiI6o_DS1_EIG
 Fermi (or HOMO) energy (hartree) =   0.00053   Average Vxc (hartree)=  -0.32226
 Eigenvalues (hartree) for nkpt= 280  k points:
 kpt#   1, nband= 42, wtk=  0.00058, kpt=  0.0000  0.0000  0.0000 (reduced coord)
  -1.82482   -1.01863   -1.01736   -1.01588   -0.75337   -0.75264   -0.54819   -0.53985
  -0.53309   -0.44229   -0.42970   -0.42213   -0.28275   -0.27891   -0.27859   -0.27399
  -0.27376   -0.27274   -0.17670   -0.13983   -0.13191   -0.12600   -0.12339   -0.12312
  -0.11972   -0.11450   -0.09349   -0.08135   -0.07981   -0.07334   -0.03540   -0.03477
  -0.03042   -0.02567   -0.01780    0.00053    0.05508    0.06116    0.06688    0.14239
   0.15121    0.15947
 prteigrs : prtvol=0 or 1, do not print more k-points.


--- !EnergyTerms
iteration_state     : {dtset: 1, }
comment             : Components of total free energy in Hartree
kinetic             :  5.28262970511784E+01
hartree             :  3.43231953363813E+01
xc                  : -5.54736798726634E+01
Ewald energy        : -1.30912377611246E+02
psp_core            :  1.37706369324339E+01
local_psp           : -1.16319636402395E+02
spherical_terms     :  3.24952439008833E+01
total_energy        : -1.69290320665428E+02
total_energy_eV     : -4.60662389940945E+03
...


--- !EnergyTermsDC
iteration_state     : {dtset: 1, }
comment             : '"Double-counting" decomposition of free energy'
band_energy         : -2.51805702426379E+01
Ewald energy        : -1.30912377611246E+02
psp_core            :  1.37706369324339E+01
xc_dc               : -4.62120828226266E+01
spherical_terms     :  1.92441082575591E+01
total_energy_dc     : -1.69290285486518E+02
total_energy_dc_eV  : -4.60662294214263E+03
...


 Cartesian components of stress tensor (hartree/bohr^3)
  sigma(1 1)= -1.42073582E-04  sigma(3 2)= -5.51329579E-13
  sigma(2 2)= -1.42035628E-04  sigma(3 1)=  3.38226338E-13
  sigma(3 3)= -1.41873587E-04  sigma(2 1)=  2.19768720E-13

-Cartesian components of stress tensor (GPa)         [Pressure=  4.1776E+00 GPa]
- sigma(1 1)= -4.17994840E+00  sigma(3 2)= -1.62206735E-08
- sigma(2 2)= -4.17883175E+00  sigma(3 1)=  9.95096073E-09
- sigma(3 3)= -4.17406433E+00  sigma(2 1)=  6.46581790E-09

================================================================================
== DATASET  2 ==================================================================
-   mpi_nproc: 4, omp_nthreads: -1 (-1 if OMP is not activated)


--- !DatasetInfo
iteration_state: {dtset: 2, }
dimensions: {natom: 9, nkpt: 280, mband: 42, nsppol: 1, nspinor: 1, nspden: 1, mpw: 6122, }
cutoff_energies: {ecut:  16.0, pawecutdg:  40.0, }
electrons: {nelect:   7.20000000E+01, charge:   0.00000000E+00, occopt:   1.00000000E+00, tsmear:   1.00000000E-02, }
meta: {optdriver: 0, ionmov: 0, optcell: 0, iscf: 17, paral_kgb: 0, }
...

 Real(R)+Recip(G) space primitive vectors, cartesian coordinates (Bohr,Bohr^-1):
 R(1)=  0.0000000 10.2435499  9.7695322  G(1)= -0.0503319  0.0488112  0.0511795
 R(2)=  9.9340632  0.0000000  9.7695322  G(2)=  0.0503319 -0.0488112  0.0511795
 R(3)=  9.9340632 10.2435499  0.0000000  G(3)=  0.0503319  0.0488112 -0.0511795
 Unit cell volume ucvol=  1.9882966E+03 bohr^3
 Angles (23,13,12)=  6.02401098E+01  5.87021810E+01  6.10577093E+01 degrees

 Coarse grid specifications (used for wave-functions):

 getcut: wavevector=  0.0000  0.0000  0.0000  ngfft=  54  54  54
         ecut(hartree)=     16.000   => boxcut(ratio)=   2.10170

 Fine grid specifications (used for densities):

 getcut: wavevector=  0.0000  0.0000  0.0000  ngfft=  90  90  90
         ecut(hartree)=     40.000   => boxcut(ratio)=   2.21542

 getcut : COMMENT -
  Note that boxcut > 2.2 ; recall that boxcut=Gcut(box)/Gcut(sphere) = 2
  is sufficient for exact treatment of convolution.
  Such a large boxcut is a waste : you could raise ecut
  e.g. ecut=   49.081073 Hartrees makes boxcut=2


--- Pseudopotential description ------------------------------------------------
- pspini: atom type   1  psp file is ../../../Psps_for_tests/ATOMICDATA/Cs.GGA_PBE-JTH.xml
- pspatm: opening atomic psp file    ../../../Psps_for_tests/ATOMICDATA/Cs.GGA_PBE-JTH.xml
- pspatm : Reading pseudopotential header in XML form from ../../../Psps_for_tests/ATOMICDATA/Cs.GGA_PBE-JTH.xml
 Pseudopotential format is: paw10
 basis_size (lnmax)=  6 (lmn_size= 18), orbitals=   0   0   1   1   2   2
 Spheres core radius: rc_sph= 2.20660278
 1 radial meshes are used:
  - mesh 1: r(i)=AA*[exp(BB*(i-1))-1], size=1500 , AA= 0.15922E-03 BB= 0.87573E-02
 Shapefunction is SIN type: shapef(r)=[sin(pi*r/rshp)/(pi*r/rshp)]**2
 Radius for shape functions =  2.00394208
 mmax= 1500
 Radial grid used for partial waves is grid 1
 Radial grid used for projectors is grid 1
 Radial grid used for (t)core density is grid 1
 Radial grid used for Vloc is grid 1
 Radial grid used for pseudo valence density is grid 1
 Mesh size for Vloc has been set to 1341 to avoid numerical noise.
 Compensation charge density is not taken into account in XC energy/potential
 pspatm: atomic psp has been read  and splines computed

- pspini: atom type   2  psp file is ../../../Psps_for_tests/ATOMICDATA/I.GGA_PBE-JTH.xml
- pspatm: opening atomic psp file    ../../../Psps_for_tests/ATOMICDATA/I.GGA_PBE-JTH.xml
- pspatm : Reading pseudopotential header in XML form from ../../../Psps_for_tests/ATOMICDATA/I.GGA_PBE-JTH.xml
 Pseudopotential format is: paw10
 basis_size (lnmax)=  4 (lmn_size=  8), orbitals=   0   0   1   1
 Spheres core radius: rc_sph= 2.30022271
 1 radial meshes are used:
  - mesh 1: r(i)=AA*[exp(BB*(i-1))-1], size=2000 , AA= 0.12610E-03 BB= 0.66836E-02
 Shapefunction is SIN type: shapef(r)=[sin(pi*r/rshp)/(pi*r/rshp)]**2
 Radius for shape functions =  2.10879093
 mmax= 2000
 Radial grid used for partial waves is grid 1
 Radial grid used for projectors is grid 1
 Radial grid used for (t)core density is grid 1
 Radial grid used for Vloc is grid 1
 Radial grid used for pseudo valence density is grid 1
 Mesh size for Vloc has been set to 1792 to avoid numerical noise.
 Compensation charge density is not taken into account in XC energy/potential
 pspatm: atomic psp has been read  and splines computed

- pspini: atom type   3  psp file is ../../../Psps_for_tests/ATOMICDATA/Zr.GGA_PBE-JTH.xml
- pspatm: opening atomic psp file    ../../../Psps_for_tests/ATOMICDATA/Zr.GGA_PBE-JTH.xml
- pspatm : Reading pseudopotential header in XML form from ../../../Psps_for_tests/ATOMICDATA/Zr.GGA_PBE-JTH.xml
 Pseudopotential format is: paw10
 basis_size (lnmax)=  6 (lmn_size= 18), orbitals=   0   0   1   1   2   2
 Spheres core radius: rc_sph= 2.21000000
 1 radial meshes are used:
  - mesh 1: r(i)=AA*[exp(BB*(i-1))-1], size= 941 , AA= 0.35256E-03 BB= 0.14102E-01
 Shapefunction is BESSEL type: shapef(r,l)=aa(1,l)*jl(q(1,l)*r)+aa(2,l)*jl(q(2,l)*r)
 Radius for shape functions =  2.21000000
 mmax=  941
 Radial grid used for partial waves is grid 1
 Radial grid used for projectors is grid 1
 Radial grid used for (t)core density is grid 1
 Radial grid used for Vloc is grid 1
 Radial grid used for pseudo valence density is grid 1
 Mesh size for Vloc has been set to  777 to avoid numerical noise.
 Compensation charge density is not taken into account in XC energy/potential
 pspatm: atomic psp has been read  and splines computed

- pspini: atom type   4  psp file is ../../../Psps_for_tests/ATOMICDATA/Cl.GGA_PBE-JTH.xml
- pspatm: opening atomic psp file    ../../../Psps_for_tests/ATOMICDATA/Cl.GGA_PBE-JTH.xml
- pspatm : Reading pseudopotential header in XML form from ../../../Psps_for_tests/ATOMICDATA/Cl.GGA_PBE-JTH.xml
 Pseudopotential format is: paw10
 basis_size (lnmax)=  4 (lmn_size=  8), orbitals=   0   0   1   1
 Spheres core radius: rc_sph= 1.80315674
 1 radial meshes are used:
  - mesh 1: r(i)=AA*[exp(BB*(i-1))-1], size=1400 , AA= 0.50355E-03 BB= 0.85603E-02
 Shapefunction is SIN type: shapef(r)=[sin(pi*r/rshp)/(pi*r/rshp)]**2
 Radius for shape functions =  1.61320365
 mmax= 1400
 Radial grid used for partial waves is grid 1
 Radial grid used for projectors is grid 1
 Radial grid used for (t)core density is grid 1
 Radial grid used for Vloc is grid 1
 Radial grid used for pseudo valence density is grid 1
 Mesh size for Vloc has been set to 1238 to avoid numerical noise.
 Compensation charge density is not taken into account in XC energy/potential
 pspatm: atomic psp has been read  and splines computed

--------------------------------------------------------------------------------

_setup2: Arith. and geom. avg. npw (full set) are    6077.996    6077.988

================================================================================

--- !BeginCycle
iteration_state: {dtset: 2, }
solver: {iscf: 17, nstep: 2500, nline: 4, wfoptalg: 10, }
tolerances: {toldfe: 1.00E-08, }
...

     iter   Etot(hartree)      deltaE(h)  residm     nres2
 ETOT  1  -169.08722309893    -1.691E+02 2.524E-01 2.261E+01
 ETOT  2  -169.29195206610    -2.047E-01 1.967E-02 5.365E+00
 ETOT  3  -169.28894435411     3.008E-03 5.846E-03 1.129E+00
 ETOT  4  -169.28963062311    -6.863E-04 5.077E-03 6.872E-02
 ETOT  5  -169.28936211261     2.685E-04 1.906E-03 6.006E-03
 ETOT  6  -169.28940376503    -4.165E-05 1.783E-03 7.158E-04
 ETOT  7  -169.28940534421    -1.579E-06 7.531E-04 1.321E-04
 ETOT  8  -169.28940640775    -1.064E-06 1.255E-03 2.591E-05
 ETOT  9  -169.28940656427    -1.565E-07 1.117E-03 3.795E-06
 ETOT 10  -169.28940659386    -2.959E-08 1.043E-03 5.406E-07
 ETOT 11  -169.28940659611    -2.248E-09 7.892E-04 8.101E-08
 ETOT 12  -169.28940659697    -8.613E-10 5.026E-04 3.304E-08

 At SCF step   12, etot is converged : 
  for the second time, diff in etot=  8.613E-10 < toldfe=  1.000E-08

 Cartesian components of stress tensor (hartree/bohr^3)
  sigma(1 1)= -1.45109949E-04  sigma(3 2)= -7.96863056E-14
  sigma(2 2)= -1.45158965E-04  sigma(3 1)=  3.06014887E-14
  sigma(3 3)= -1.44989853E-04  sigma(2 1)=  4.91819818E-14


--- !ResultsGS
iteration_state: {dtset: 2, }
comment   : Summary of ground state results
lattice_vectors:
- [  0.0000000,  10.2435499,   9.7695322, ]
- [  9.9340632,   0.0000000,   9.7695322, ]
- [  9.9340632,  10.2435499,   0.0000000, ]
lattice_lengths: [  14.15535,   13.93303,   14.26941, ]
lattice_angles: [ 60.240,  58.702,  61.058, ] # degrees, (23, 13, 12)
lattice_volume:   1.9882966E+03
convergence: {deltae: -8.613E-10, res2:  3.304E-08, residm:  5.026E-04, diffor: null, }
etotal    :  -1.69289407E+02
entropy   :   0.00000000E+00
fermie    :   1.29635871E-03
cartesian_stress_tensor: # hartree/bohr^3
- [ -1.45109949E-04,   4.91819818E-14,   3.06014887E-14, ]
- [  4.91819818E-14,  -1.45158965E-04,  -7.96863056E-14, ]
- [  3.06014887E-14,  -7.96863056E-14,  -1.44989853E-04, ]
pressure_GPa:   4.2686E+00
xred      :
- [  2.5077E-01,   2.4923E-01,   2.5077E-01, Cs]
- [  7.5077E-01,   7.4923E-01,   7.5077E-01, Cs]
- [  2.2995E-01,   2.4303E-01,   7.5697E-01, Cl]
- [  7.5697E-01,   7.7005E-01,   2.2995E-01, Cl]
- [  2.7338E-01,   7.2662E-01,   7.3535E-01,  I]
- [  7.6245E-01,   2.3755E-01,   7.6245E-01, Cl]
- [  2.5171E-01,   7.4829E-01,   2.5171E-01,  I]
- [  7.3535E-01,   2.6465E-01,   2.7338E-01,  I]
- [ -1.1358E-02,   1.1358E-02,  -1.1358E-02, Zr]
cartesian_forces: # hartree/bohr
- [  4.95344183E-17,   5.67341270E-06,  -5.03686842E-17, ]
- [  4.95344183E-17,   5.67341270E-06,  -5.03678372E-17, ]
- [ -2.89429527E-17,  -1.78986435E-05,   4.35061396E-05, ]
- [ -2.83595785E-16,  -1.78986435E-05,  -4.35061396E-05, ]
- [ -1.99444096E-05,  -1.72889881E-05,   1.22127561E-16, ]
- [  6.26342179E-16,   7.17382517E-05,  -6.36892136E-16, ]
- [  4.83313567E-17,   5.53557659E-06,  -4.91450021E-17, ]
- [  1.99444096E-05,  -1.72889881E-05,   1.84855165E-16, ]
- [ -1.59299768E-16,  -1.82453904E-05,   1.61981652E-16, ]
force_length_stats: {min:   5.53557659E-06, max:   7.17382517E-05, mean:   2.81937695E-05, }
...

 Integrated electronic density in atomic spheres:
 ------------------------------------------------
 Atom  Sphere_radius  Integrated_density
    1        2.20660          5.37620647
    2        2.20660          5.37620647
    3        1.80316          4.36794892
    4        1.80316          4.36794892
    5        2.30022          4.04841570
    6        1.80316          4.37575061
    7        2.30022          4.05286010
    8        2.30022          4.04841570
    9        2.21000          8.86610089

 PAW TEST:
 ==== Compensation charge inside spheres ============
 The following values must be close to each other ...
 Compensation charge over spherical meshes =     -5.651084545072030
 Compensation charge over fine fft grid    =     -5.651084141132228

 ==== Results concerning PAW augmentation regions ====

 Total pseudopotential strength Dij (hartree):
 Atom #  1
   0.41817  -0.13860  -0.00000   0.00000   0.00000  -0.00000   0.00000   0.00000   0.00000   0.00000  -0.00000  -0.00000 ...
  -0.13860   0.04160   0.00000   0.00000   0.00000   0.00000   0.00000   0.00000   0.00000   0.00000   0.00000   0.00000 ...
  -0.00000   0.00000  -0.09084   0.00000   0.00000  -0.16822   0.00000   0.00000   0.00000   0.00000   0.00000  -0.00000 ...
[...]
                       5.2177622428E+00  2.7163605210E+00  5.1251661262E+00
                       2.8180252174E+00  5.4290020390E+00  5.1251661261E+00
                       1.0671395196E-12 -1.2605745448E-01  1.2102482624E-12
           xangst10    2.6065888684E+00  2.6972614230E+00  2.5597486903E+00
                       7.8197666053E+00  8.0699641657E+00  7.6792460708E+00
                       5.2131777370E+00  5.3041159980E+00  2.4413168945E+00
                       5.2131777368E+00  5.3041159980E+00  7.7976778665E+00
                       7.6096693232E+00  5.4239243665E+00  5.1194973804E+00
                       5.2131777370E+00  8.1699915729E+00  5.1194973806E+00
                       5.2131777368E+00  2.7147447052E+00  5.1194973804E+00
                       2.8166861506E+00  5.4239243665E+00  5.1194973806E+00
                      -3.3917123112E-12 -1.2642065470E-01 -3.9914235461E-12
            xcart1     4.9710632455E+00  5.1427445896E+00  4.8903722599E+00
                       1.4913189737E+01  1.5396832125E+01  1.4671116780E+01
                       9.9421264911E+00  1.0119833376E+01  4.6213557869E+00
                       9.9421264910E+00  1.0119833377E+01  1.4940133253E+01
                       1.4537181534E+01  1.0342453771E+01  9.7807445197E+00
                       9.9421264911E+00  1.5641303791E+01  9.7807445201E+00
                       9.9421264910E+00  5.1595880401E+00  9.7807445196E+00
                       5.3470714477E+00  1.0342453771E+01  9.7807445200E+00
                      -2.2630526613E-12 -2.3234255485E-01 -8.9653301205E-12
            xcart2     4.9670316034E+00  5.1375841999E+00  4.8847660873E+00
                       1.4901094810E+01  1.5381134078E+01  1.4654298262E+01
                       9.9340632068E+00  1.0109559686E+01  4.6207171522E+00
                       9.9340632068E+00  1.0109559686E+01  1.4918347197E+01
                       1.4523271978E+01  1.0332936967E+01  9.7695321747E+00
                       9.9340632068E+00  1.5620481094E+01  9.7695321747E+00
                       9.9340632068E+00  5.1569023064E+00  9.7695321747E+00
                       5.3448544353E+00  1.0332936967E+01  9.7695321747E+00
                      -3.4900752349E-13 -2.3269595940E-01 -6.6047698967E-13
            xcart3     4.9624098300E+00  5.1330071588E+00  4.8794729292E+00
                       1.4887229490E+01  1.5366580370E+01  1.4638418788E+01
                       9.9248196600E+00  1.0100268664E+01  4.6199334238E+00
                       9.9248196599E+00  1.0100268665E+01  1.4897958293E+01
                       1.4507152564E+01  1.0323603829E+01  9.7589458584E+00
                       9.9248196600E+00  1.5600560492E+01  9.7589458586E+00
                       9.9248196599E+00  5.1539990720E+00  9.7589458583E+00
                       5.3424867556E+00  1.0323603829E+01  9.7589458586E+00
                      -3.3154774674E-12 -2.3330638888E-01 -5.3981679799E-12
            xcart4     4.9576299569E+00  5.1286404279E+00  4.8742650227E+00
                       1.4872889871E+01  1.5352384313E+01  1.4622795068E+01
                       9.9152599138E+00  1.0090976180E+01  4.6191295608E+00
                       9.9152599138E+00  1.0090976180E+01  1.4877930530E+01
                       1.4490438079E+01  1.0314529625E+01  9.7485300452E+00
                       9.9152599138E+00  1.5580852277E+01  9.7485300454E+00
                       9.9152599138E+00  5.1510512519E+00  9.7485300452E+00
                       5.3400817488E+00  1.0314529625E+01  9.7485300454E+00
                       1.6844956028E-12 -2.3398879793E-01 -4.2829164484E-12
            xcart5     4.9530830230E+00  5.1245059709E+00  4.8689372667E+00
                       1.4859249069E+01  1.5338191661E+01  1.4606811800E+01
                       9.9061660461E+00  1.0081338886E+01  4.6182935687E+00
                       9.9061660460E+00  1.0081338886E+01  1.4857455498E+01
                       1.4474584673E+01  1.0305197808E+01  9.7378745333E+00
                       9.9061660461E+00  1.5560473419E+01  9.7378745334E+00
                       9.9061660460E+00  5.1480945179E+00  9.7378745333E+00
                       5.3377474187E+00  1.0305197808E+01  9.7378745334E+00
                      -8.8450429157E-13 -2.3485343730E-01 -3.3514175907E-12
            xcart6     4.9433173107E+00  5.1149434231E+00  4.8588583408E+00
                       1.4829951932E+01  1.5308688807E+01  1.4576575022E+01
                       9.8866346214E+00  1.0062649759E+01  4.6168010249E+00
                       9.8866346215E+00  1.0062649759E+01  1.4818632338E+01
                       1.4440543827E+01  1.0287192499E+01  9.7177166815E+00
                       9.8866346214E+00  1.5520521577E+01  9.7177166815E+00
                       9.8866346215E+00  5.1422003405E+00  9.7177166815E+00
                       5.3327254162E+00  1.0287192500E+01  9.7177166815E+00
                       2.5682362973E-12 -2.3607559524E-01 -1.4303583244E-12
            xcart7     4.9388468924E+00  5.1109695617E+00  4.8534320122E+00
                       1.4816540677E+01  1.5294706065E+01  1.4560296037E+01
                       9.8776937847E+00  1.0053089431E+01  4.6158452929E+00
                       9.8776937848E+00  1.0053089431E+01  1.4797882756E+01
                       1.4425095389E+01  1.0277890886E+01  9.7068640245E+00
                       9.8776937847E+00  1.5500233701E+01  9.7068640244E+00
                       9.8776937848E+00  5.1390951484E+00  9.7068640245E+00
                       5.3302921805E+00  1.0277890886E+01  9.7068640244E+00
                       4.2011391147E-12 -2.3707308386E-01  2.4490404852E-12
            xcart8     4.9342873701E+00  5.1065288448E+00  4.8481377544E+00
                       1.4802862110E+01  1.5280163270E+01  1.4544413263E+01
                       9.8685747402E+00  1.0043595341E+01  4.6150536065E+00
                       9.8685747401E+00  1.0043595341E+01  1.4777497411E+01
                       1.4409346119E+01  1.0268476407E+01  9.6962755087E+00
                       9.8685747402E+00  1.5479975689E+01  9.6962755088E+00
                       9.8685747401E+00  5.1360438281E+00  9.6962755087E+00
                       5.3278033613E+00  1.0268476408E+01  9.6962755088E+00
                      -3.6855887571E-12 -2.3777972682E-01 -2.0127980322E-12
            xcart9     4.9300708327E+00  5.1017836753E+00  4.8425801820E+00
                       1.4790212498E+01  1.5265161692E+01  1.4527740546E+01
                       9.8601416653E+00  1.0033303328E+01  4.6142688028E+00
                       9.8601416654E+00  1.0033303328E+01  1.4756051925E+01
                       1.4394987434E+01  1.0259327029E+01  9.6851603640E+00
                       9.8601416653E+00  1.5459854657E+01  9.6851603639E+00
                       9.8601416654E+00  5.1331774629E+00  9.6851603640E+00
                       5.3252958964E+00  1.0259327029E+01  9.6851603639E+00
                       2.0166014376E-12 -2.3821406597E-01  2.2870377687E-12
            xcart10    4.9257391024E+00  5.0970853984E+00  4.8372239936E+00
                       1.4777217307E+01  1.5250022175E+01  1.4511671981E+01
                       9.8514782049E+00  1.0023326613E+01  4.6134203342E+00
                       9.8514782046E+00  1.0023326613E+01  1.4735475640E+01
                       1.4380190983E+01  1.0249731618E+01  9.6744479870E+00
                       9.8514782049E+00  1.5439046581E+01  9.6744479874E+00
                       9.8514782046E+00  5.1301240135E+00  9.6744479870E+00
                       5.3227654270E+00  1.0249731618E+01  9.6744479873E+00
                      -6.4094073897E-12 -2.3890041492E-01 -7.5426973825E-12
             xred1     2.5076558844E-01  2.4923441156E-01  2.5076558844E-01
                       7.5076558844E-01  7.4923441156E-01  7.5076558844E-01
                       2.2970127571E-01  2.4279402130E-01  7.5720597870E-01
                       7.5720597870E-01  7.7029872429E-01  2.2970127571E-01
                       2.7321867782E-01  7.2678132218E-01  7.3539898175E-01
                       7.6268628176E-01  2.3731371824E-01  7.6268628176E-01
                       2.5158689265E-01  7.4841310735E-01  2.5158689265E-01
                       7.3539898175E-01  2.6460101825E-01  2.7321867782E-01
                      -1.1329265234E-02  1.1329265234E-02 -1.1329265234E-02
             xred2     2.5077166905E-01  2.4922833095E-01  2.5077166905E-01
                       7.5077166905E-01  7.4922833095E-01  7.5077166905E-01
                       2.2994587880E-01  2.4302632392E-01  7.5697367608E-01
                       7.5697367608E-01  7.7005412120E-01  2.2994587880E-01
                       2.7337962192E-01  7.2662037808E-01  7.3534656092E-01
                       7.6245448502E-01  2.3754551498E-01  7.6245448502E-01
                       2.5171460908E-01  7.4828539092E-01  2.5171460908E-01
                       7.3534656092E-01  2.6465343908E-01  2.7337962192E-01
                      -1.1358169881E-02  1.1358169881E-02 -1.1358169881E-02
             xred3     2.5079251659E-01  2.4920748341E-01  2.5079251659E-01
                       7.5079251659E-01  7.4920748341E-01  7.5079251659E-01
                       2.3018938377E-01  2.4321558136E-01  7.5678441864E-01
                       7.5678441864E-01  7.6981061623E-01  2.3018938377E-01
                       2.7354658710E-01  7.2645341290E-01  7.3525098691E-01
                       7.6222450213E-01  2.3777549787E-01  7.6222450213E-01
                       2.5181815606E-01  7.4818184394E-01  2.5181815606E-01
                       7.3525098691E-01  2.6474901309E-01  2.7354658710E-01
                      -1.1399067758E-02  1.1399067758E-02 -1.1399067758E-02
             xred4     2.5082007557E-01  2.4917992443E-01  2.5082007557E-01
                       7.5082007557E-01  7.4917992443E-01  7.5082007557E-01
                       2.3042105130E-01  2.4340726326E-01  7.5659273674E-01
                       7.5659273674E-01  7.6957894870E-01  2.3042105130E-01
                       2.7372596541E-01  7.2627403459E-01  7.3515392643E-01
                       7.6199347576E-01  2.3800652424E-01  7.6199347576E-01
                       2.5191609403E-01  7.4808390597E-01  2.5191609403E-01
                       7.3515392643E-01  2.6484607357E-01  2.7372596541E-01
                      -1.1443400801E-02  1.1443400801E-02 -1.1443400801E-02
             xred5     2.5086467934E-01  2.4913532066E-01  2.5086467934E-01
                       7.5086467934E-01  7.4913532066E-01  7.5086467934E-01
                       2.3065157654E-01  2.4360936745E-01  7.5639063255E-01
                       7.5639063255E-01  7.6934842346E-01  2.3065157654E-01
                       2.7389527951E-01  7.2610472049E-01  7.3506447515E-01
                       7.6174624379E-01  2.3825375621E-01  7.6174624379E-01
                       2.5201943129E-01  7.4798056871E-01  2.5201943129E-01
                       7.3506447515E-01  2.6493552485E-01  2.7389527951E-01
                      -1.1496997481E-02  1.1496997481E-02 -1.1496997481E-02
             xred6     2.5088636368E-01  2.4911363632E-01  2.5088636368E-01
                       7.5088636368E-01  7.4911363632E-01  7.5088636368E-01
                       2.3111536723E-01  2.4397576541E-01  7.5602423459E-01
                       7.5602423459E-01  7.6888463277E-01  2.3111536723E-01
                       2.7427721484E-01  7.2572278516E-01  7.3488988837E-01
                       7.6127669432E-01  2.3872330568E-01  7.6127669432E-01
                       2.5222330689E-01  7.4777669311E-01  2.5222330689E-01
                       7.3488988837E-01  2.6511011163E-01  2.7427721484E-01
                      -1.1579433582E-02  1.1579433582E-02 -1.1579433582E-02
             xred7     2.5093783407E-01  2.4906216593E-01  2.5093783407E-01
                       7.5093783407E-01  7.4906216593E-01  7.5093783407E-01
                       2.3134742603E-01  2.4417641785E-01  7.5582358215E-01
                       7.5582358215E-01  7.6865257397E-01  2.3134742603E-01
                       2.7443739116E-01  7.2556260884E-01  7.3480817237E-01
                       7.6102880785E-01  2.3897119215E-01  7.6102880785E-01
                       2.5231874110E-01  7.4768125890E-01  2.5231874110E-01
                       7.3480817237E-01  2.6519182763E-01  2.7443739116E-01
                      -1.1639788784E-02  1.1639788784E-02 -1.1639788784E-02
             xred8     2.5096876059E-01  2.4903123941E-01  2.5096876059E-01
                       7.5096876059E-01  7.4903123941E-01  7.5096876059E-01
                       2.3158975347E-01  2.4437172291E-01  7.5562827709E-01
                       7.5562827709E-01  7.6841024653E-01  2.3158975347E-01
                       2.7459899829E-01  7.2540100171E-01  7.3472333219E-01
                       7.6078887064E-01  2.3921112936E-01  7.6078887064E-01
                       2.5241932300E-01  7.4758067700E-01  2.5241932300E-01
                       7.3472333219E-01  2.6527666781E-01  2.7459899829E-01
                      -1.1686075835E-02  1.1686075835E-02 -1.1686075835E-02
             xred9     2.5098858209E-01  2.4901141791E-01  2.5098858209E-01
                       7.5098858209E-01  7.4901141791E-01  7.5098858209E-01
                       2.3181415446E-01  2.4461252609E-01  7.5538747391E-01
                       7.5538747391E-01  7.6818584554E-01  2.3181415446E-01
                       2.7476188175E-01  7.2523811825E-01  7.3467877979E-01
                       7.6056674423E-01  2.3943325577E-01  7.6056674423E-01
                       2.5253303845E-01  7.4746696155E-01  2.5253303845E-01
                       7.3467877979E-01  2.6532122021E-01  2.7476188175E-01
                      -1.1719236733E-02  1.1719236733E-02 -1.1719236733E-02
             xred10    2.5101532248E-01  2.4898467752E-01  2.5101532248E-01
                       7.5101532248E-01  7.4898467752E-01  7.5101532248E-01
                       2.3205036915E-01  2.4481614978E-01  7.5518385022E-01
                       7.5518385022E-01  7.6794963085E-01  2.3205036915E-01
                       2.7491743606E-01  7.2508256394E-01  7.3461624305E-01
                       7.6032417615E-01  2.3967582385E-01  7.6032417615E-01
                       2.5264236970E-01  7.4735763030E-01  2.5264236970E-01
                       7.3461624305E-01  2.6538375695E-01  2.7491743606E-01
                      -1.1765089263E-02  1.1765089263E-02 -1.1765089263E-02
            znucl       55.00000   53.00000   40.00000   17.00000

================================================================================


- Timing analysis has been suppressed with timopt=0



================================================================================

 Suggested references for the acknowledgment of ABINIT usage.

 The users of ABINIT have little formal obligations with respect to the ABINIT group
 (those specified in the GNU General Public License, http://www.gnu.org/copyleft/gpl.txt).
 However, it is common practice in the scientific literature,
 to acknowledge the efforts of people that have made the research possible.
 In this spirit, please find below suggested citations of work written by ABINIT developers,
 corresponding to implementations inside of ABINIT that you have used in the present run.
 Note also that it will be of great value to readers of publications presenting these results,
 to read papers enabling them to understand the theoretical formalism and details
 of the ABINIT implementation.
 For information on why they are suggested, see also https://docs.abinit.org/theory/acknowledgments.
-
- [1] Implementation of the Projector Augmented-Wave Method in the ABINIT code.
- M. Torrent, F. Jollet, F. Bottin, G. Zerah, and X. Gonze Comput. Mat. Science 42, 337, (2008).
- Comment: PAW calculations. Strong suggestion to cite this paper.
- DOI and bibtex: see https://docs.abinit.org/theory/bibliography/#torrent2008
-
- [2] Libxc: A library of exchange and correlation functionals for density functional theory.
- M.A.L. Marques, M.J.T. Oliveira, T. Burnus, Computer Physics Communications 183, 2227 (2012).
- Comment: to be cited when LibXC is used (negative value of ixc)
- Strong suggestion to cite this paper.
- DOI and bibtex: see https://docs.abinit.org/theory/bibliography/#marques2012
-
- [3] The Abinit project: Impact, environment and recent developments.
- Computer Phys. Comm. 248, 107042 (2020).
- X.Gonze, B. Amadon, G. Antonius, F.Arnardi, L.Baguet, J.-M.Beuken,
- J.Bieder, F.Bottin, J.Bouchet, E.Bousquet, N.Brouwer, F.Bruneval,
- G.Brunin, T.Cavignac, J.-B. Charraud, Wei Chen, M.Cote, S.Cottenier,
- J.Denier, G.Geneste, Ph.Ghosez, M.Giantomassi, Y.Gillet, O.Gingras,
- D.R.Hamann, G.Hautier, Xu He, N.Helbig, N.Holzwarth, Y.Jia, F.Jollet,
- W.Lafargue-Dit-Hauret, K.Lejaeghere, M.A.L.Marques, A.Martin, C.Martins,
- H.P.C. Miranda, F.Naccarato, K. Persson, G.Petretto, V.Planes, Y.Pouillon,
- S.Prokhorenko, F.Ricci, G.-M.Rignanese, A.H.Romero, M.M.Schmitt, M.Torrent,
- M.J.van Setten, B.Van Troeye, M.J.Verstraete, G.Zerah and J.W.Zwanzig
- Comment: the fifth generic paper describing the ABINIT project.
- Note that a version of this paper, that is not formatted for Computer Phys. Comm. 
- is available at https://www.abinit.org/sites/default/files/ABINIT20.pdf .
- The licence allows the authors to put it on the Web.
- DOI and bibtex: see https://docs.abinit.org/theory/bibliography/#gonze2020
-
- [4] ABINIT: Overview, and focus on selected capabilities
- J. Chem. Phys. 152, 124102 (2020).
- A. Romero, D.C. Allan, B. Amadon, G. Antonius, T. Applencourt, L.Baguet,
- J.Bieder, F.Bottin, J.Bouchet, E.Bousquet, F.Bruneval,
- G.Brunin, D.Caliste, M.Cote,
- J.Denier, C. Dreyer, Ph.Ghosez, M.Giantomassi, Y.Gillet, O.Gingras,
- D.R.Hamann, G.Hautier, F.Jollet, G. Jomard,
- A.Martin, 
- H.P.C. Miranda, F.Naccarato, G.Petretto, N.A. Pike, V.Planes,
- S.Prokhorenko, T. Rangel, F.Ricci, G.-M.Rignanese, M.Royo, M.Stengel, M.Torrent,
- M.J.van Setten, B.Van Troeye, M.J.Verstraete, J.Wiktor, J.W.Zwanziger, and X.Gonze.
- Comment: a global overview of ABINIT, with focus on selected capabilities .
- Note that a version of this paper, that is not formatted for J. Chem. Phys 
- is available at https://www.abinit.org/sites/default/files/ABINIT20_JPC.pdf .
- The licence allows the authors to put it on the Web.
- DOI and bibtex: see https://docs.abinit.org/theory/bibliography/#romero2020
-
- [5] Recent developments in the ABINIT software package.
- Computer Phys. Comm. 205, 106 (2016).
- X.Gonze, F.Jollet, F.Abreu Araujo, D.Adams, B.Amadon, T.Applencourt,
- C.Audouze, J.-M.Beuken, J.Bieder, A.Bokhanchuk, E.Bousquet, F.Bruneval
- D.Caliste, M.Cote, F.Dahm, F.Da Pieve, M.Delaveau, M.Di Gennaro,
- B.Dorado, C.Espejo, G.Geneste, L.Genovese, A.Gerossier, M.Giantomassi,
- Y.Gillet, D.R.Hamann, L.He, G.Jomard, J.Laflamme Janssen, S.Le Roux,
- A.Levitt, A.Lherbier, F.Liu, I.Lukacevic, A.Martin, C.Martins,
- M.J.T.Oliveira, S.Ponce, Y.Pouillon, T.Rangel, G.-M.Rignanese,
- A.H.Romero, B.Rousseau, O.Rubel, A.A.Shukri, M.Stankovski, M.Torrent,
- M.J.Van Setten, B.Van Troeye, M.J.Verstraete, D.Waroquier, J.Wiktor,
- B.Xu, A.Zhou, J.W.Zwanziger.
- Comment: the fourth generic paper describing the ABINIT project.
- Note that a version of this paper, that is not formatted for Computer Phys. Comm. 
- is available at https://www.abinit.org/sites/default/files/ABINIT16.pdf .
- The licence allows the authors to put it on the Web.
- DOI and bibtex: see https://docs.abinit.org/theory/bibliography/#gonze2016
-
- Proc.   0 individual time (sec): cpu=      14143.6  wall=      14165.8

================================================================================

 Calculation completed.
.Delivered   0 WARNINGs and  20 COMMENTs to log file.
+Overall time at end (sec) : cpu=      56573.4  wall=      56663.0
