
.Version 9.2.2 of ABINIT 
.(MPI version, prepared for a x86_64_linux_gnu9.3 computer) 

.Copyright (C) 1998-2020 ABINIT group . 
 ABINIT comes with ABSOLUTELY NO WARRANTY.
 It is free software, and you are welcome to redistribute it
 under certain conditions (GNU General Public License,
 see ~abinit/COPYING or http://www.gnu.org/copyleft/gpl.txt).

 ABINIT is a project of the Universite Catholique de Louvain,
 Corning Inc. and other collaborators, see ~abinit/doc/developers/contributors.txt .
 Please read https://docs.abinit.org/theory/acknowledgments for suggested
 acknowledgments of the ABINIT effort.
 For more information, see https://www.abinit.org .

.Starting date : Sat 22 Oct 2022.
- ( at 04h12 )
  
- input  file    -> Cs2TiI6.in
- output file    -> Cs2TiI6.out
- root for input  files -> Cs2TiI6i
- root for output files -> Cs2TiI6o

- inpspheads : Reading pseudopotential header in XML form from 
-   ../../../Psps_for_tests/ATOMICDATA/Cs.GGA_PBE-JTH.xml
- inpspheads : Reading pseudopotential header in XML form from 
-   ../../../Psps_for_tests/ATOMICDATA/I.GGA_PBE-JTH.xml
- inpspheads : Reading pseudopotential header in XML form from 
-   ../../../Psps_for_tests/ATOMICDATA/Zr.GGA_PBE-JTH.xml
- inpspheads : Reading pseudopotential header in XML form from 
-   ../../../Psps_for_tests/ATOMICDATA/Br.GGA_PBE-JTH.xml

 DATASET    1 : space group Im m 2 (# 44); Bravais oI (body-center ortho.)
================================================================================
 Values of the parameters that define the memory need for DATASET  1.
     intxc =       0    ionmov =       0      iscf =      17    lmnmax =      18
     lnmax =       6     mgfft =      60  mpssoang =       3    mqgrid =    3604
     natom =       9  nloc_mem =       2    nspden =       1   nspinor =       1
    nsppol =       1      nsym =       4    n1xccc =       1    ntypat =       4
    occopt =       1   xclevel =       2
-    mband =          42        mffmem =           1         mkmem =          47
       mpw =        7992          nfft =      216000          nkpt =         280
Pmy_natom=         2
 PAW method is used; the additional fine FFT grid is defined by:
   mgfftf=        90    nfftf =    729000
================================================================================
P This job should need less than                     481.600 Mbytes of memory.
  Rough estimation (10% accuracy) of disk space for files :
_ WF disk file :   1434.113 Mbytes ; DEN or POT disk file :      5.564 Mbytes.
================================================================================


 DATASET    2 : space group Im m 2 (# 44); Bravais oI (body-center ortho.)
================================================================================
 Values of the parameters that define the memory need for DATASET  2.
     intxc =       0    ionmov =       0      iscf =      17    lmnmax =      18
     lnmax =       6     mgfft =      60  mpssoang =       3    mqgrid =    3604
     natom =       9  nloc_mem =       2    nspden =       1   nspinor =       1
    nsppol =       1      nsym =       4    n1xccc =       1    ntypat =       4
    occopt =       1   xclevel =       2
-    mband =          42        mffmem =           1         mkmem =          47
       mpw =        7992          nfft =      216000          nkpt =         280
Pmy_natom=         2
 PAW method is used; the additional fine FFT grid is defined by:
   mgfftf=        90    nfftf =    729000
================================================================================
P This job should need less than                     481.600 Mbytes of memory.
  Rough estimation (10% accuracy) of disk space for files :
_ WF disk file :   1434.113 Mbytes ; DEN or POT disk file :      5.564 Mbytes.
================================================================================


 DATASET    3 : space group Im m 2 (# 44); Bravais oI (body-center ortho.)
================================================================================
 Values of the parameters that define the memory need for DATASET  3.
     intxc =       0    ionmov =       0      iscf =      17    lmnmax =      18
     lnmax =       6     mgfft =      60  mpssoang =       3    mqgrid =    3604
     natom =       9  nloc_mem =       2    nspden =       1   nspinor =       1
    nsppol =       1      nsym =       4    n1xccc =       1    ntypat =       4
    occopt =       1   xclevel =       2
-    mband =          42        mffmem =           1         mkmem =          47
       mpw =        7992          nfft =      216000          nkpt =         280
Pmy_natom=         2
 PAW method is used; the additional fine FFT grid is defined by:
   mgfftf=        90    nfftf =    729000
================================================================================
P This job should need less than                     481.600 Mbytes of memory.
  Rough estimation (10% accuracy) of disk space for files :
_ WF disk file :   1434.113 Mbytes ; DEN or POT disk file :      5.564 Mbytes.
================================================================================


 DATASET    4 : space group I4/m m m (#139); Bravais tI (body-center tetrag.)
================================================================================
 Values of the parameters that define the memory need for DATASET  4.
     intxc =       0    ionmov =       0      iscf =      17    lmnmax =      18
     lnmax =       6     mgfft =      60  mpssoang =       3    mqgrid =    3585
     natom =       9  nloc_mem =       2    nspden =       1   nspinor =       1
    nsppol =       1      nsym =      16    n1xccc =       1    ntypat =       4
    occopt =       1   xclevel =       2
-    mband =          42        mffmem =           1         mkmem =          28
       mpw =        7968          nfft =      216000          nkpt =         163
Pmy_natom=         2
 PAW method is used; the additional fine FFT grid is defined by:
   mgfftf=        90    nfftf =    729000
================================================================================
P This job should need less than                     371.540 Mbytes of memory.
  Rough estimation (10% accuracy) of disk space for files :
_ WF disk file :    832.353 Mbytes ; DEN or POT disk file :      5.564 Mbytes.
================================================================================

--------------------------------------------------------------------------------
------------- Echo of variables that govern the present computation ------------
--------------------------------------------------------------------------------
-
- outvars: echo of selected default values                                      
-   iomode0 =  0 , fftalg0 =112 , wfoptalg0 = 10
-
- outvars: echo of global parameters not present in the input file              
-  max_nthreads =    0
-
 -outvars: echo values of preprocessed input variables --------
            acell1     1.5411958368E+01  1.5599031910E+01  1.5411958368E+01 Bohr
            acell2     1.5599032608E+01  1.5411958511E+01  1.5411958511E+01 Bohr
            acell3     1.5413833771E+01  1.5411958852E+01  1.5411958852E+01 Bohr
            acell4     1.5420047701E+01  1.5420047701E+01  1.5418496941E+01 Bohr
              amu      1.32905430E+02  1.26904470E+02  9.12240000E+01
                       7.99040000E+01
           diemac      1.20000000E+01
             ecut      1.60000000E+01 Hartree
-          fftalg         112
           istwfk1       2    0    0    0    0    0    3    0    0    0
                         0    0    0    0    0    0    0    0    0    0
                         0    0    0    0    0    0    0    0    0    0
                         0    0    0    0    0    0    0    0    0    0
                         0    0    0    0    0    0    0    0    0    0
           istwfk2       2    0    0    0    0    0    3    0    0    0
                         0    0    0    0    0    0    0    0    0    0
                         0    0    0    0    0    0    0    0    0    0
                         0    0    0    0    0    0    0    0    0    0
                         0    0    0    0    0    0    0    0    0    0
           istwfk3       2    0    0    0    0    0    3    0    0    0
                         0    0    0    0    0    0    0    0    0    0
                         0    0    0    0    0    0    0    0    0    0
                         0    0    0    0    0    0    0    0    0    0
                         0    0    0    0    0    0    0    0    0    0
           istwfk4       2    0    0    0    0    0    3    0    0    0
                         0    0    0    0    0    0    0    0    0    0
                         0    0    0    0    0    0    0    0    0    0
                         0    0    0    0    0    0    0    0    0    0
                         0    0    7    0    0    0    0    0    0    0
                       outvar_i_n : Printing only first  50 k-points.
              ixc     -101130
           jdtset        1    2    3    4
              kpt1     0.00000000E+00  0.00000000E+00  0.00000000E+00
                       8.33333333E-02  0.00000000E+00  0.00000000E+00
                       1.66666667E-01  0.00000000E+00  0.00000000E+00
                       2.50000000E-01  0.00000000E+00  0.00000000E+00
                       3.33333333E-01  0.00000000E+00  0.00000000E+00
                       4.16666667E-01  0.00000000E+00  0.00000000E+00
                       5.00000000E-01  0.00000000E+00  0.00000000E+00
                       0.00000000E+00  8.33333333E-02  0.00000000E+00
                       8.33333333E-02  8.33333333E-02  0.00000000E+00
                       1.66666667E-01  8.33333333E-02  0.00000000E+00
                       2.50000000E-01  8.33333333E-02  0.00000000E+00
                       3.33333333E-01  8.33333333E-02  0.00000000E+00
                       4.16666667E-01  8.33333333E-02  0.00000000E+00
                       5.00000000E-01  8.33333333E-02  0.00000000E+00
                      -4.16666667E-01  8.33333333E-02  0.00000000E+00
                      -3.33333333E-01  8.33333333E-02  0.00000000E+00
                      -2.50000000E-01  8.33333333E-02  0.00000000E+00
                      -1.66666667E-01  8.33333333E-02  0.00000000E+00
                      -8.33333333E-02  8.33333333E-02  0.00000000E+00
                       0.00000000E+00  1.66666667E-01  0.00000000E+00
                       8.33333333E-02  1.66666667E-01  0.00000000E+00
                       1.66666667E-01  1.66666667E-01  0.00000000E+00
                       2.50000000E-01  1.66666667E-01  0.00000000E+00
                       3.33333333E-01  1.66666667E-01  0.00000000E+00
                       4.16666667E-01  1.66666667E-01  0.00000000E+00
                       5.00000000E-01  1.66666667E-01  0.00000000E+00
                      -4.16666667E-01  1.66666667E-01  0.00000000E+00
                      -3.33333333E-01  1.66666667E-01  0.00000000E+00
                      -2.50000000E-01  1.66666667E-01  0.00000000E+00
                      -1.66666667E-01  1.66666667E-01  0.00000000E+00
                      -8.33333333E-02  1.66666667E-01  0.00000000E+00
                       0.00000000E+00  2.50000000E-01  0.00000000E+00
                       8.33333333E-02  2.50000000E-01  0.00000000E+00
                       1.66666667E-01  2.50000000E-01  0.00000000E+00
                       2.50000000E-01  2.50000000E-01  0.00000000E+00
                       3.33333333E-01  2.50000000E-01  0.00000000E+00
                       4.16666667E-01  2.50000000E-01  0.00000000E+00
                       5.00000000E-01  2.50000000E-01  0.00000000E+00
                      -4.16666667E-01  2.50000000E-01  0.00000000E+00
                      -3.33333333E-01  2.50000000E-01  0.00000000E+00
                      -2.50000000E-01  2.50000000E-01  0.00000000E+00
                      -1.66666667E-01  2.50000000E-01  0.00000000E+00
                      -8.33333333E-02  2.50000000E-01  0.00000000E+00
                       0.00000000E+00  3.33333333E-01  0.00000000E+00
                       8.33333333E-02  3.33333333E-01  0.00000000E+00
                       1.66666667E-01  3.33333333E-01  0.00000000E+00
                       2.50000000E-01  3.33333333E-01  0.00000000E+00
                       3.33333333E-01  3.33333333E-01  0.00000000E+00
                       4.16666667E-01  3.33333333E-01  0.00000000E+00
                       5.00000000E-01  3.33333333E-01  0.00000000E+00
              kpt2     0.00000000E+00  0.00000000E+00  0.00000000E+00
                       8.33333333E-02  0.00000000E+00  0.00000000E+00
                       1.66666667E-01  0.00000000E+00  0.00000000E+00
                       2.50000000E-01  0.00000000E+00  0.00000000E+00
                       3.33333333E-01  0.00000000E+00  0.00000000E+00
                       4.16666667E-01  0.00000000E+00  0.00000000E+00
                       5.00000000E-01  0.00000000E+00  0.00000000E+00
                       0.00000000E+00  8.33333333E-02  0.00000000E+00
                       8.33333333E-02  8.33333333E-02  0.00000000E+00
                       1.66666667E-01  8.33333333E-02  0.00000000E+00
                       2.50000000E-01  8.33333333E-02  0.00000000E+00
                       3.33333333E-01  8.33333333E-02  0.00000000E+00
                       4.16666667E-01  8.33333333E-02  0.00000000E+00
                       5.00000000E-01  8.33333333E-02  0.00000000E+00
                      -4.16666667E-01  8.33333333E-02  0.00000000E+00
                      -3.33333333E-01  8.33333333E-02  0.00000000E+00
                      -2.50000000E-01  8.33333333E-02  0.00000000E+00
                      -1.66666667E-01  8.33333333E-02  0.00000000E+00
                      -8.33333333E-02  8.33333333E-02  0.00000000E+00
                       0.00000000E+00  1.66666667E-01  0.00000000E+00
                       8.33333333E-02  1.66666667E-01  0.00000000E+00
                       1.66666667E-01  1.66666667E-01  0.00000000E+00
                       2.50000000E-01  1.66666667E-01  0.00000000E+00
                       3.33333333E-01  1.66666667E-01  0.00000000E+00
                       4.16666667E-01  1.66666667E-01  0.00000000E+00
                       5.00000000E-01  1.66666667E-01  0.00000000E+00
                      -4.16666667E-01  1.66666667E-01  0.00000000E+00
                      -3.33333333E-01  1.66666667E-01  0.00000000E+00
                      -2.50000000E-01  1.66666667E-01  0.00000000E+00
                      -1.66666667E-01  1.66666667E-01  0.00000000E+00
                      -8.33333333E-02  1.66666667E-01  0.00000000E+00
                       0.00000000E+00  2.50000000E-01  0.00000000E+00
                       8.33333333E-02  2.50000000E-01  0.00000000E+00
                       1.66666667E-01  2.50000000E-01  0.00000000E+00
                       2.50000000E-01  2.50000000E-01  0.00000000E+00
                       3.33333333E-01  2.50000000E-01  0.00000000E+00
                       4.16666667E-01  2.50000000E-01  0.00000000E+00
                       5.00000000E-01  2.50000000E-01  0.00000000E+00
                      -4.16666667E-01  2.50000000E-01  0.00000000E+00
                      -3.33333333E-01  2.50000000E-01  0.00000000E+00
                      -2.50000000E-01  2.50000000E-01  0.00000000E+00
                      -1.66666667E-01  2.50000000E-01  0.00000000E+00
                      -8.33333333E-02  2.50000000E-01  0.00000000E+00
                       0.00000000E+00  3.33333333E-01  0.00000000E+00
                       8.33333333E-02  3.33333333E-01  0.00000000E+00
                       1.66666667E-01  3.33333333E-01  0.00000000E+00
                       2.50000000E-01  3.33333333E-01  0.00000000E+00
                       3.33333333E-01  3.33333333E-01  0.00000000E+00
                       4.16666667E-01  3.33333333E-01  0.00000000E+00
                       5.00000000E-01  3.33333333E-01  0.00000000E+00
              kpt3     0.00000000E+00  0.00000000E+00  0.00000000E+00
                       8.33333333E-02  0.00000000E+00  0.00000000E+00
                       1.66666667E-01  0.00000000E+00  0.00000000E+00
                       2.50000000E-01  0.00000000E+00  0.00000000E+00
                       3.33333333E-01  0.00000000E+00  0.00000000E+00
                       4.16666667E-01  0.00000000E+00  0.00000000E+00
                       5.00000000E-01  0.00000000E+00  0.00000000E+00
                       0.00000000E+00  8.33333333E-02  0.00000000E+00
                       8.33333333E-02  8.33333333E-02  0.00000000E+00
                       1.66666667E-01  8.33333333E-02  0.00000000E+00
                       2.50000000E-01  8.33333333E-02  0.00000000E+00
                       3.33333333E-01  8.33333333E-02  0.00000000E+00
                       4.16666667E-01  8.33333333E-02  0.00000000E+00
                       5.00000000E-01  8.33333333E-02  0.00000000E+00
                      -4.16666667E-01  8.33333333E-02  0.00000000E+00
                      -3.33333333E-01  8.33333333E-02  0.00000000E+00
                      -2.50000000E-01  8.33333333E-02  0.00000000E+00
                      -1.66666667E-01  8.33333333E-02  0.00000000E+00
                      -8.33333333E-02  8.33333333E-02  0.00000000E+00
                       0.00000000E+00  1.66666667E-01  0.00000000E+00
                       8.33333333E-02  1.66666667E-01  0.00000000E+00
                       1.66666667E-01  1.66666667E-01  0.00000000E+00
                       2.50000000E-01  1.66666667E-01  0.00000000E+00
                       3.33333333E-01  1.66666667E-01  0.00000000E+00
                       4.16666667E-01  1.66666667E-01  0.00000000E+00
                       5.00000000E-01  1.66666667E-01  0.00000000E+00
                      -4.16666667E-01  1.66666667E-01  0.00000000E+00
                      -3.33333333E-01  1.66666667E-01  0.00000000E+00
                      -2.50000000E-01  1.66666667E-01  0.00000000E+00
                      -1.66666667E-01  1.66666667E-01  0.00000000E+00
                      -8.33333333E-02  1.66666667E-01  0.00000000E+00
                       0.00000000E+00  2.50000000E-01  0.00000000E+00
                       8.33333333E-02  2.50000000E-01  0.00000000E+00
                       1.66666667E-01  2.50000000E-01  0.00000000E+00
                       2.50000000E-01  2.50000000E-01  0.00000000E+00
                       3.33333333E-01  2.50000000E-01  0.00000000E+00
                       4.16666667E-01  2.50000000E-01  0.00000000E+00
                       5.00000000E-01  2.50000000E-01  0.00000000E+00
                      -4.16666667E-01  2.50000000E-01  0.00000000E+00
                      -3.33333333E-01  2.50000000E-01  0.00000000E+00
                      -2.50000000E-01  2.50000000E-01  0.00000000E+00
                      -1.66666667E-01  2.50000000E-01  0.00000000E+00
                      -8.33333333E-02  2.50000000E-01  0.00000000E+00
                       0.00000000E+00  3.33333333E-01  0.00000000E+00
                       8.33333333E-02  3.33333333E-01  0.00000000E+00
                       1.66666667E-01  3.33333333E-01  0.00000000E+00
                       2.50000000E-01  3.33333333E-01  0.00000000E+00
                       3.33333333E-01  3.33333333E-01  0.00000000E+00
                       4.16666667E-01  3.33333333E-01  0.00000000E+00
                       5.00000000E-01  3.33333333E-01  0.00000000E+00
              kpt4     0.00000000E+00  0.00000000E+00  0.00000000E+00
                       8.33333333E-02  0.00000000E+00  0.00000000E+00
                       1.66666667E-01  0.00000000E+00  0.00000000E+00
                       2.50000000E-01  0.00000000E+00  0.00000000E+00
                       3.33333333E-01  0.00000000E+00  0.00000000E+00
                       4.16666667E-01  0.00000000E+00  0.00000000E+00
                       5.00000000E-01  0.00000000E+00  0.00000000E+00
                       8.33333333E-02  8.33333333E-02  0.00000000E+00
                       1.66666667E-01  8.33333333E-02  0.00000000E+00
                       2.50000000E-01  8.33333333E-02  0.00000000E+00
                       3.33333333E-01  8.33333333E-02  0.00000000E+00
                       4.16666667E-01  8.33333333E-02  0.00000000E+00
                       5.00000000E-01  8.33333333E-02  0.00000000E+00
                      -4.16666667E-01  8.33333333E-02  0.00000000E+00
                      -3.33333333E-01  8.33333333E-02  0.00000000E+00
                      -2.50000000E-01  8.33333333E-02  0.00000000E+00
                      -1.66666667E-01  8.33333333E-02  0.00000000E+00
                      -8.33333333E-02  8.33333333E-02  0.00000000E+00
                       1.66666667E-01  1.66666667E-01  0.00000000E+00
                       2.50000000E-01  1.66666667E-01  0.00000000E+00
                       3.33333333E-01  1.66666667E-01  0.00000000E+00
                       4.16666667E-01  1.66666667E-01  0.00000000E+00
                       5.00000000E-01  1.66666667E-01  0.00000000E+00
                      -4.16666667E-01  1.66666667E-01  0.00000000E+00
                      -3.33333333E-01  1.66666667E-01  0.00000000E+00
                      -2.50000000E-01  1.66666667E-01  0.00000000E+00
                      -1.66666667E-01  1.66666667E-01  0.00000000E+00
                       2.50000000E-01  2.50000000E-01  0.00000000E+00
                       3.33333333E-01  2.50000000E-01  0.00000000E+00
                       4.16666667E-01  2.50000000E-01  0.00000000E+00
                       5.00000000E-01  2.50000000E-01  0.00000000E+00
                      -4.16666667E-01  2.50000000E-01  0.00000000E+00
                      -3.33333333E-01  2.50000000E-01  0.00000000E+00
                      -2.50000000E-01  2.50000000E-01  0.00000000E+00
                       3.33333333E-01  3.33333333E-01  0.00000000E+00
                       4.16666667E-01  3.33333333E-01  0.00000000E+00
                       5.00000000E-01  3.33333333E-01  0.00000000E+00
                      -4.16666667E-01  3.33333333E-01  0.00000000E+00
                      -3.33333333E-01  3.33333333E-01  0.00000000E+00
                       4.16666667E-01  4.16666667E-01  0.00000000E+00
                       5.00000000E-01  4.16666667E-01  0.00000000E+00
                      -4.16666667E-01  4.16666667E-01  0.00000000E+00
                       5.00000000E-01  5.00000000E-01  0.00000000E+00
                       8.33333333E-02  0.00000000E+00  8.33333333E-02
                       1.66666667E-01  0.00000000E+00  8.33333333E-02
                       2.50000000E-01  0.00000000E+00  8.33333333E-02
                       3.33333333E-01  0.00000000E+00  8.33333333E-02
                       4.16666667E-01  0.00000000E+00  8.33333333E-02
                       5.00000000E-01  0.00000000E+00  8.33333333E-02
                      -4.16666667E-01  0.00000000E+00  8.33333333E-02
                       outvar_i_n : Printing only first  50 k-points.
         kptrlatt       12    0    0      0   12    0      0    0   12
          kptrlen1     1.84943500E+02
          kptrlen2     1.84943502E+02
          kptrlen3     1.84943506E+02
          kptrlen4     1.85021963E+02
P           mkmem1         47
P           mkmem2         47
P           mkmem3         47
P           mkmem4         28
            natom           9
            nband1         42
            nband2         42
            nband3         42
            nband4         42
           ndtset           4
            ngfft          60      60      60
          ngfftdg          90      90      90
             nkpt1        280
             nkpt2        280
             nkpt3        280
             nkpt4        163
            nstep        2500
             nsym1          4
             nsym2          4
             nsym3          4
             nsym4         16
           ntypat           4
              occ1     2.000000  2.000000  2.000000  2.000000  2.000000  2.000000
                       2.000000  2.000000  2.000000  2.000000  2.000000  2.000000
                       2.000000  2.000000  2.000000  2.000000  2.000000  2.000000
                       2.000000  2.000000  2.000000  2.000000  2.000000  2.000000
                       2.000000  2.000000  2.000000  2.000000  2.000000  2.000000
                       2.000000  2.000000  2.000000  2.000000  2.000000  2.000000
                       0.000000  0.000000  0.000000  0.000000  0.000000  0.000000
              occ2     2.000000  2.000000  2.000000  2.000000  2.000000  2.000000
                       2.000000  2.000000  2.000000  2.000000  2.000000  2.000000
                       2.000000  2.000000  2.000000  2.000000  2.000000  2.000000
                       2.000000  2.000000  2.000000  2.000000  2.000000  2.000000
                       2.000000  2.000000  2.000000  2.000000  2.000000  2.000000
                       2.000000  2.000000  2.000000  2.000000  2.000000  2.000000
                       0.000000  0.000000  0.000000  0.000000  0.000000  0.000000
              occ3     2.000000  2.000000  2.000000  2.000000  2.000000  2.000000
                       2.000000  2.000000  2.000000  2.000000  2.000000  2.000000
                       2.000000  2.000000  2.000000  2.000000  2.000000  2.000000
                       2.000000  2.000000  2.000000  2.000000  2.000000  2.000000
                       2.000000  2.000000  2.000000  2.000000  2.000000  2.000000
                       2.000000  2.000000  2.000000  2.000000  2.000000  2.000000
                       0.000000  0.000000  0.000000  0.000000  0.000000  0.000000
              occ4     2.000000  2.000000  2.000000  2.000000  2.000000  2.000000
                       2.000000  2.000000  2.000000  2.000000  2.000000  2.000000
                       2.000000  2.000000  2.000000  2.000000  2.000000  2.000000
                       2.000000  2.000000  2.000000  2.000000  2.000000  2.000000
                       2.000000  2.000000  2.000000  2.000000  2.000000  2.000000
                       2.000000  2.000000  2.000000  2.000000  2.000000  2.000000
                       0.000000  0.000000  0.000000  0.000000  0.000000  0.000000
        pawecutdg      4.00000000E+01 Hartree
            prtwf           0
            rprim1     4.2500107890E-03  7.0273421604E-01  7.1143977891E-01
                       7.0710678119E-01  0.0000000000E+00  7.0710678119E-01
                       7.1143977891E-01  7.0273421604E-01  4.2500107890E-03
            rprim2     0.0000000000E+00  7.0710678119E-01  7.0710678119E-01
                       7.0273423287E-01  4.2500530348E-03  7.1143976203E-01
                       7.0273423287E-01  7.1143976203E-01  4.2500530348E-03
            rprim3     0.0000000000E+00  7.0710678119E-01  7.0710678119E-01
                       7.0273309554E-01 -4.2480939568E-03  7.1144089715E-01
                       7.0273309554E-01  7.1144089715E-01 -4.2480939568E-03
            rprim4     0.0000000000E+00  7.0703566902E-01  7.0717788620E-01
                       7.0703566902E-01  0.0000000000E+00  7.0717788620E-01
                       7.0710678119E-01  7.0710678119E-01  0.0000000000E+00
          spgroup1         44
          spgroup2         44
          spgroup3         44
          spgroup4        139
           symafm1       1    1    1    1
           symafm2       1    1    1    1
           symafm3       1    1    1    1
           symafm4       1    1    1    1    1    1    1    1    1    1
                         1    1    1    1    1    1
           symrel1     1  0  0   0  1  0   0  0  1       1 -1  0   0 -1  0   0 -1  1
                       0  0 -1   0 -1  0  -1  0  0       0  1 -1   0  1  0  -1  1  0
           symrel2     1  0  0   0  1  0   0  0  1      -1  0  0  -1  1  0  -1  0  1
                      -1  0  0   0  0 -1   0 -1  0       1  0  0   1  0 -1   1 -1  0
           symrel3     1  0  0   0  1  0   0  0  1       1  0  0   1 -1  0   1  0 -1
                       1  0  0   0  0  1   0  1  0       1  0  0   1  0 -1   1 -1  0
           symrel4     1  0  0   0  1  0   0  0  1      -1  0  0   0 -1  0   0  0 -1
                      -1  0  1   0 -1  1   0  0  1       1  0 -1   0  1 -1   0  0 -1
                       0  1 -1   1  0 -1   0  0 -1       0 -1  1  -1  0  1   0  0  1
                       0 -1  0  -1  0  0   0  0 -1       0  1  0   1  0  0   0  0  1
                       0  1 -1   0  1  0  -1  1  0       0 -1  1   0 -1  0   1 -1  0
                      -1  0  1  -1  0  0  -1  1  0       1  0 -1   1  0  0   1 -1  0
                       1  0  0   1  0 -1   1 -1  0      -1  0  0  -1  0  1  -1  1  0
                       0 -1  0   0 -1  1   1 -1  0       0  1  0   0  1 -1  -1  1  0
            tnons1     0.0000000  0.0000000  0.0000000     0.0000000 -0.0000000  0.0000000
                       0.0000000 -0.0000000  0.0000000     0.0000000 -0.0000000  0.0000000
            tnons2     0.0000000  0.0000000  0.0000000     0.0000000  0.0000000  0.0000000
                       0.0000000  0.0000000  0.0000000    -0.0000000  0.0000000  0.0000000
            tnons3     0.0000000  0.0000000  0.0000000     0.0000000 -0.0000000  0.0000000
                       0.0000000 -0.0000000  0.0000000     0.0000000  0.0000000  0.0000000
            tnons4     0.0000000  0.0000000  0.0000000    -0.0000000  0.0000000 -0.0000000
                      -0.0000000  0.0000000 -0.0000000     0.0000000  0.0000000 -0.0000000
                      -0.0000000  0.0000000 -0.0000000     0.0000000  0.0000000 -0.0000000
                       0.0000000  0.0000000 -0.0000000    -0.0000000  0.0000000  0.0000000
                      -0.0000000  0.0000000 -0.0000000     0.0000000 -0.0000000 -0.0000000
                      -0.0000000  0.0000000 -0.0000000     0.0000000 -0.0000000 -0.0000000
                       0.0000000 -0.0000000 -0.0000000    -0.0000000  0.0000000 -0.0000000
                       0.0000000 -0.0000000 -0.0000000    -0.0000000  0.0000000 -0.0000000
           toldfe      1.00000000E-08 Hartree
            typat1     1  1  2  4  2  4  4  4  3
            typat2     1  1  2  4  4  2  4  4  3
            typat3     1  1  4  2  4  2  4  4  3
            typat4     1  1  2  2  4  4  4  4  3
           useylm           1
              wtk1       0.00058    0.00231    0.00231    0.00231    0.00231    0.00231
                         0.00116    0.00231    0.00231    0.00463    0.00463    0.00463
                         0.00463    0.00463    0.00463    0.00463    0.00463    0.00463
                         0.00463    0.00231    0.00463    0.00231    0.00463    0.00463
                         0.00463    0.00463    0.00463    0.00463    0.00463    0.00463
                         0.00463    0.00231    0.00463    0.00463    0.00231    0.00463
                         0.00463    0.00463    0.00463    0.00463    0.00463    0.00463
                         0.00463    0.00231    0.00463    0.00463    0.00463    0.00231
                         0.00463    0.00463
              wtk2       0.00058    0.00231    0.00231    0.00231    0.00231    0.00231
                         0.00116    0.00231    0.00231    0.00463    0.00463    0.00463
                         0.00463    0.00463    0.00463    0.00463    0.00463    0.00463
                         0.00463    0.00231    0.00463    0.00231    0.00463    0.00463
                         0.00463    0.00463    0.00463    0.00463    0.00463    0.00463
                         0.00463    0.00231    0.00463    0.00463    0.00231    0.00463
                         0.00463    0.00463    0.00463    0.00463    0.00463    0.00463
                         0.00463    0.00231    0.00463    0.00463    0.00463    0.00231
                         0.00463    0.00463
              wtk3       0.00058    0.00231    0.00231    0.00231    0.00231    0.00231
                         0.00116    0.00231    0.00231    0.00463    0.00463    0.00463
                         0.00463    0.00463    0.00463    0.00463    0.00463    0.00463
                         0.00463    0.00231    0.00463    0.00231    0.00463    0.00463
                         0.00463    0.00463    0.00463    0.00463    0.00463    0.00463
                         0.00463    0.00231    0.00463    0.00463    0.00231    0.00463
                         0.00463    0.00463    0.00463    0.00463    0.00463    0.00463
                         0.00463    0.00231    0.00463    0.00463    0.00463    0.00231
                         0.00463    0.00463
              wtk4       0.00058    0.00463    0.00463    0.00463    0.00463    0.00463
                         0.00231    0.00116    0.00463    0.00463    0.00463    0.00463
                         0.00463    0.00463    0.00463    0.00463    0.00463    0.00231
                         0.00116    0.00463    0.00463    0.00463    0.00463    0.00463
                         0.00463    0.00463    0.00231    0.00116    0.00463    0.00463
                         0.00463    0.00463    0.00463    0.00231    0.00116    0.00463
                         0.00463    0.00463    0.00231    0.00116    0.00463    0.00231
                         0.00058    0.00231    0.00926    0.00926    0.00926    0.00926
                         0.00926    0.00926
                       outvars : Printing only first  50 k-points.
           xangst1     2.9354824125E+00  2.8540064980E+00  2.9014381081E+00
                       8.7724029332E+00  8.6085121103E+00  8.7383586287E+00
                       5.8155419793E+00  5.7312593041E+00  2.8864422782E+00
                       5.8845387039E+00  5.7312593041E+00  8.9458427671E+00
                       8.7873987631E+00  5.7312593041E+00  5.8582990620E+00
                       5.8557184710E+00  8.8277222857E+00  5.8181225701E+00
                       5.8557184711E+00  2.6347963225E+00  5.8181225702E+00
                       2.7279982742E+00  5.7312593041E+00  5.7893023374E+00
                       6.0564156844E-02  2.2709406363E-18 -6.0564156844E-02
           xangst2     2.8540068090E+00  2.9354823877E+00  2.9014383940E+00
                       8.6085121802E+00  8.7724031694E+00  8.7383591758E+00
                       5.7312594946E+00  5.8155421079E+00  2.8864426227E+00
                       5.7312594946E+00  5.8845394317E+00  8.9458428793E+00
                       8.8277226478E+00  5.8557186705E+00  5.8181228928E+00
                       5.7312594946E+00  8.7873989408E+00  5.8582994556E+00
                       5.7312594946E+00  2.7279986842E+00  5.7893021318E+00
                       2.6347963413E+00  5.8557186706E+00  5.8181228930E+00
                       2.5461377005E-19  6.0564191095E-02 -6.0564191095E-02
           xangst3     2.8772512466E+00  2.9008388847E+00  2.9008388847E+00
                       8.5852494448E+00  8.6684610781E+00  8.6684610781E+00
                       5.7312503457E+00  5.8152191490E+00  2.6586882835E+00
                       5.7312503457E+00  5.7462477282E+00  8.7181109176E+00
                       8.8277056777E+00  5.7864239352E+00  5.7864239352E+00
                       5.7312503457E+00  8.7181109176E+00  5.7462477282E+00
                       5.7312503457E+00  2.6586882835E+00  5.8152191490E+00
                       2.6347950138E+00  5.7864239353E+00  5.7864239353E+00
                      -1.9811946666E-35  6.0563635350E-02  6.0563635350E-02
           xangst4     2.8846835404E+00  2.8846835404E+00  2.8852637820E+00
                       8.6540506211E+00  8.6540506211E+00  8.6557913461E+00
                       5.7693670807E+00  5.7693670807E+00  2.9044457323E+00
                       5.7693670807E+00  5.7693670807E+00  8.6366093957E+00
                       8.9004214553E+00  5.7693670808E+00  5.7705275640E+00
                       5.7693670808E+00  8.9004214553E+00  5.7705275640E+00
                       5.7693670807E+00  2.6383127062E+00  5.7705275640E+00
                       2.6383127062E+00  5.7693670807E+00  5.7705275640E+00
                      -2.2121263481E-20 -3.8244105276E-20  6.3894944041E-21
            xcart1     5.5472578276E+00  5.3932906627E+00  5.4829234158E+00
                       1.6577439071E+01  1.6267730300E+01  1.6513104659E+01
                       1.0989781655E+01  1.0830510481E+01  5.4545854042E+00
                       1.1120166569E+01  1.0830510481E+01  1.6905192858E+01
                       1.6605777083E+01  1.0830510481E+01  1.1070580832E+01
                       1.1065704222E+01  1.6681977497E+01  1.0994658265E+01
                       1.1065704222E+01  4.9790434655E+00  1.0994658265E+01
                       5.1551696291E+00  1.0830510481E+01  1.0940195918E+01
                       1.1444966990E-01  4.2914558666E-18 -1.1444966990E-01
            xcart2     5.3932912503E+00  5.5472577807E+00  5.4829239562E+00
                       1.6267730432E+01  1.6577439517E+01  1.6513105693E+01
                       1.0830510841E+01  1.0989781898E+01  5.4545860551E+00
                       1.0830510841E+01  1.1120167944E+01  1.6905193070E+01
                       1.6681978182E+01  1.1065704598E+01  1.0994658875E+01
                       1.0830510841E+01  1.6605777419E+01  1.1070581576E+01
                       1.0830510841E+01  5.1551704040E+00  1.0940195530E+01
                       4.9790435010E+00  1.1065704599E+01  1.0994658875E+01
                       4.8115029506E-19  1.1444973463E-01 -1.1444973463E-01
            xcart3     5.4372168717E+00  5.4817910477E+00  5.4817910477E+00
                       1.6223770233E+01  1.6381017431E+01  1.6381017431E+01
                       1.0830493552E+01  1.0989171594E+01  5.0241927285E+00
                       1.0830493552E+01  1.0858834498E+01  1.6474842030E+01
                       1.6681946113E+01  1.0934756526E+01  1.0934756526E+01
                       1.0830493552E+01  1.6474842030E+01  1.0858834498E+01
                       1.0830493552E+01  5.0241927285E+00  1.0989171594E+01
                       4.9790409923E+00  1.0934756526E+01  1.0934756526E+01
                      -3.7439153357E-35  1.1444868442E-01  1.1444868442E-01
            xcart4     5.4512618713E+00  5.4512618713E+00  5.4523583691E+00
                       1.6353785614E+01  1.6353785614E+01  1.6357075107E+01
                       1.0902523743E+01  1.0902523743E+01  5.4886070020E+00
                       1.0902523743E+01  1.0902523743E+01  1.6320826475E+01
                       1.6819359018E+01  1.0902523743E+01  1.0904716738E+01
                       1.0902523743E+01  1.6819359018E+01  1.0904716738E+01
                       1.0902523743E+01  4.9856884676E+00  1.0904716738E+01
                       4.9856884676E+00  1.0902523743E+01  1.0904716738E+01
                      -4.1803129692E-20 -7.2270885170E-20  1.2074394551E-20
             xred1     2.4603464399E-01  2.5101401398E-01  2.5193732806E-01
                       7.4806267194E-01  7.4898598602E-01  7.5396535601E-01
                       2.4607279518E-01  2.4542596792E-01  7.5392720482E-01
                       7.6538816128E-01  7.7039433024E-01  2.3461183872E-01
                       2.4607279518E-01  7.5457403208E-01  7.5392720482E-01
                       7.6687886433E-01  2.2986190143E-01  7.7339733280E-01
                       2.2660266720E-01  7.7013809857E-01  2.3312113567E-01
                       7.6538816128E-01  2.2960566976E-01  2.3461183872E-01
                      -1.0500760390E-02 -1.6524964519E-19  1.0500760390E-02
             xred2     2.5101399512E-01  2.4603468957E-01  2.5193732019E-01
                       7.4898600488E-01  7.4806267981E-01  7.5396531043E-01
                       2.4542597510E-01  2.4607279502E-01  7.5392720498E-01
                       7.7039434536E-01  7.6538812764E-01  2.3461187236E-01
                       2.2986189544E-01  7.6687888077E-01  7.7339732836E-01
                       7.5457402490E-01  2.4607279502E-01  7.5392720498E-01
                       2.2960565464E-01  7.6538812764E-01  2.3461187236E-01
                       7.7013810456E-01  2.2660267164E-01  2.3312111923E-01
                       1.0455050580E-18 -1.0500767109E-02  1.0500767109E-02
             xred3     2.5193803614E-01  2.5101427028E-01  2.5101427028E-01
                       7.5396657670E-01  7.4898572972E-01  7.4898572972E-01
                       2.3461013468E-01  2.2960619582E-01  7.7039380418E-01
                       7.5392736910E-01  7.5457485687E-01  2.4542514313E-01
                       2.3312202406E-01  7.7013785345E-01  7.7013785345E-01
                       7.5392736910E-01  2.4542514313E-01  7.5457485687E-01
                       2.3461013468E-01  7.7039380418E-01  2.2960619582E-01
                       7.7339773096E-01  2.2986214655E-01  2.2986214655E-01
                       1.0500624576E-02 -1.1277902017E-19  1.1277902017E-19
             xred4     2.5000000000E-01  2.5000000000E-01  2.5000000000E-01
                       7.5000000000E-01  7.5000000000E-01  7.5000000000E-01
                       2.5166206210E-01  2.5166206210E-01  7.4833793790E-01
                       7.4833793790E-01  7.4833793790E-01  2.5166206210E-01
                       2.2864836552E-01  7.7135163448E-01  7.7135163448E-01
                       7.7135163448E-01  2.2864836552E-01  7.7135163448E-01
                       2.2864836552E-01  7.7135163448E-01  2.2864836552E-01
                       7.7135163448E-01  2.2864836552E-01  2.2864836552E-01
                      -8.4364820404E-22  1.9509116792E-21 -5.7851734225E-21
            znucl       55.00000   53.00000   40.00000   35.00000

================================================================================

 chkinp: Checking input parameters for consistency, jdtset=   1.

 chkinp: Checking input parameters for consistency, jdtset=   2.

 chkinp: Checking input parameters for consistency, jdtset=   3.

 chkinp: Checking input parameters for consistency, jdtset=   4.

================================================================================
== DATASET  1 ==================================================================
-   mpi_nproc: 6, omp_nthreads: -1 (-1 if OMP is not activated)


--- !DatasetInfo
iteration_state: {dtset: 1, }
dimensions: {natom: 9, nkpt: 280, mband: 42, nsppol: 1, nspinor: 1, nspden: 1, mpw: 7992, }
cutoff_energies: {ecut:  16.0, pawecutdg:  40.0, }
electrons: {nelect:   7.20000000E+01, charge:   0.00000000E+00, occopt:   1.00000000E+00, tsmear:   1.00000000E-02, }
meta: {optdriver: 0, ionmov: 0, optcell: 0, iscf: 17, paral_kgb: 0, }
...

 Real(R)+Recip(G) space primitive vectors, cartesian coordinates (Bohr,Bohr^-1):
 R(1)=  0.0655010 10.8305105 10.9646803  G(1)= -0.0458750  0.0461659  0.0458750
 R(2)= 11.0301812  0.0000000 11.0301812  G(2)=  0.0453302 -0.0461659  0.0453302
 R(3)= 10.9646803 10.8305105  0.0655010  G(3)=  0.0458750  0.0461659 -0.0458750
 Unit cell volume ucvol=  2.6040863E+03 bohr^3
 Angles (23,13,12)=  5.95976524E+01  6.00077647E+01  5.95976524E+01 degrees

 Coarse grid specifications (used for wave-functions):

 getcut: wavevector=  0.0000  0.0000  0.0000  ngfft=  60  60  60
         ecut(hartree)=     16.000   => boxcut(ratio)=   2.13613

 Fine grid specifications (used for densities):

 getcut: wavevector=  0.0000  0.0000  0.0000  ngfft=  90  90  90
         ecut(hartree)=     40.000   => boxcut(ratio)=   2.02677

--- Pseudopotential description ------------------------------------------------
- pspini: atom type   1  psp file is ../../../Psps_for_tests/ATOMICDATA/Cs.GGA_PBE-JTH.xml
- pspatm: opening atomic psp file    ../../../Psps_for_tests/ATOMICDATA/Cs.GGA_PBE-JTH.xml
- pspatm : Reading pseudopotential header in XML form from ../../../Psps_for_tests/ATOMICDATA/Cs.GGA_PBE-JTH.xml
 Pseudopotential format is: paw10
 basis_size (lnmax)=  6 (lmn_size= 18), orbitals=   0   0   1   1   2   2
 Spheres core radius: rc_sph= 2.20660278
 1 radial meshes are used:
  - mesh 1: r(i)=AA*[exp(BB*(i-1))-1], size=1500 , AA= 0.15922E-03 BB= 0.87573E-02
 Shapefunction is SIN type: shapef(r)=[sin(pi*r/rshp)/(pi*r/rshp)]**2
 Radius for shape functions =  2.00394208
 mmax= 1500
 Radial grid used for partial waves is grid 1
 Radial grid used for projectors is grid 1
 Radial grid used for (t)core density is grid 1
 Radial grid used for Vloc is grid 1
 Radial grid used for pseudo valence density is grid 1
 Mesh size for Vloc has been set to 1341 to avoid numerical noise.
 Compensation charge density is not taken into account in XC energy/potential
 pspatm: atomic psp has been read  and splines computed

- pspini: atom type   2  psp file is ../../../Psps_for_tests/ATOMICDATA/I.GGA_PBE-JTH.xml
- pspatm: opening atomic psp file    ../../../Psps_for_tests/ATOMICDATA/I.GGA_PBE-JTH.xml
- pspatm : Reading pseudopotential header in XML form from ../../../Psps_for_tests/ATOMICDATA/I.GGA_PBE-JTH.xml
 Pseudopotential format is: paw10
 basis_size (lnmax)=  4 (lmn_size=  8), orbitals=   0   0   1   1
 Spheres core radius: rc_sph= 2.30022271
 1 radial meshes are used:
  - mesh 1: r(i)=AA*[exp(BB*(i-1))-1], size=2000 , AA= 0.12610E-03 BB= 0.66836E-02
 Shapefunction is SIN type: shapef(r)=[sin(pi*r/rshp)/(pi*r/rshp)]**2
 Radius for shape functions =  2.10879093
 mmax= 2000
 Radial grid used for partial waves is grid 1
 Radial grid used for projectors is grid 1
 Radial grid used for (t)core density is grid 1
 Radial grid used for Vloc is grid 1
 Radial grid used for pseudo valence density is grid 1
 Mesh size for Vloc has been set to 1792 to avoid numerical noise.
 Compensation charge density is not taken into account in XC energy/potential
 pspatm: atomic psp has been read  and splines computed

- pspini: atom type   3  psp file is ../../../Psps_for_tests/ATOMICDATA/Zr.GGA_PBE-JTH.xml
- pspatm: opening atomic psp file    ../../../Psps_for_tests/ATOMICDATA/Zr.GGA_PBE-JTH.xml
- pspatm : Reading pseudopotential header in XML form from ../../../Psps_for_tests/ATOMICDATA/Zr.GGA_PBE-JTH.xml
 Pseudopotential format is: paw10
 basis_size (lnmax)=  6 (lmn_size= 18), orbitals=   0   0   1   1   2   2
 Spheres core radius: rc_sph= 2.21000000
 1 radial meshes are used:
  - mesh 1: r(i)=AA*[exp(BB*(i-1))-1], size= 941 , AA= 0.35256E-03 BB= 0.14102E-01
 Shapefunction is BESSEL type: shapef(r,l)=aa(1,l)*jl(q(1,l)*r)+aa(2,l)*jl(q(2,l)*r)
 Radius for shape functions =  2.21000000
 mmax=  941
 Radial grid used for partial waves is grid 1
 Radial grid used for projectors is grid 1
 Radial grid used for (t)core density is grid 1
 Radial grid used for Vloc is grid 1
 Radial grid used for pseudo valence density is grid 1
 Mesh size for Vloc has been set to  777 to avoid numerical noise.
 Compensation charge density is not taken into account in XC energy/potential
 pspatm: atomic psp has been read  and splines computed

- pspini: atom type   4  psp file is ../../../Psps_for_tests/ATOMICDATA/Br.GGA_PBE-JTH.xml
- pspatm: opening atomic psp file    ../../../Psps_for_tests/ATOMICDATA/Br.GGA_PBE-JTH.xml
- pspatm : Reading pseudopotential header in XML form from ../../../Psps_for_tests/ATOMICDATA/Br.GGA_PBE-JTH.xml
 Pseudopotential format is: paw10
 basis_size (lnmax)=  4 (lmn_size=  8), orbitals=   0   0   1   1
 Spheres core radius: rc_sph= 2.20000000
 1 radial meshes are used:
  - mesh 1: r(i)=AA*[exp(BB*(i-1))-1], size= 927 , AA= 0.40483E-03 BB= 0.14169E-01
 Shapefunction is BESSEL type: shapef(r,l)=aa(1,l)*jl(q(1,l)*r)+aa(2,l)*jl(q(2,l)*r)
 Radius for shape functions =  2.02066386
 mmax=  927
 Radial grid used for partial waves is grid 1
 Radial grid used for projectors is grid 1
 Radial grid used for (t)core density is grid 1
 Radial grid used for Vloc is grid 1
 Radial grid used for pseudo valence density is grid 1
 Mesh size for Vloc has been set to  763 to avoid numerical noise.
 Compensation charge density is not taken into account in XC energy/potential
 pspatm: atomic psp has been read  and splines computed

   2.93056170E+04                                ecore*ucvol(ha*bohr**3)
--------------------------------------------------------------------------------

_setup2: Arith. and geom. avg. npw (full set) are    7960.524    7960.515

================================================================================

--- !BeginCycle
iteration_state: {dtset: 1, }
solver: {iscf: 17, nstep: 2500, nline: 4, wfoptalg: 10, }
tolerances: {toldfe: 1.00E-08, }
...

     iter   Etot(hartree)      deltaE(h)  residm     nres2
 ETOT  1  -166.50626811763    -1.665E+02 1.995E-01 1.646E+01
 ETOT  2  -166.66467853301    -1.584E-01 2.792E-02 3.967E+00
 ETOT  3  -166.66119484729     3.484E-03 6.328E-03 8.536E-01
 ETOT  4  -166.66175641835    -5.616E-04 4.165E-03 5.628E-02
 ETOT  5  -166.66148193510     2.745E-04 1.547E-03 7.491E-03
 ETOT  6  -166.66153627621    -5.434E-05 1.729E-03 6.929E-04
 ETOT  7  -166.66153742234    -1.146E-06 7.351E-04 2.120E-04
 ETOT  8  -166.66153939097    -1.969E-06 1.065E-03 2.442E-05
 ETOT  9  -166.66153939844    -7.472E-09 7.616E-04 6.492E-06
 ETOT 10  -166.66153942431    -2.587E-08 5.696E-04 6.463E-07
 ETOT 11  -166.66153942926    -4.954E-09 2.687E-04 2.274E-07
 ETOT 12  -166.66153943046    -1.198E-09 3.136E-04 5.266E-08

 At SCF step   12, etot is converged : 
  for the second time, diff in etot=  1.198E-09 < toldfe=  1.000E-08

 Cartesian components of stress tensor (hartree/bohr^3)
  sigma(1 1)=  2.97444164E-06  sigma(3 2)=  6.31944602E-14
  sigma(2 2)=  2.97117669E-06  sigma(3 1)= -7.75071210E-09
  sigma(3 3)=  2.97444164E-06  sigma(2 1)=  6.31943452E-14


--- !ResultsGS
iteration_state: {dtset: 1, }
comment   : Summary of ground state results
lattice_vectors:
- [  0.0655010,  10.8305105,  10.9646803, ]
- [ 11.0301812,   0.0000000,  11.0301812, ]
- [ 10.9646803,  10.8305105,   0.0655010, ]
lattice_lengths: [  15.41196,   15.59903,   15.41196, ]
lattice_angles: [ 59.598,  60.008,  59.598, ] # degrees, (23, 13, 12)
lattice_volume:   2.6040863E+03
convergence: {deltae: -1.198E-09, res2:  5.266E-08, residm:  3.136E-04, diffor: null, }
etotal    :  -1.66661539E+02
entropy   :   0.00000000E+00
fermie    :  -6.43066301E-02
cartesian_stress_tensor: # hartree/bohr^3
- [  2.97444164E-06,   6.31943452E-14,  -7.75071210E-09, ]
- [  6.31943452E-14,   2.97117669E-06,   6.31944602E-14, ]
- [ -7.75071210E-09,   6.31944602E-14,   2.97444164E-06, ]
pressure_GPa:  -8.7479E-02
xred      :
- [  2.4603E-01,   2.5101E-01,   2.5194E-01, Cs]
- [  7.4806E-01,   7.4899E-01,   7.5397E-01, Cs]
- [  2.4607E-01,   2.4543E-01,   7.5393E-01,  I]
- [  7.6539E-01,   7.7039E-01,   2.3461E-01, Br]
- [  2.4607E-01,   7.5457E-01,   7.5393E-01,  I]
- [  7.6688E-01,   2.2986E-01,   7.7340E-01, Br]
- [  2.2660E-01,   7.7014E-01,   2.3312E-01, Br]
- [  7.6539E-01,   2.2961E-01,   2.3461E-01, Br]
- [ -1.0501E-02,  -1.6525E-19,   1.0501E-02, Zr]
cartesian_forces: # hartree/bohr
- [  4.98445436E-06,   6.08043479E-06,  -4.98445436E-06, ]
- [  4.98445436E-06,  -6.08043479E-06,  -4.98445436E-06, ]
- [ -3.49480441E-06,   4.62002243E-17,   6.65638369E-06, ]
- [  3.17359091E-06,   1.79107811E-16,   9.08307869E-06, ]
- [ -6.65638369E-06,  -4.62006876E-17,   3.49480441E-06, ]
- [  9.44306461E-07,   1.56030182E-06,  -9.44306461E-07, ]
- [  9.44306461E-07,  -1.56030182E-06,  -9.44306461E-07, ]
- [ -9.08307869E-06,  -1.79107844E-16,  -3.17359091E-06, ]
- [  4.20315425E-06,   1.38505558E-22,  -4.20315425E-06, ]
force_length_stats: {min:   2.05376999E-06, max:   9.62153822E-06, mean:   6.99436481E-06, }
...

 Integrated electronic density in atomic spheres:
 ------------------------------------------------
 Atom  Sphere_radius  Integrated_density
    1        2.20660          5.36055557
    2        2.20660          5.36055557
    3        2.30022          4.01615594
    4        2.20000          4.92519910
    5        2.30022          4.01615594
    6        2.20000          4.92338011
    7        2.20000          4.92338011
    8        2.20000          4.92519910
    9        2.21000          8.80756063

 PAW TEST:
 ==== Compensation charge inside spheres ============
 The following values must be close to each other ...
 Compensation charge over spherical meshes =     -4.986723722267447
 Compensation charge over fine fft grid    =     -4.986735616073193

 ==== Results concerning PAW augmentation regions ====

 Total pseudopotential strength Dij (hartree):
 Atom #  1
   0.43433  -0.14386  -0.00000  -0.00000   0.00000   0.00001   0.00001  -0.00001  -0.00000   0.00000   0.00000   0.00000 ...
  -0.14386   0.04331   0.00000   0.00000  -0.00000  -0.00000  -0.00000   0.00000   0.00000  -0.00000  -0.00000  -0.00000 ...
  -0.00000   0.00000  -0.09287   0.00000  -0.00000  -0.16696  -0.00000   0.00000   0.00000  -0.00000   0.00000  -0.00000 ...
  -0.00000   0.00000   0.00000  -0.09287   0.00000  -0.00000  -0.16697  -0.00000  -0.00000  -0.00000  -0.00000   0.00000 ...
   0.00000  -0.00000  -0.00000   0.00000  -0.09287   0.00000  -0.00000  -0.16697  -0.00000  -0.00000  -0.00000  -0.00000 ...
   0.00001  -0.00000  -0.16696  -0.00000   0.00000   0.40217   0.00001  -0.00001  -0.00000   0.00000  -0.00000   0.00000 ...
   0.00001  -0.00000  -0.00000  -0.16697  -0.00000   0.00001   0.40218   0.00000   0.00000   0.00000   0.00000  -0.00000 ...
  -0.00001   0.00000   0.00000  -0.00000  -0.16697  -0.00001   0.00000   0.40218   0.00000   0.00000   0.00000   0.00000 ...
  -0.00000   0.00000   0.00000  -0.00000  -0.00000  -0.00000   0.00000   0.00000   0.00532   0.00000   0.00000   0.00000 ...
   0.00000  -0.00000  -0.00000  -0.00000  -0.00000   0.00000   0.00000   0.00000   0.00000   0.00532   0.00000  -0.00000 ...
   0.00000  -0.00000   0.00000  -0.00000  -0.00000  -0.00000   0.00000   0.00000   0.00000   0.00000   0.00532   0.00000 ...
   0.00000  -0.00000  -0.00000   0.00000  -0.00000   0.00000  -0.00000   0.00000   0.00000  -0.00000   0.00000   0.00532 ...
   ...  only 12  components have been written...
 Atom #  9
   3.07635  -0.89594   0.00000   0.00000  -0.00000   0.00000   0.00000  -0.00000   0.00000   0.00000  -0.00002   0.00000 ...
  -0.89594   0.26772   0.00000  -0.00001   0.00001   0.00000   0.00000  -0.00000   0.00000   0.00000   0.00000   0.00000 ...
   0.00000   0.00000   0.26946   0.00000   0.00000  -0.05480   0.00000   0.00000   0.00006  -0.00006   0.00000   0.00000 ...
   0.00000  -0.00001   0.00000   0.26940   0.00000   0.00000  -0.05479  -0.00000   0.00000   0.00000  -0.00007   0.00006 ...
  -0.00000   0.00001   0.00000   0.00000   0.26940   0.00000  -0.00000  -0.05479   0.00000   0.00000  -0.00003  -0.00006 ...
   0.00000   0.00000  -0.05480   0.00000   0.00000   0.01502   0.00000   0.00000  -0.00001   0.00001   0.00000   0.00000 ...
   0.00000   0.00000   0.00000  -0.05479  -0.00000   0.00000   0.01502   0.00000   0.00000   0.00000   0.00001  -0.00001 ...
  -0.00000  -0.00000   0.00000  -0.00000  -0.05479   0.00000   0.00000   0.01502   0.00000   0.00000   0.00000   0.00001 ...
   0.00000   0.00000   0.00006   0.00000   0.00000  -0.00001   0.00000   0.00000  -0.01386   0.00000   0.00000   0.00000 ...
   0.00000   0.00000  -0.00006   0.00000   0.00000   0.00001   0.00000   0.00000   0.00000  -0.01386   0.00000   0.00000 ...
  -0.00002   0.00000   0.00000  -0.00007  -0.00003   0.00000   0.00001   0.00000   0.00000   0.00000  -0.01379   0.00000 ...
   0.00000   0.00000   0.00000   0.00006  -0.00006   0.00000  -0.00001   0.00001   0.00000   0.00000   0.00000  -0.01390 ...
   ...  only 12  components have been written...


 Augmentation waves occupancies Rhoij:
 Atom #  1
   1.99698  -0.01645  -0.00002  -0.00000   0.00000  -0.00002  -0.00001   0.00001  -0.00240   0.00240   0.00049   0.00024 ...
  -0.01645   0.11612  -0.00166  -0.00112   0.00112   0.00005   0.00004  -0.00004   0.01394  -0.01394  -0.00439  -0.00101 ...
  -0.00002  -0.00166   2.00964  -0.00156   0.00156  -0.00510   0.00024  -0.00024   0.00076  -0.00076   0.00065   0.00085 ...
  -0.00000  -0.00112  -0.00156   2.00863  -0.00015   0.00024  -0.00492   0.00002   0.00076  -0.00081   0.00000   0.00107 ...
   0.00000   0.00112   0.00156  -0.00015   2.00863  -0.00024   0.00002  -0.00492  -0.00081   0.00076   0.00014  -0.00107 ...
  -0.00002   0.00005  -0.00510   0.00024  -0.00024   0.00009  -0.00001   0.00001  -0.00002   0.00002  -0.00002  -0.00005 ...
  -0.00001   0.00004   0.00024  -0.00492   0.00002  -0.00001   0.00008  -0.00000  -0.00004   0.00002  -0.00001  -0.00004 ...
   0.00001  -0.00004  -0.00024   0.00002  -0.00492   0.00001  -0.00000   0.00008   0.00002  -0.00004  -0.00002   0.00004 ...
  -0.00240   0.01394   0.00076   0.00076  -0.00081  -0.00002  -0.00004   0.00002   0.03960   0.00087  -0.00880  -0.00008 ...
   0.00240  -0.01394  -0.00076  -0.00081   0.00076   0.00002   0.00002  -0.00004   0.00087   0.03960  -0.00487   0.00008 ...
   0.00049  -0.00439   0.00065   0.00000   0.00014  -0.00002  -0.00001  -0.00002  -0.00880  -0.00487   0.02366  -0.00055 ...
   0.00024  -0.00101   0.00085   0.00107  -0.00107  -0.00005  -0.00004   0.00004  -0.00008   0.00008  -0.00055   0.02507 ...
   ...  only 12  components have been written...
 Atom #  9
   1.99246  -0.06761   0.00000   0.00021  -0.00021   0.00000   0.00089  -0.00089   0.00000   0.00000   0.00062  -0.00016 ...
  -0.06761   1.05055   0.00000   0.00251  -0.00251   0.00000  -0.03570   0.03570   0.00000   0.00000  -0.01461   0.00244 ...
   0.00000   0.00000   1.96526   0.00000   0.00000  -0.20906   0.00000   0.00000   0.00128  -0.00128   0.00000   0.00000 ...
   0.00021   0.00251   0.00000   1.96635  -0.00004   0.00000  -0.20328  -0.00017   0.00000   0.00000   0.00035   0.00128 ...
  -0.00021  -0.00251   0.00000  -0.00004   1.96635   0.00000  -0.00017  -0.20328   0.00000   0.00000   0.00019  -0.00128 ...
   0.00000   0.00000  -0.20906   0.00000   0.00000   1.67159   0.00000   0.00000  -0.02434   0.02434   0.00000   0.00000 ...
   0.00089  -0.03570   0.00000  -0.20328  -0.00017   0.00000   1.53029   0.00672   0.00000   0.00000  -0.10616  -0.02437 ...
  -0.00089   0.03570   0.00000  -0.00017  -0.20328   0.00000   0.00672   1.53029   0.00000   0.00000  -0.05229   0.02437 ...
   0.00000   0.00000   0.00128   0.00000   0.00000  -0.02434   0.00000   0.00000   0.46475  -0.00015   0.00000   0.00000 ...
   0.00000   0.00000  -0.00128   0.00000   0.00000   0.02434   0.00000   0.00000  -0.00015   0.46475   0.00000   0.00000 ...
   0.00062  -0.01461   0.00000   0.00035   0.00019   0.00000  -0.10616  -0.05229   0.00000   0.00000   1.34075   0.00156 ...
  -0.00016   0.00244   0.00000   0.00128  -0.00128   0.00000  -0.02437   0.02437   0.00000   0.00000   0.00156   0.44615 ...
   ...  only 12  components have been written...


================================================================================

 ----iterations are completed or convergence reached----

 Mean square residual over all n,k,spin=   16.846E-08; max=  31.362E-05
 reduced coordinates (array xred) for    9 atoms
       0.246034643990      0.251014013975      0.251937328060
       0.748062671940      0.748985986025      0.753965356010
       0.246072795180      0.245425967920      0.753927204820
       0.765388161280      0.770394330240      0.234611838720
       0.246072795180      0.754574032080      0.753927204820
       0.766878864330      0.229861901435      0.773397332800
       0.226602667200      0.770138098565      0.233121135670
       0.765388161280      0.229605669760      0.234611838720
      -0.010500760390     -0.000000000000      0.010500760390
 rms dE/dt=  6.4196E-05; max dE/dt=  1.3519E-04; dE/dt below (all hartree)
    1      -0.000020613128      0.000000000000     -0.000111095297
    2       0.000111095297      0.000000000000      0.000020613128
    3      -0.000081841583     -0.000034872792      0.000046968790
    4      -0.000108886304     -0.000135193287     -0.000026306983
    5      -0.000046968790      0.000034872792      0.000081841583
    6      -0.000015692077      0.000000000000     -0.000018105654
    7       0.000018105654      0.000000000000      0.000015692077
    8       0.000026306983      0.000135193287      0.000108886304
    9       0.000036725555      0.000000000000     -0.000036725555

 cartesian coordinates (angstrom) at end:
    1      2.93548241254463     2.85400649801257     2.90143810808092
    2      8.77240293316949     8.60851211026769     8.73835862870579
    3      5.81554197927874     5.73125930414013     2.88644227819693
    4      5.88453870387969     5.73125930414013     8.94584276709315
    5      8.78739876305349     5.73125930414013     5.85829906197167
    6      5.85571847102064     8.82772228574690     5.81812257013928
    7      5.85571847111114     2.63479632253337     5.81812257022978
    8      2.72799827415727     5.73125930414013     5.78930233737072
    9      0.06056415684425     0.00000000000000    -0.06056415684425

 cartesian forces (hartree/bohr) at end:
    1      0.00000498445436     0.00000608043479    -0.00000498445436
    2      0.00000498445436    -0.00000608043479    -0.00000498445436
    3     -0.00000349480441     0.00000000000000     0.00000665638369
    4      0.00000317359091     0.00000000000000     0.00000908307869
    5     -0.00000665638369    -0.00000000000000     0.00000349480441
    6      0.00000094430646     0.00000156030182    -0.00000094430646
    7      0.00000094430646    -0.00000156030182    -0.00000094430646
    8     -0.00000908307869    -0.00000000000000    -0.00000317359091
    9      0.00000420315425     0.00000000000000    -0.00000420315425
 frms,max,avg= 4.3685817E-06 9.0830787E-06  -8.336E-07  0.000E+00  8.336E-07 h/b

 cartesian forces (eV/Angstrom) at end:
    1      0.00025631092690     0.00031266850216    -0.00025631092690
    2      0.00025631092690    -0.00031266850216    -0.00025631092690
    3     -0.00017971005315     0.00000000000000     0.00034228498277
    4      0.00016319259223     0.00000000000001     0.00046707064640
    5     -0.00034228498277    -0.00000000000000     0.00017971005315
    6      0.00004855818651     0.00008023393895    -0.00004855818651
    7      0.00004855818651    -0.00008023393895    -0.00004855818651
    8     -0.00046707064640    -0.00000000000001    -0.00016319259223
    9      0.00021613486328     0.00000000000000    -0.00021613486328
 frms,max,avg= 2.2464149E-04 4.6707065E-04  -4.286E-05  0.000E+00  4.286E-05 e/A
 length scales= 15.411958368000 15.599031910000 15.411958368000 bohr
              =  8.155657108084  8.254652162840  8.155657108084 angstroms
 prteigrs : about to open file Cs2TiI6o_DS1_EIG
 Fermi (or HOMO) energy (hartree) =  -0.06431   Average Vxc (hartree)=  -0.28107
 Eigenvalues (hartree) for nkpt= 280  k points:
 kpt#   1, nband= 42, wtk=  0.00058, kpt=  0.0000  0.0000  0.0000 (reduced coord)
  -1.88019   -1.07079   -1.07045   -1.07039   -0.81558   -0.81543   -0.57299   -0.56471
  -0.56334   -0.56107   -0.47325   -0.46590   -0.33287   -0.33241   -0.33237   -0.33069
  -0.33068   -0.33060   -0.19496   -0.16065   -0.15868   -0.15781   -0.15736   -0.15441
  -0.14941   -0.14527   -0.14143   -0.11140   -0.10618   -0.10590   -0.09809   -0.08803
  -0.08316   -0.07535   -0.07468   -0.06431    0.01187    0.01541    0.01543    0.08443
   0.10367    0.11013
 prteigrs : prtvol=0 or 1, do not print more k-points.


--- !EnergyTerms
iteration_state     : {dtset: 1, }
comment             : Components of total free energy in Hartree
kinetic             :  4.86964201792681E+01
hartree             :  4.14053391720553E+01
xc                  : -6.40327175708440E+01
Ewald energy        : -1.15261103389427E+02
psp_core            :  1.12537043794192E+01
local_psp           : -1.22882774726260E+02
spherical_terms     :  3.41596095417681E+01
total_energy        : -1.66661522414020E+02
total_energy_eV     : -4.53509066109990E+03
...


--- !EnergyTermsDC
iteration_state     : {dtset: 1, }
comment             : '"Double-counting" decomposition of free energy'
band_energy         : -2.83908972397271E+01
Ewald energy        : -1.15261103389427E+02
psp_core            :  1.12537043794192E+01
xc_dc               : -6.22400374752369E+01
spherical_terms     :  2.79767942945134E+01
total_energy_dc     : -1.66661539430459E+02
total_energy_dc_eV  : -4.53509112414074E+03
...


 Cartesian components of stress tensor (hartree/bohr^3)
  sigma(1 1)=  2.97444164E-06  sigma(3 2)=  6.31944602E-14
  sigma(2 2)=  2.97117669E-06  sigma(3 1)= -7.75071210E-09
  sigma(3 3)=  2.97444164E-06  sigma(2 1)=  6.31943452E-14

-Cartesian components of stress tensor (GPa)         [Pressure= -8.7479E-02 GPa]
- sigma(1 1)=  8.75110795E-02  sigma(3 2)=  1.85924490E-09
- sigma(2 2)=  8.74150216E-02  sigma(3 1)= -2.28033784E-04
- sigma(3 3)=  8.75110795E-02  sigma(2 1)=  1.85924151E-09

================================================================================
== DATASET  2 ==================================================================
-   mpi_nproc: 6, omp_nthreads: -1 (-1 if OMP is not activated)


--- !DatasetInfo
iteration_state: {dtset: 2, }
dimensions: {natom: 9, nkpt: 280, mband: 42, nsppol: 1, nspinor: 1, nspden: 1, mpw: 7992, }
cutoff_energies: {ecut:  16.0, pawecutdg:  40.0, }
electrons: {nelect:   7.20000000E+01, charge:   0.00000000E+00, occopt:   1.00000000E+00, tsmear:   1.00000000E-02, }
meta: {optdriver: 0, ionmov: 0, optcell: 0, iscf: 17, paral_kgb: 0, }
...

 Real(R)+Recip(G) space primitive vectors, cartesian coordinates (Bohr,Bohr^-1):
 R(1)=  0.0000000 11.0301817 11.0301817  G(1)= -0.0461659  0.0453302  0.0453302
 R(2)= 10.8305108  0.0655016 10.9646801  G(2)=  0.0461659 -0.0458750  0.0458750
 R(3)= 10.8305108 10.9646801  0.0655016  G(3)=  0.0461659  0.0458750 -0.0458750
 Unit cell volume ucvol=  2.6040863E+03 bohr^3
 Angles (23,13,12)=  6.00077592E+01  5.95976512E+01  5.95976512E+01 degrees

 Coarse grid specifications (used for wave-functions):

 getcut: wavevector=  0.0000  0.0000  0.0000  ngfft=  60  60  60
         ecut(hartree)=     16.000   => boxcut(ratio)=   2.13613

 Fine grid specifications (used for densities):

 getcut: wavevector=  0.0000  0.0000  0.0000  ngfft=  90  90  90
         ecut(hartree)=     40.000   => boxcut(ratio)=   2.02677
--------------------------------------------------------------------------------

_setup2: Arith. and geom. avg. npw (full set) are    7960.524    7960.515

================================================================================

--- !BeginCycle
iteration_state: {dtset: 2, }
solver: {iscf: 17, nstep: 2500, nline: 4, wfoptalg: 10, }
tolerances: {toldfe: 1.00E-08, }
...

     iter   Etot(hartree)      deltaE(h)  residm     nres2
 ETOT  1  -166.51306049593    -1.665E+02 1.889E-01 1.628E+01
 ETOT  2  -166.66454465215    -1.515E-01 1.625E-02 3.847E+00
 ETOT  3  -166.66118927539     3.355E-03 7.048E-03 8.248E-01
 ETOT  4  -166.66174258638    -5.533E-04 7.761E-03 5.391E-02
 ETOT  5  -166.66148276387     2.598E-04 1.180E-03 7.328E-03
 ETOT  6  -166.66153609511    -5.333E-05 1.836E-03 6.657E-04
 ETOT  7  -166.66153745734    -1.362E-06 1.178E-03 2.028E-04
 ETOT  8  -166.66153938254    -1.925E-06 1.025E-03 2.159E-05
 ETOT  9  -166.66153939920    -1.667E-08 3.213E-04 5.307E-06
 ETOT 10  -166.66153942490    -2.570E-08 7.368E-04 5.930E-07
 ETOT 11  -166.66153942937    -4.463E-09 2.303E-04 1.973E-07
 ETOT 12  -166.66153943055    -1.185E-09 2.987E-04 4.246E-08

 At SCF step   12, etot is converged : 
  for the second time, diff in etot=  1.185E-09 < toldfe=  1.000E-08

 Cartesian components of stress tensor (hartree/bohr^3)
  sigma(1 1)=  2.97478760E-06  sigma(3 2)= -7.81658719E-09
  sigma(2 2)=  2.97857942E-06  sigma(3 1)=  1.19142317E-13
  sigma(3 3)=  2.97857942E-06  sigma(2 1)=  1.19142941E-13


--- !ResultsGS
iteration_state: {dtset: 2, }
comment   : Summary of ground state results
lattice_vectors:
- [  0.0000000,  11.0301817,  11.0301817, ]
- [ 10.8305108,   0.0655016,  10.9646801, ]
- [ 10.8305108,  10.9646801,   0.0655016, ]
lattice_lengths: [  15.59903,   15.41196,   15.41196, ]
lattice_angles: [ 60.008,  59.598,  59.598, ] # degrees, (23, 13, 12)
lattice_volume:   2.6040863E+03
convergence: {deltae: -1.185E-09, res2:  4.246E-08, residm:  2.987E-04, diffor: null, }
etotal    :  -1.66661539E+02
entropy   :   0.00000000E+00
fermie    :  -6.43065557E-02
cartesian_stress_tensor: # hartree/bohr^3
- [  2.97478760E-06,   1.19142941E-13,   1.19142317E-13, ]
- [  1.19142941E-13,   2.97857942E-06,  -7.81658719E-09, ]
- [  1.19142317E-13,  -7.81658719E-09,   2.97857942E-06, ]
pressure_GPa:  -8.7596E-02
xred      :
- [  2.5101E-01,   2.4603E-01,   2.5194E-01, Cs]
- [  7.4899E-01,   7.4806E-01,   7.5397E-01, Cs]
- [  2.4543E-01,   2.4607E-01,   7.5393E-01,  I]
- [  7.7039E-01,   7.6539E-01,   2.3461E-01, Br]
- [  2.2986E-01,   7.6688E-01,   7.7340E-01, Br]
- [  7.5457E-01,   2.4607E-01,   7.5393E-01,  I]
- [  2.2961E-01,   7.6539E-01,   2.3461E-01, Br]
- [  7.7014E-01,   2.2660E-01,   2.3312E-01, Br]
- [  1.0455E-18,  -1.0501E-02,   1.0501E-02, Zr]
cartesian_forces: # hartree/bohr
- [  6.15819413E-06,   4.94292737E-06,  -4.94292737E-06, ]
- [ -6.15819413E-06,   4.94292737E-06,  -4.94292737E-06, ]
- [  6.22485277E-17,  -3.62485984E-06,   5.88432602E-06, ]
- [  3.54676263E-16,   3.10694689E-06,   9.76675393E-06, ]
- [  2.36344527E-06,   8.57210529E-07,  -8.57210529E-07, ]
- [ -6.22488852E-17,  -5.88432602E-06,   3.62485984E-06, ]
- [ -3.54675350E-16,  -9.76675393E-06,  -3.10694689E-06, ]
- [ -2.36344527E-06,   8.57210529E-07,  -8.57210529E-07, ]
- [  1.41328200E-22,   4.56871712E-06,  -4.56871712E-06, ]
force_length_stats: {min:   2.65621787E-06, max:   1.02490293E-05, mean:   7.19179194E-06, }
...

 Integrated electronic density in atomic spheres:
 ------------------------------------------------
 Atom  Sphere_radius  Integrated_density
    1        2.20660          5.36055545
    2        2.20660          5.36055545
    3        2.30022          4.01615736
    4        2.20000          4.92519710
    5        2.20000          4.92337936
    6        2.30022          4.01615736
    7        2.20000          4.92519710
    8        2.20000          4.92337936
    9        2.21000          8.80756252

 PAW TEST:
 ==== Compensation charge inside spheres ============
 The following values must be close to each other ...
 Compensation charge over spherical meshes =     -4.986727167388285
 Compensation charge over fine fft grid    =     -4.986735320656789

 ==== Results concerning PAW augmentation regions ====

 Total pseudopotential strength Dij (hartree):
 Atom #  1
   0.43433  -0.14386   0.00000  -0.00000  -0.00000  -0.00001   0.00001   0.00001  -0.00000   0.00000   0.00000   0.00000 ...
  -0.14386   0.04331  -0.00000   0.00000   0.00000   0.00000  -0.00000  -0.00000   0.00000  -0.00000  -0.00000  -0.00000 ...
   0.00000  -0.00000  -0.09287   0.00000  -0.00000  -0.16697  -0.00000   0.00000  -0.00000  -0.00000  -0.00000  -0.00000 ...
  -0.00000   0.00000   0.00000  -0.09287   0.00000  -0.00000  -0.16697  -0.00000  -0.00000   0.00000  -0.00000  -0.00000 ...
  -0.00000   0.00000  -0.00000   0.00000  -0.09287   0.00000  -0.00000  -0.16696   0.00000  -0.00000   0.00000  -0.00000 ...
  -0.00001   0.00000  -0.16697  -0.00000   0.00000   0.40218   0.00000  -0.00001   0.00000   0.00000   0.00000   0.00000 ...
   0.00001  -0.00000  -0.00000  -0.16697  -0.00000   0.00000   0.40218   0.00001   0.00000  -0.00000   0.00000   0.00000 ...
   0.00001  -0.00000   0.00000  -0.00000  -0.16696  -0.00001   0.00001   0.40217  -0.00000   0.00000  -0.00000   0.00000 ...
  -0.00000   0.00000  -0.00000  -0.00000   0.00000   0.00000   0.00000  -0.00000   0.00532   0.00000   0.00000   0.00000 ...
   0.00000  -0.00000  -0.00000   0.00000  -0.00000   0.00000  -0.00000   0.00000   0.00000   0.00532   0.00000  -0.00000 ...
   0.00000  -0.00000  -0.00000  -0.00000   0.00000   0.00000   0.00000  -0.00000   0.00000   0.00000   0.00532   0.00000 ...
   0.00000  -0.00000  -0.00000  -0.00000  -0.00000   0.00000   0.00000   0.00000   0.00000  -0.00000   0.00000   0.00532 ...
   ...  only 12  components have been written...
 Atom #  9
   3.07635  -0.89594  -0.00000   0.00000   0.00000  -0.00000   0.00000   0.00000   0.00000   0.00000  -0.00002   0.00000 ...
  -0.89594   0.26772   0.00001  -0.00001   0.00000  -0.00000   0.00000   0.00000   0.00000   0.00000   0.00000   0.00000 ...
  -0.00000   0.00001   0.26940   0.00000   0.00000  -0.05479  -0.00000   0.00000   0.00000  -0.00006  -0.00003   0.00000 ...
   0.00000  -0.00001   0.00000   0.26940   0.00000  -0.00000  -0.05479   0.00000   0.00000   0.00006  -0.00007   0.00000 ...
   0.00000   0.00000   0.00000   0.00000   0.26946   0.00000   0.00000  -0.05480   0.00006   0.00000   0.00000  -0.00006 ...
  -0.00000  -0.00000  -0.05479  -0.00000   0.00000   0.01502   0.00000   0.00000   0.00000   0.00001   0.00000   0.00000 ...
   0.00000   0.00000  -0.00000  -0.05479   0.00000   0.00000   0.01502   0.00000   0.00000  -0.00001   0.00001   0.00000 ...
   0.00000   0.00000   0.00000   0.00000  -0.05480   0.00000   0.00000   0.01502  -0.00001   0.00000   0.00000   0.00001 ...
   0.00000   0.00000   0.00000   0.00000   0.00006   0.00000   0.00000  -0.00001  -0.01386   0.00000   0.00000   0.00000 ...
   0.00000   0.00000  -0.00006   0.00006   0.00000   0.00001  -0.00001   0.00000   0.00000  -0.01390   0.00000   0.00000 ...
  -0.00002   0.00000  -0.00003  -0.00007   0.00000   0.00000   0.00001   0.00000   0.00000   0.00000  -0.01379   0.00000 ...
   0.00000   0.00000   0.00000   0.00000  -0.00006   0.00000   0.00000   0.00001   0.00000   0.00000   0.00000  -0.01386 ...
   ...  only 12  components have been written...


 Augmentation waves occupancies Rhoij:
 Atom #  1
   1.99698  -0.01645   0.00000  -0.00000  -0.00002   0.00001  -0.00001  -0.00002  -0.00240   0.00024   0.00049   0.00240 ...
  -0.01645   0.11612   0.00112  -0.00112  -0.00166  -0.00004   0.00004   0.00005   0.01394  -0.00101  -0.00439  -0.01394 ...
   0.00000   0.00112   2.00863  -0.00015   0.00156  -0.00492   0.00002  -0.00024  -0.00081  -0.00107   0.00014   0.00076 ...
  -0.00000  -0.00112  -0.00015   2.00863  -0.00156   0.00002  -0.00492   0.00024   0.00076   0.00107   0.00000  -0.00081 ...
  -0.00002  -0.00166   0.00156  -0.00156   2.00964  -0.00024   0.00024  -0.00510   0.00076   0.00085   0.00065  -0.00076 ...
   0.00001  -0.00004  -0.00492   0.00002  -0.00024   0.00008  -0.00000   0.00001   0.00002   0.00004  -0.00002  -0.00004 ...
  -0.00001   0.00004   0.00002  -0.00492   0.00024  -0.00000   0.00008  -0.00001  -0.00004  -0.00004  -0.00001   0.00002 ...
  -0.00002   0.00005  -0.00024   0.00024  -0.00510   0.00001  -0.00001   0.00009  -0.00002  -0.00005  -0.00002   0.00002 ...
  -0.00240   0.01394  -0.00081   0.00076   0.00076   0.00002  -0.00004  -0.00002   0.03960  -0.00008  -0.00880   0.00087 ...
   0.00024  -0.00101  -0.00107   0.00107   0.00085   0.00004  -0.00004  -0.00005  -0.00008   0.02507  -0.00055   0.00008 ...
   0.00049  -0.00439   0.00014   0.00000   0.00065  -0.00002  -0.00001  -0.00002  -0.00880  -0.00055   0.02366  -0.00487 ...
   0.00240  -0.01394   0.00076  -0.00081  -0.00076  -0.00004   0.00002   0.00002   0.00087   0.00008  -0.00487   0.03960 ...
   ...  only 12  components have been written...
 Atom #  9
   1.99246  -0.06761  -0.00021   0.00021   0.00000  -0.00089   0.00089   0.00000   0.00000  -0.00016   0.00062   0.00000 ...
  -0.06761   1.05055  -0.00251   0.00251   0.00000   0.03570  -0.03570   0.00000   0.00000   0.00244  -0.01461   0.00000 ...
  -0.00021  -0.00251   1.96635  -0.00004   0.00000  -0.20328  -0.00017   0.00000   0.00000  -0.00128   0.00019   0.00000 ...
   0.00021   0.00251  -0.00004   1.96635   0.00000  -0.00017  -0.20328   0.00000   0.00000   0.00128   0.00035   0.00000 ...
   0.00000   0.00000   0.00000   0.00000   1.96526   0.00000   0.00000  -0.20906   0.00128   0.00000   0.00000  -0.00128 ...
  -0.00089   0.03570  -0.20328  -0.00017   0.00000   1.53029   0.00672   0.00000   0.00000   0.02437  -0.05229   0.00000 ...
   0.00089  -0.03570  -0.00017  -0.20328   0.00000   0.00672   1.53029   0.00000   0.00000  -0.02437  -0.10617   0.00000 ...
   0.00000   0.00000   0.00000   0.00000  -0.20906   0.00000   0.00000   1.67159  -0.02434   0.00000   0.00000   0.02434 ...
   0.00000   0.00000   0.00000   0.00000   0.00128   0.00000   0.00000  -0.02434   0.46475   0.00000   0.00000  -0.00015 ...
  -0.00016   0.00244  -0.00128   0.00128   0.00000   0.02437  -0.02437   0.00000   0.00000   0.44615   0.00156   0.00000 ...
   0.00062  -0.01461   0.00019   0.00035   0.00000  -0.05229  -0.10617   0.00000   0.00000   0.00156   1.34075   0.00000 ...
   0.00000   0.00000   0.00000   0.00000  -0.00128   0.00000   0.00000   0.02434  -0.00015   0.00000   0.00000   0.46475 ...
   ...  only 12  components have been written...


================================================================================

 ----iterations are completed or convergence reached----

 Mean square residual over all n,k,spin=   19.836E-08; max=  29.872E-05
 reduced coordinates (array xred) for    9 atoms
       0.251013995120      0.246034689570      0.251937320190
       0.748986004880      0.748062679810      0.753965310430
       0.245425975100      0.246072795020      0.753927204980
       0.770394345360      0.765388127640      0.234611872360
       0.229861895435      0.766878880770      0.773397328360
       0.754574024900      0.246072795020      0.753927204980
       0.229605654640      0.765388127640      0.234611872360
       0.770138104565      0.226602671640      0.233121119230
       0.000000000000     -0.010500767109      0.010500767109
 rms dE/dt=  6.5916E-05; max dE/dt=  1.4200E-04; dE/dt below (all hartree)
    1       0.000000000000     -0.000022297564     -0.000111095213
    2       0.000000000000      0.000111095213      0.000022297564
    3      -0.000024922323     -0.000073757341      0.000048835018
    4      -0.000141999260     -0.000116767865     -0.000025231394
    5       0.000000000000     -0.000025729452     -0.000025465187
    6       0.000024922323     -0.000048835018      0.000073757341
    7       0.000141999260      0.000025231394      0.000116767865
    8       0.000000000000      0.000025465187      0.000025729452
    9       0.000000000000      0.000040320240     -0.000040320240

 cartesian coordinates (angstrom) at end:
    1      2.85400680897078     2.93548238769394     2.90143839403874
    2      8.60851218018399     8.77240316942535     8.73835917577015
    3      5.73125949457739     5.81554210787026     2.88644262265748
    4      5.73125949457739     5.88453943165518     8.94584287928354
    5      8.82772264784798     5.85571867047649     5.81812289281698
    6      5.73125949457739     8.78739894080661     5.85829945559384
    7      5.73125949457739     2.72799868418056     5.78930213180891
    8      2.63479634130680     5.85571867064711     5.81812289298760
    9      0.00000000000000     0.06056419109511    -0.06056419109511

 cartesian forces (hartree/bohr) at end:
    1      0.00000615819413     0.00000494292737    -0.00000494292737
    2     -0.00000615819413     0.00000494292737    -0.00000494292737
    3      0.00000000000000    -0.00000362485984     0.00000588432602
    4      0.00000000000000     0.00000310694689     0.00000976675393
    5      0.00000236344527     0.00000085721053    -0.00000085721053
    6     -0.00000000000000    -0.00000588432602     0.00000362485984
    7     -0.00000000000000    -0.00000976675393    -0.00000310694689
    8     -0.00000236344527     0.00000085721053    -0.00000085721053
    9      0.00000000000000     0.00000456871712    -0.00000456871712
 frms,max,avg= 4.4515881E-06 9.7667539E-06   0.000E+00 -8.693E-07  8.693E-07 h/b

 cartesian forces (eV/Angstrom) at end:
    1      0.00031666704747     0.00025417552337    -0.00025417552337
    2     -0.00031666704747     0.00025417552337    -0.00025417552337
    3      0.00000000000000    -0.00018639777177     0.00030258418461
[...]
           strten3     2.9690768111E-06  2.9725960619E-06  2.9725960619E-06
                       8.7809765513E-09  7.2950282440E-14  7.2950037571E-14
           strten4     2.9876784515E-06  2.9876784515E-06  2.9492279252E-06
                       2.8314610082E-14  2.8315654975E-14 -5.6644267149E-14
           symafm1       1    1    1    1
           symafm2       1    1    1    1
           symafm3       1    1    1    1
           symafm4       1    1    1    1    1    1    1    1    1    1
                         1    1    1    1    1    1
           symrel1     1  0  0   0  1  0   0  0  1       1 -1  0   0 -1  0   0 -1  1
                       0  0 -1   0 -1  0  -1  0  0       0  1 -1   0  1  0  -1  1  0
           symrel2     1  0  0   0  1  0   0  0  1      -1  0  0  -1  1  0  -1  0  1
                      -1  0  0   0  0 -1   0 -1  0       1  0  0   1  0 -1   1 -1  0
           symrel3     1  0  0   0  1  0   0  0  1       1  0  0   1 -1  0   1  0 -1
                       1  0  0   0  0  1   0  1  0       1  0  0   1  0 -1   1 -1  0
           symrel4     1  0  0   0  1  0   0  0  1      -1  0  0   0 -1  0   0  0 -1
                      -1  0  1   0 -1  1   0  0  1       1  0 -1   0  1 -1   0  0 -1
                       0  1 -1   1  0 -1   0  0 -1       0 -1  1  -1  0  1   0  0  1
                       0 -1  0  -1  0  0   0  0 -1       0  1  0   1  0  0   0  0  1
                       0  1 -1   0  1  0  -1  1  0       0 -1  1   0 -1  0   1 -1  0
                      -1  0  1  -1  0  0  -1  1  0       1  0 -1   1  0  0   1 -1  0
                       1  0  0   1  0 -1   1 -1  0      -1  0  0  -1  0  1  -1  1  0
                       0 -1  0   0 -1  1   1 -1  0       0  1  0   0  1 -1  -1  1  0
            tnons1     0.0000000  0.0000000  0.0000000     0.0000000 -0.0000000  0.0000000
                       0.0000000 -0.0000000  0.0000000     0.0000000 -0.0000000  0.0000000
            tnons2     0.0000000  0.0000000  0.0000000     0.0000000  0.0000000  0.0000000
                       0.0000000  0.0000000  0.0000000    -0.0000000  0.0000000  0.0000000
            tnons3     0.0000000  0.0000000  0.0000000     0.0000000 -0.0000000  0.0000000
                       0.0000000 -0.0000000  0.0000000     0.0000000  0.0000000  0.0000000
            tnons4     0.0000000  0.0000000  0.0000000    -0.0000000  0.0000000 -0.0000000
                      -0.0000000  0.0000000 -0.0000000     0.0000000  0.0000000 -0.0000000
                      -0.0000000  0.0000000 -0.0000000     0.0000000  0.0000000 -0.0000000
                       0.0000000  0.0000000 -0.0000000    -0.0000000  0.0000000  0.0000000
                      -0.0000000  0.0000000 -0.0000000     0.0000000 -0.0000000 -0.0000000
                      -0.0000000  0.0000000 -0.0000000     0.0000000 -0.0000000 -0.0000000
                       0.0000000 -0.0000000 -0.0000000    -0.0000000  0.0000000 -0.0000000
                       0.0000000 -0.0000000 -0.0000000    -0.0000000  0.0000000 -0.0000000
           toldfe      1.00000000E-08 Hartree
            typat1     1  1  2  4  2  4  4  4  3
            typat2     1  1  2  4  4  2  4  4  3
            typat3     1  1  4  2  4  2  4  4  3
            typat4     1  1  2  2  4  4  4  4  3
           useylm           1
              wtk1       0.00058    0.00231    0.00231    0.00231    0.00231    0.00231
                         0.00116    0.00231    0.00231    0.00463    0.00463    0.00463
                         0.00463    0.00463    0.00463    0.00463    0.00463    0.00463
                         0.00463    0.00231    0.00463    0.00231    0.00463    0.00463
                         0.00463    0.00463    0.00463    0.00463    0.00463    0.00463
                         0.00463    0.00231    0.00463    0.00463    0.00231    0.00463
                         0.00463    0.00463    0.00463    0.00463    0.00463    0.00463
                         0.00463    0.00231    0.00463    0.00463    0.00463    0.00231
                         0.00463    0.00463
              wtk2       0.00058    0.00231    0.00231    0.00231    0.00231    0.00231
                         0.00116    0.00231    0.00231    0.00463    0.00463    0.00463
                         0.00463    0.00463    0.00463    0.00463    0.00463    0.00463
                         0.00463    0.00231    0.00463    0.00231    0.00463    0.00463
                         0.00463    0.00463    0.00463    0.00463    0.00463    0.00463
                         0.00463    0.00231    0.00463    0.00463    0.00231    0.00463
                         0.00463    0.00463    0.00463    0.00463    0.00463    0.00463
                         0.00463    0.00231    0.00463    0.00463    0.00463    0.00231
                         0.00463    0.00463
              wtk3       0.00058    0.00231    0.00231    0.00231    0.00231    0.00231
                         0.00116    0.00231    0.00231    0.00463    0.00463    0.00463
                         0.00463    0.00463    0.00463    0.00463    0.00463    0.00463
                         0.00463    0.00231    0.00463    0.00231    0.00463    0.00463
                         0.00463    0.00463    0.00463    0.00463    0.00463    0.00463
                         0.00463    0.00231    0.00463    0.00463    0.00231    0.00463
                         0.00463    0.00463    0.00463    0.00463    0.00463    0.00463
                         0.00463    0.00231    0.00463    0.00463    0.00463    0.00231
                         0.00463    0.00463
              wtk4       0.00058    0.00463    0.00463    0.00463    0.00463    0.00463
                         0.00231    0.00116    0.00463    0.00463    0.00463    0.00463
                         0.00463    0.00463    0.00463    0.00463    0.00463    0.00231
                         0.00116    0.00463    0.00463    0.00463    0.00463    0.00463
                         0.00463    0.00463    0.00231    0.00116    0.00463    0.00463
                         0.00463    0.00463    0.00463    0.00231    0.00116    0.00463
                         0.00463    0.00463    0.00231    0.00116    0.00463    0.00231
                         0.00058    0.00231    0.00926    0.00926    0.00926    0.00926
                         0.00926    0.00926
                       outvars : Printing only first  50 k-points.
           xangst1     2.9354824125E+00  2.8540064980E+00  2.9014381081E+00
                       8.7724029332E+00  8.6085121103E+00  8.7383586287E+00
                       5.8155419793E+00  5.7312593041E+00  2.8864422782E+00
                       5.8845387039E+00  5.7312593041E+00  8.9458427671E+00
                       8.7873987631E+00  5.7312593041E+00  5.8582990620E+00
                       5.8557184710E+00  8.8277222857E+00  5.8181225701E+00
                       5.8557184711E+00  2.6347963225E+00  5.8181225702E+00
                       2.7279982742E+00  5.7312593041E+00  5.7893023374E+00
                       6.0564156844E-02  2.2709406363E-18 -6.0564156844E-02
           xangst2     2.8540068090E+00  2.9354823877E+00  2.9014383940E+00
                       8.6085121802E+00  8.7724031694E+00  8.7383591758E+00
                       5.7312594946E+00  5.8155421079E+00  2.8864426227E+00
                       5.7312594946E+00  5.8845394317E+00  8.9458428793E+00
                       8.8277226478E+00  5.8557186705E+00  5.8181228928E+00
                       5.7312594946E+00  8.7873989408E+00  5.8582994556E+00
                       5.7312594946E+00  2.7279986842E+00  5.7893021318E+00
                       2.6347963413E+00  5.8557186706E+00  5.8181228930E+00
                       2.5461377005E-19  6.0564191095E-02 -6.0564191095E-02
           xangst3     2.8772512466E+00  2.9008388847E+00  2.9008388847E+00
                       8.5852494448E+00  8.6684610781E+00  8.6684610781E+00
                       5.7312503457E+00  5.8152191490E+00  2.6586882835E+00
                       5.7312503457E+00  5.7462477282E+00  8.7181109176E+00
                       8.8277056777E+00  5.7864239352E+00  5.7864239352E+00
                       5.7312503457E+00  8.7181109176E+00  5.7462477282E+00
                       5.7312503457E+00  2.6586882835E+00  5.8152191490E+00
                       2.6347950138E+00  5.7864239353E+00  5.7864239353E+00
                      -1.9811946666E-35  6.0563635350E-02  6.0563635350E-02
           xangst4     2.8846835404E+00  2.8846835404E+00  2.8852637820E+00
                       8.6540506211E+00  8.6540506211E+00  8.6557913461E+00
                       5.7693670807E+00  5.7693670807E+00  2.9044457323E+00
                       5.7693670807E+00  5.7693670807E+00  8.6366093957E+00
                       8.9004214553E+00  5.7693670808E+00  5.7705275640E+00
                       5.7693670808E+00  8.9004214553E+00  5.7705275640E+00
                       5.7693670807E+00  2.6383127062E+00  5.7705275640E+00
                       2.6383127062E+00  5.7693670807E+00  5.7705275640E+00
                      -2.2121263481E-20 -3.8244105276E-20  6.3894944041E-21
            xcart1     5.5472578276E+00  5.3932906627E+00  5.4829234158E+00
                       1.6577439071E+01  1.6267730300E+01  1.6513104659E+01
                       1.0989781655E+01  1.0830510481E+01  5.4545854042E+00
                       1.1120166569E+01  1.0830510481E+01  1.6905192858E+01
                       1.6605777083E+01  1.0830510481E+01  1.1070580832E+01
                       1.1065704222E+01  1.6681977497E+01  1.0994658265E+01
                       1.1065704222E+01  4.9790434655E+00  1.0994658265E+01
                       5.1551696291E+00  1.0830510481E+01  1.0940195918E+01
                       1.1444966990E-01  4.2914558666E-18 -1.1444966990E-01
            xcart2     5.3932912503E+00  5.5472577807E+00  5.4829239562E+00
                       1.6267730432E+01  1.6577439517E+01  1.6513105693E+01
                       1.0830510841E+01  1.0989781898E+01  5.4545860551E+00
                       1.0830510841E+01  1.1120167944E+01  1.6905193070E+01
                       1.6681978182E+01  1.1065704598E+01  1.0994658875E+01
                       1.0830510841E+01  1.6605777419E+01  1.1070581576E+01
                       1.0830510841E+01  5.1551704040E+00  1.0940195530E+01
                       4.9790435010E+00  1.1065704599E+01  1.0994658875E+01
                       4.8115029506E-19  1.1444973463E-01 -1.1444973463E-01
            xcart3     5.4372168717E+00  5.4817910477E+00  5.4817910477E+00
                       1.6223770233E+01  1.6381017431E+01  1.6381017431E+01
                       1.0830493552E+01  1.0989171594E+01  5.0241927285E+00
                       1.0830493552E+01  1.0858834498E+01  1.6474842030E+01
                       1.6681946113E+01  1.0934756526E+01  1.0934756526E+01
                       1.0830493552E+01  1.6474842030E+01  1.0858834498E+01
                       1.0830493552E+01  5.0241927285E+00  1.0989171594E+01
                       4.9790409923E+00  1.0934756526E+01  1.0934756526E+01
                      -3.7439153357E-35  1.1444868442E-01  1.1444868442E-01
            xcart4     5.4512618713E+00  5.4512618713E+00  5.4523583691E+00
                       1.6353785614E+01  1.6353785614E+01  1.6357075107E+01
                       1.0902523743E+01  1.0902523743E+01  5.4886070020E+00
                       1.0902523743E+01  1.0902523743E+01  1.6320826475E+01
                       1.6819359018E+01  1.0902523743E+01  1.0904716738E+01
                       1.0902523743E+01  1.6819359018E+01  1.0904716738E+01
                       1.0902523743E+01  4.9856884676E+00  1.0904716738E+01
                       4.9856884676E+00  1.0902523743E+01  1.0904716738E+01
                      -4.1803129692E-20 -7.2270885170E-20  1.2074394551E-20
             xred1     2.4603464399E-01  2.5101401398E-01  2.5193732806E-01
                       7.4806267194E-01  7.4898598602E-01  7.5396535601E-01
                       2.4607279518E-01  2.4542596792E-01  7.5392720482E-01
                       7.6538816128E-01  7.7039433024E-01  2.3461183872E-01
                       2.4607279518E-01  7.5457403208E-01  7.5392720482E-01
                       7.6687886433E-01  2.2986190143E-01  7.7339733280E-01
                       2.2660266720E-01  7.7013809857E-01  2.3312113567E-01
                       7.6538816128E-01  2.2960566976E-01  2.3461183872E-01
                      -1.0500760390E-02 -1.6524964519E-19  1.0500760390E-02
             xred2     2.5101399512E-01  2.4603468957E-01  2.5193732019E-01
                       7.4898600488E-01  7.4806267981E-01  7.5396531043E-01
                       2.4542597510E-01  2.4607279502E-01  7.5392720498E-01
                       7.7039434536E-01  7.6538812764E-01  2.3461187236E-01
                       2.2986189544E-01  7.6687888077E-01  7.7339732836E-01
                       7.5457402490E-01  2.4607279502E-01  7.5392720498E-01
                       2.2960565464E-01  7.6538812764E-01  2.3461187236E-01
                       7.7013810456E-01  2.2660267164E-01  2.3312111923E-01
                       1.0455050580E-18 -1.0500767109E-02  1.0500767109E-02
             xred3     2.5193803614E-01  2.5101427028E-01  2.5101427028E-01
                       7.5396657670E-01  7.4898572972E-01  7.4898572972E-01
                       2.3461013468E-01  2.2960619582E-01  7.7039380418E-01
                       7.5392736910E-01  7.5457485687E-01  2.4542514313E-01
                       2.3312202406E-01  7.7013785345E-01  7.7013785345E-01
                       7.5392736910E-01  2.4542514313E-01  7.5457485687E-01
                       2.3461013468E-01  7.7039380418E-01  2.2960619582E-01
                       7.7339773096E-01  2.2986214655E-01  2.2986214655E-01
                       1.0500624576E-02 -1.1277902017E-19  1.1277902017E-19
             xred4     2.5000000000E-01  2.5000000000E-01  2.5000000000E-01
                       7.5000000000E-01  7.5000000000E-01  7.5000000000E-01
                       2.5166206210E-01  2.5166206210E-01  7.4833793790E-01
                       7.4833793790E-01  7.4833793790E-01  2.5166206210E-01
                       2.2864836552E-01  7.7135163448E-01  7.7135163448E-01
                       7.7135163448E-01  2.2864836552E-01  7.7135163448E-01
                       2.2864836552E-01  7.7135163448E-01  2.2864836552E-01
                       7.7135163448E-01  2.2864836552E-01  2.2864836552E-01
                      -8.4364820404E-22  1.9509116792E-21 -5.7851734225E-21
            znucl       55.00000   53.00000   40.00000   35.00000

================================================================================


- Timing analysis has been suppressed with timopt=0



================================================================================

 Suggested references for the acknowledgment of ABINIT usage.

 The users of ABINIT have little formal obligations with respect to the ABINIT group
 (those specified in the GNU General Public License, http://www.gnu.org/copyleft/gpl.txt).
 However, it is common practice in the scientific literature,
 to acknowledge the efforts of people that have made the research possible.
 In this spirit, please find below suggested citations of work written by ABINIT developers,
 corresponding to implementations inside of ABINIT that you have used in the present run.
 Note also that it will be of great value to readers of publications presenting these results,
 to read papers enabling them to understand the theoretical formalism and details
 of the ABINIT implementation.
 For information on why they are suggested, see also https://docs.abinit.org/theory/acknowledgments.
-
- [1] Implementation of the Projector Augmented-Wave Method in the ABINIT code.
- M. Torrent, F. Jollet, F. Bottin, G. Zerah, and X. Gonze Comput. Mat. Science 42, 337, (2008).
- Comment: PAW calculations. Strong suggestion to cite this paper.
- DOI and bibtex: see https://docs.abinit.org/theory/bibliography/#torrent2008
-
- [2] Libxc: A library of exchange and correlation functionals for density functional theory.
- M.A.L. Marques, M.J.T. Oliveira, T. Burnus, Computer Physics Communications 183, 2227 (2012).
- Comment: to be cited when LibXC is used (negative value of ixc)
- Strong suggestion to cite this paper.
- DOI and bibtex: see https://docs.abinit.org/theory/bibliography/#marques2012
-
- [3] The Abinit project: Impact, environment and recent developments.
- Computer Phys. Comm. 248, 107042 (2020).
- X.Gonze, B. Amadon, G. Antonius, F.Arnardi, L.Baguet, J.-M.Beuken,
- J.Bieder, F.Bottin, J.Bouchet, E.Bousquet, N.Brouwer, F.Bruneval,
- G.Brunin, T.Cavignac, J.-B. Charraud, Wei Chen, M.Cote, S.Cottenier,
- J.Denier, G.Geneste, Ph.Ghosez, M.Giantomassi, Y.Gillet, O.Gingras,
- D.R.Hamann, G.Hautier, Xu He, N.Helbig, N.Holzwarth, Y.Jia, F.Jollet,
- W.Lafargue-Dit-Hauret, K.Lejaeghere, M.A.L.Marques, A.Martin, C.Martins,
- H.P.C. Miranda, F.Naccarato, K. Persson, G.Petretto, V.Planes, Y.Pouillon,
- S.Prokhorenko, F.Ricci, G.-M.Rignanese, A.H.Romero, M.M.Schmitt, M.Torrent,
- M.J.van Setten, B.Van Troeye, M.J.Verstraete, G.Zerah and J.W.Zwanzig
- Comment: the fifth generic paper describing the ABINIT project.
- Note that a version of this paper, that is not formatted for Computer Phys. Comm. 
- is available at https://www.abinit.org/sites/default/files/ABINIT20.pdf .
- The licence allows the authors to put it on the Web.
- DOI and bibtex: see https://docs.abinit.org/theory/bibliography/#gonze2020
-
- [4] ABINIT: Overview, and focus on selected capabilities
- J. Chem. Phys. 152, 124102 (2020).
- A. Romero, D.C. Allan, B. Amadon, G. Antonius, T. Applencourt, L.Baguet,
- J.Bieder, F.Bottin, J.Bouchet, E.Bousquet, F.Bruneval,
- G.Brunin, D.Caliste, M.Cote,
- J.Denier, C. Dreyer, Ph.Ghosez, M.Giantomassi, Y.Gillet, O.Gingras,
- D.R.Hamann, G.Hautier, F.Jollet, G. Jomard,
- A.Martin, 
- H.P.C. Miranda, F.Naccarato, G.Petretto, N.A. Pike, V.Planes,
- S.Prokhorenko, T. Rangel, F.Ricci, G.-M.Rignanese, M.Royo, M.Stengel, M.Torrent,
- M.J.van Setten, B.Van Troeye, M.J.Verstraete, J.Wiktor, J.W.Zwanziger, and X.Gonze.
- Comment: a global overview of ABINIT, with focus on selected capabilities .
- Note that a version of this paper, that is not formatted for J. Chem. Phys 
- is available at https://www.abinit.org/sites/default/files/ABINIT20_JPC.pdf .
- The licence allows the authors to put it on the Web.
- DOI and bibtex: see https://docs.abinit.org/theory/bibliography/#romero2020
-
- [5] Recent developments in the ABINIT software package.
- Computer Phys. Comm. 205, 106 (2016).
- X.Gonze, F.Jollet, F.Abreu Araujo, D.Adams, B.Amadon, T.Applencourt,
- C.Audouze, J.-M.Beuken, J.Bieder, A.Bokhanchuk, E.Bousquet, F.Bruneval
- D.Caliste, M.Cote, F.Dahm, F.Da Pieve, M.Delaveau, M.Di Gennaro,
- B.Dorado, C.Espejo, G.Geneste, L.Genovese, A.Gerossier, M.Giantomassi,
- Y.Gillet, D.R.Hamann, L.He, G.Jomard, J.Laflamme Janssen, S.Le Roux,
- A.Levitt, A.Lherbier, F.Liu, I.Lukacevic, A.Martin, C.Martins,
- M.J.T.Oliveira, S.Ponce, Y.Pouillon, T.Rangel, G.-M.Rignanese,
- A.H.Romero, B.Rousseau, O.Rubel, A.A.Shukri, M.Stankovski, M.Torrent,
- M.J.Van Setten, B.Van Troeye, M.J.Verstraete, D.Waroquier, J.Wiktor,
- B.Xu, A.Zhou, J.W.Zwanziger.
- Comment: the fourth generic paper describing the ABINIT project.
- Note that a version of this paper, that is not formatted for Computer Phys. Comm. 
- is available at https://www.abinit.org/sites/default/files/ABINIT16.pdf .
- The licence allows the authors to put it on the Web.
- DOI and bibtex: see https://docs.abinit.org/theory/bibliography/#gonze2016
-
- Proc.   0 individual time (sec): cpu=       4792.2  wall=       4792.3

================================================================================

 Calculation completed.
.Delivered   0 WARNINGs and   0 COMMENTs to log file.
+Overall time at end (sec) : cpu=      28753.0  wall=      28753.3
