
.Version 9.2.2 of ABINIT 
.(MPI version, prepared for a x86_64_linux_gnu9.3 computer) 

.Copyright (C) 1998-2020 ABINIT group . 
 ABINIT comes with ABSOLUTELY NO WARRANTY.
 It is free software, and you are welcome to redistribute it
 under certain conditions (GNU General Public License,
 see ~abinit/COPYING or http://www.gnu.org/copyleft/gpl.txt).

 ABINIT is a project of the Universite Catholique de Louvain,
 Corning Inc. and other collaborators, see ~abinit/doc/developers/contributors.txt .
 Please read https://docs.abinit.org/theory/acknowledgments for suggested
 acknowledgments of the ABINIT effort.
 For more information, see https://www.abinit.org .

.Starting date : Sun 27 Nov 2022.
- ( at 20h49 )
  
- input  file    -> Cs2TiI6.in
- output file    -> Cs2TiI6.out
- root for input  files -> Cs2TiI6i
- root for output files -> Cs2TiI6o

- inpspheads : Reading pseudopotential header in XML form from 
-   ../../../Psps_for_tests/ATOMICDATA/Cs.GGA_PBE-JTH.xml
- inpspheads : Reading pseudopotential header in XML form from 
-   ../../../Psps_for_tests/ATOMICDATA/I.GGA_PBE-JTH.xml
- inpspheads : Reading pseudopotential header in XML form from 
-   ../../../Psps_for_tests/ATOMICDATA/Zr.GGA_PBE-JTH.xml
- inpspheads : Reading pseudopotential header in XML form from 
-   ../../../Psps_for_tests/ATOMICDATA/Br.GGA_PBE-JTH.xml

 DATASET    1 : space group I4/m m m (#139); Bravais tI (body-center tetrag.)
================================================================================
 Values of the parameters that define the memory need for DATASET  1.
     intxc =       0    ionmov =       0      iscf =      17    lmnmax =      18
     lnmax =       6     mgfft =      54  mpssoang =       3    mqgrid =    3315
     natom =       9  nloc_mem =       2    nspden =       1   nspinor =       1
    nsppol =       1      nsym =      16    n1xccc =       1    ntypat =       4
    occopt =       1   xclevel =       2
-    mband =          42        mffmem =           1         mkmem =          28
       mpw =        6291          nfft =      157464          nkpt =         163
Pmy_natom=         2
 PAW method is used; the additional fine FFT grid is defined by:
   mgfftf=        90    nfftf =    729000
================================================================================
P This job should need less than                     329.899 Mbytes of memory.
  Rough estimation (10% accuracy) of disk space for files :
_ WF disk file :    657.170 Mbytes ; DEN or POT disk file :      5.564 Mbytes.
================================================================================


 DATASET    2 : space group I4/m m m (#139); Bravais tI (body-center tetrag.)
================================================================================
 Values of the parameters that define the memory need for DATASET  2.
     intxc =       0    ionmov =       0      iscf =      17    lmnmax =      18
     lnmax =       6     mgfft =      54  mpssoang =       3    mqgrid =    3313
     natom =       9  nloc_mem =       2    nspden =       1   nspinor =       1
    nsppol =       1      nsym =      16    n1xccc =       1    ntypat =       4
    occopt =       1   xclevel =       2
-    mband =          42        mffmem =           1         mkmem =          28
       mpw =        6283          nfft =      157464          nkpt =         163
Pmy_natom=         2
 PAW method is used; the additional fine FFT grid is defined by:
   mgfftf=        90    nfftf =    729000
================================================================================
P This job should need less than                     329.744 Mbytes of memory.
  Rough estimation (10% accuracy) of disk space for files :
_ WF disk file :    656.335 Mbytes ; DEN or POT disk file :      5.564 Mbytes.
================================================================================


 DATASET    3 : space group I4/m m m (#139); Bravais tI (body-center tetrag.)
================================================================================
 Values of the parameters that define the memory need for DATASET  3.
     intxc =       0    ionmov =       0      iscf =      17    lmnmax =      18
     lnmax =       6     mgfft =      54  mpssoang =       3    mqgrid =    3311
     natom =       9  nloc_mem =       2    nspden =       1   nspinor =       1
    nsppol =       1      nsym =      16    n1xccc =       1    ntypat =       4
    occopt =       1   xclevel =       2
-    mband =          42        mffmem =           1         mkmem =          28
       mpw =        6262          nfft =      157464          nkpt =         163
Pmy_natom=         2
 PAW method is used; the additional fine FFT grid is defined by:
   mgfftf=        90    nfftf =    729000
================================================================================
P This job should need less than                     329.327 Mbytes of memory.
  Rough estimation (10% accuracy) of disk space for files :
_ WF disk file :    654.141 Mbytes ; DEN or POT disk file :      5.564 Mbytes.
================================================================================


 DATASET    4 : space group I4/m m m (#139); Bravais tI (body-center tetrag.)
================================================================================
 Values of the parameters that define the memory need for DATASET  4.
     intxc =       0    ionmov =       0      iscf =      17    lmnmax =      18
     lnmax =       6     mgfft =      54  mpssoang =       3    mqgrid =    3310
     natom =       9  nloc_mem =       2    nspden =       1   nspinor =       1
    nsppol =       1      nsym =      16    n1xccc =       1    ntypat =       4
    occopt =       1   xclevel =       2
-    mband =          42        mffmem =           1         mkmem =          28
       mpw =        6254          nfft =      157464          nkpt =         163
Pmy_natom=         2
 PAW method is used; the additional fine FFT grid is defined by:
   mgfftf=        90    nfftf =    729000
================================================================================
P This job should need less than                     329.172 Mbytes of memory.
  Rough estimation (10% accuracy) of disk space for files :
_ WF disk file :    653.305 Mbytes ; DEN or POT disk file :      5.564 Mbytes.
================================================================================


 DATASET    5 : space group I4/m m m (#139); Bravais tI (body-center tetrag.)
================================================================================
 Values of the parameters that define the memory need for DATASET  5.
     intxc =       0    ionmov =       0      iscf =      17    lmnmax =      18
     lnmax =       6     mgfft =      54  mpssoang =       3    mqgrid =    3308
     natom =       9  nloc_mem =       2    nspden =       1   nspinor =       1
    nsppol =       1      nsym =      16    n1xccc =       1    ntypat =       4
    occopt =       1   xclevel =       2
-    mband =          42        mffmem =           1         mkmem =          28
       mpw =        6253          nfft =      157464          nkpt =         163
Pmy_natom=         2
 PAW method is used; the additional fine FFT grid is defined by:
   mgfftf=        90    nfftf =    729000
================================================================================
P This job should need less than                     329.158 Mbytes of memory.
  Rough estimation (10% accuracy) of disk space for files :
_ WF disk file :    653.201 Mbytes ; DEN or POT disk file :      5.564 Mbytes.
================================================================================


 DATASET    6 : space group I4/m m m (#139); Bravais tI (body-center tetrag.)
================================================================================
 Values of the parameters that define the memory need for DATASET  6.
     intxc =       0    ionmov =       0      iscf =      17    lmnmax =      18
     lnmax =       6     mgfft =      54  mpssoang =       3    mqgrid =    3306
     natom =       9  nloc_mem =       2    nspden =       1   nspinor =       1
    nsppol =       1      nsym =      16    n1xccc =       1    ntypat =       4
    occopt =       1   xclevel =       2
-    mband =          42        mffmem =           1         mkmem =          28
       mpw =        6253          nfft =      157464          nkpt =         163
Pmy_natom=         2
 PAW method is used; the additional fine FFT grid is defined by:
   mgfftf=        90    nfftf =    729000
================================================================================
P This job should need less than                     329.165 Mbytes of memory.
  Rough estimation (10% accuracy) of disk space for files :
_ WF disk file :    653.201 Mbytes ; DEN or POT disk file :      5.564 Mbytes.
================================================================================


 DATASET    7 : space group I4/m m m (#139); Bravais tI (body-center tetrag.)
================================================================================
 Values of the parameters that define the memory need for DATASET  7.
     intxc =       0    ionmov =       0      iscf =      17    lmnmax =      18
     lnmax =       6     mgfft =      54  mpssoang =       3    mqgrid =    3305
     natom =       9  nloc_mem =       2    nspden =       1   nspinor =       1
    nsppol =       1      nsym =      16    n1xccc =       1    ntypat =       4
    occopt =       1   xclevel =       2
-    mband =          42        mffmem =           1         mkmem =          28
       mpw =        6247          nfft =      157464          nkpt =         163
Pmy_natom=         2
 PAW method is used; the additional fine FFT grid is defined by:
   mgfftf=        90    nfftf =    729000
================================================================================
P This job should need less than                     329.051 Mbytes of memory.
  Rough estimation (10% accuracy) of disk space for files :
_ WF disk file :    652.574 Mbytes ; DEN or POT disk file :      5.564 Mbytes.
================================================================================


 DATASET    8 : space group I4/m m m (#139); Bravais tI (body-center tetrag.)
================================================================================
 Values of the parameters that define the memory need for DATASET  8.
     intxc =       0    ionmov =       0      iscf =      17    lmnmax =      18
     lnmax =       6     mgfft =      54  mpssoang =       3    mqgrid =    3303
     natom =       9  nloc_mem =       2    nspden =       1   nspinor =       1
    nsppol =       1      nsym =      16    n1xccc =       1    ntypat =       4
    occopt =       1   xclevel =       2
-    mband =          42        mffmem =           1         mkmem =          28
       mpw =        6233          nfft =      157464          nkpt =         163
Pmy_natom=         2
 PAW method is used; the additional fine FFT grid is defined by:
   mgfftf=        90    nfftf =    729000
================================================================================
P This job should need less than                     328.775 Mbytes of memory.
  Rough estimation (10% accuracy) of disk space for files :
_ WF disk file :    651.112 Mbytes ; DEN or POT disk file :      5.564 Mbytes.
================================================================================


 DATASET    9 : space group I4/m m m (#139); Bravais tI (body-center tetrag.)
================================================================================
 Values of the parameters that define the memory need for DATASET  9.
     intxc =       0    ionmov =       0      iscf =      17    lmnmax =      18
     lnmax =       6     mgfft =      54  mpssoang =       3    mqgrid =    3301
     natom =       9  nloc_mem =       2    nspden =       1   nspinor =       1
    nsppol =       1      nsym =      16    n1xccc =       1    ntypat =       4
    occopt =       1   xclevel =       2
-    mband =          42        mffmem =           1         mkmem =          28
       mpw =        6233          nfft =      157464          nkpt =         163
Pmy_natom=         2
 PAW method is used; the additional fine FFT grid is defined by:
   mgfftf=        90    nfftf =    729000
================================================================================
P This job should need less than                     328.781 Mbytes of memory.
  Rough estimation (10% accuracy) of disk space for files :
_ WF disk file :    651.112 Mbytes ; DEN or POT disk file :      5.564 Mbytes.
================================================================================


 DATASET   10 : space group I4/m m m (#139); Bravais tI (body-center tetrag.)
================================================================================
 Values of the parameters that define the memory need for DATASET 10.
     intxc =       0    ionmov =       0      iscf =      17    lmnmax =      18
     lnmax =       6     mgfft =      54  mpssoang =       3    mqgrid =    3300
     natom =       9  nloc_mem =       2    nspden =       1   nspinor =       1
    nsppol =       1      nsym =      16    n1xccc =       1    ntypat =       4
    occopt =       1   xclevel =       2
-    mband =          42        mffmem =           1         mkmem =          28
       mpw =        6209          nfft =      157464          nkpt =         163
Pmy_natom=         2
 PAW method is used; the additional fine FFT grid is defined by:
   mgfftf=        90    nfftf =    729000
================================================================================
P This job should need less than                     328.304 Mbytes of memory.
  Rough estimation (10% accuracy) of disk space for files :
_ WF disk file :    648.605 Mbytes ; DEN or POT disk file :      5.564 Mbytes.
================================================================================

--------------------------------------------------------------------------------
------------- Echo of variables that govern the present computation ------------
--------------------------------------------------------------------------------
-
- outvars: echo of selected default values                                      
-   iomode0 =  0 , fftalg0 =112 , wfoptalg0 = 10
-
- outvars: echo of global parameters not present in the input file              
-  max_nthreads =    0
-
 -outvars: echo values of preprocessed input variables --------
            acell1     1.4253373934E+01  1.4253373934E+01  1.4263964653E+01 Bohr
            acell2     1.4246217268E+01  1.4246217268E+01  1.4256999713E+01 Bohr
            acell3     1.4239288705E+01  1.4239288705E+01  1.4249576186E+01 Bohr
            acell4     1.4232176304E+01  1.4232176304E+01  1.4242522241E+01 Bohr
            acell5     1.4226321678E+01  1.4226321678E+01  1.4232942173E+01 Bohr
            acell6     1.4219712561E+01  1.4219712561E+01  1.4224878642E+01 Bohr
            acell7     1.4212778538E+01  1.4212778538E+01  1.4217466964E+01 Bohr
            acell8     1.4205778878E+01  1.4205778878E+01  1.4210186915E+01 Bohr
            acell9     1.4198747780E+01  1.4198747780E+01  1.4202969896E+01 Bohr
            acell10    1.4191706233E+01  1.4191706233E+01  1.4195773828E+01 Bohr
              amu      1.32905430E+02  1.26904470E+02  9.12240000E+01
                       7.99040000E+01
           diemac      1.20000000E+01
             ecut      1.60000000E+01 Hartree
-          fftalg         112
           istwfk        2    0    0    0    0    0    3    0    0    0
                         0    0    0    0    0    0    0    0    0    0
                         0    0    0    0    0    0    0    0    0    0
                         0    0    0    0    0    0    0    0    0    0
                         0    0    7    0    0    0    0    0    0    0
                       outvar_i_n : Printing only first  50 k-points.
              ixc     -101130
           jdtset        1    2    3    4    5    6    7    8    9   10
              kpt      0.00000000E+00  0.00000000E+00  0.00000000E+00
                       8.33333333E-02  0.00000000E+00  0.00000000E+00
                       1.66666667E-01  0.00000000E+00  0.00000000E+00
                       2.50000000E-01  0.00000000E+00  0.00000000E+00
                       3.33333333E-01  0.00000000E+00  0.00000000E+00
                       4.16666667E-01  0.00000000E+00  0.00000000E+00
                       5.00000000E-01  0.00000000E+00  0.00000000E+00
                       8.33333333E-02  8.33333333E-02  0.00000000E+00
                       1.66666667E-01  8.33333333E-02  0.00000000E+00
                       2.50000000E-01  8.33333333E-02  0.00000000E+00
                       3.33333333E-01  8.33333333E-02  0.00000000E+00
                       4.16666667E-01  8.33333333E-02  0.00000000E+00
                       5.00000000E-01  8.33333333E-02  0.00000000E+00
                      -4.16666667E-01  8.33333333E-02  0.00000000E+00
                      -3.33333333E-01  8.33333333E-02  0.00000000E+00
                      -2.50000000E-01  8.33333333E-02  0.00000000E+00
                      -1.66666667E-01  8.33333333E-02  0.00000000E+00
                      -8.33333333E-02  8.33333333E-02  0.00000000E+00
                       1.66666667E-01  1.66666667E-01  0.00000000E+00
                       2.50000000E-01  1.66666667E-01  0.00000000E+00
                       3.33333333E-01  1.66666667E-01  0.00000000E+00
                       4.16666667E-01  1.66666667E-01  0.00000000E+00
                       5.00000000E-01  1.66666667E-01  0.00000000E+00
                      -4.16666667E-01  1.66666667E-01  0.00000000E+00
                      -3.33333333E-01  1.66666667E-01  0.00000000E+00
                      -2.50000000E-01  1.66666667E-01  0.00000000E+00
                      -1.66666667E-01  1.66666667E-01  0.00000000E+00
                       2.50000000E-01  2.50000000E-01  0.00000000E+00
                       3.33333333E-01  2.50000000E-01  0.00000000E+00
                       4.16666667E-01  2.50000000E-01  0.00000000E+00
                       5.00000000E-01  2.50000000E-01  0.00000000E+00
                      -4.16666667E-01  2.50000000E-01  0.00000000E+00
                      -3.33333333E-01  2.50000000E-01  0.00000000E+00
                      -2.50000000E-01  2.50000000E-01  0.00000000E+00
                       3.33333333E-01  3.33333333E-01  0.00000000E+00
                       4.16666667E-01  3.33333333E-01  0.00000000E+00
                       5.00000000E-01  3.33333333E-01  0.00000000E+00
                      -4.16666667E-01  3.33333333E-01  0.00000000E+00
                      -3.33333333E-01  3.33333333E-01  0.00000000E+00
                       4.16666667E-01  4.16666667E-01  0.00000000E+00
                       5.00000000E-01  4.16666667E-01  0.00000000E+00
                      -4.16666667E-01  4.16666667E-01  0.00000000E+00
                       5.00000000E-01  5.00000000E-01  0.00000000E+00
                       8.33333333E-02  0.00000000E+00  8.33333333E-02
                       1.66666667E-01  0.00000000E+00  8.33333333E-02
                       2.50000000E-01  0.00000000E+00  8.33333333E-02
                       3.33333333E-01  0.00000000E+00  8.33333333E-02
                       4.16666667E-01  0.00000000E+00  8.33333333E-02
                       5.00000000E-01  0.00000000E+00  8.33333333E-02
                      -4.16666667E-01  0.00000000E+00  8.33333333E-02
                       outvar_i_n : Printing only first  50 k-points.
         kptrlatt       12    0    0      0   12    0      0    0   12
          kptrlen1     1.71040487E+02
          kptrlen2     1.70954607E+02
          kptrlen3     1.70871464E+02
          kptrlen4     1.70786116E+02
          kptrlen5     1.70715860E+02
          kptrlen6     1.70636551E+02
          kptrlen7     1.70553342E+02
          kptrlen8     1.70469347E+02
          kptrlen9     1.70384973E+02
          kptrlen10    1.70300475E+02
P           mkmem          28
            natom           9
            nband          42
           ndtset          10
            ngfft          54      54      54
          ngfftdg          90      90      90
             nkpt         163
            nstep        2500
             nsym          16
           ntypat           4
              occ      2.000000  2.000000  2.000000  2.000000  2.000000  2.000000
                       2.000000  2.000000  2.000000  2.000000  2.000000  2.000000
                       2.000000  2.000000  2.000000  2.000000  2.000000  2.000000
                       2.000000  2.000000  2.000000  2.000000  2.000000  2.000000
                       2.000000  2.000000  2.000000  2.000000  2.000000  2.000000
                       2.000000  2.000000  2.000000  2.000000  2.000000  2.000000
                       0.000000  0.000000  0.000000  0.000000  0.000000  0.000000
        pawecutdg      4.00000000E+01 Hartree
            prtwf           0
            rprim1     0.0000000000E+00  7.0763218451E-01  7.0658098718E-01
                       7.0763218451E-01  0.0000000000E+00  7.0658098718E-01
                       7.0710678119E-01  7.0710678119E-01  0.0000000000E+00
            rprim2     0.0000000000E+00  7.0764196464E-01  7.0657119237E-01
                       7.0764196464E-01  0.0000000000E+00  7.0657119237E-01
                       7.0710678119E-01  7.0710678119E-01  0.0000000000E+00
            rprim3     0.0000000000E+00  7.0761764573E-01  7.0659554729E-01
                       7.0761764573E-01  0.0000000000E+00  7.0659554729E-01
                       7.0710678119E-01  7.0710678119E-01  0.0000000000E+00
            rprim4     0.0000000000E+00  7.0762080535E-01  7.0659238309E-01
                       7.0762080535E-01  0.0000000000E+00  7.0659238309E-01
                       7.0710678119E-01  7.0710678119E-01  0.0000000000E+00
            rprim5     0.0000000000E+00  7.0743584709E-01  7.0677756207E-01
                       7.0743584709E-01  0.0000000000E+00  7.0677756207E-01
                       7.0710678119E-01  7.0710678119E-01  0.0000000000E+00
            rprim6     0.0000000000E+00  7.0736367608E-01  7.0684979293E-01
                       7.0736367608E-01  0.0000000000E+00  7.0684979293E-01
                       7.0710678119E-01  7.0710678119E-01  0.0000000000E+00
            rprim7     0.0000000000E+00  7.0734003733E-01  7.0687344807E-01
                       7.0734003733E-01  0.0000000000E+00  7.0687344807E-01
                       7.0710678119E-01  7.0710678119E-01  0.0000000000E+00
            rprim8     0.0000000000E+00  7.0732619567E-01  7.0688729860E-01
                       7.0732619567E-01  0.0000000000E+00  7.0688729860E-01
                       7.0710678119E-01  7.0710678119E-01  0.0000000000E+00
            rprim9     0.0000000000E+00  7.0731704528E-01  7.0689645455E-01
                       7.0731704528E-01  0.0000000000E+00  7.0689645455E-01
                       7.0710678119E-01  7.0710678119E-01  0.0000000000E+00
            rprim10    0.0000000000E+00  7.0730945057E-01  7.0690405370E-01
                       7.0730945057E-01  0.0000000000E+00  7.0690405370E-01
                       7.0710678119E-01  7.0710678119E-01  0.0000000000E+00
          spgroup         139
           symrel      1  0  0   0  1  0   0  0  1      -1  0  0   0 -1  0   0  0 -1
                      -1  0  1   0 -1  1   0  0  1       1  0 -1   0  1 -1   0  0 -1
                       0  1 -1   1  0 -1   0  0 -1       0 -1  1  -1  0  1   0  0  1
                       0 -1  0  -1  0  0   0  0 -1       0  1  0   1  0  0   0  0  1
                       1  0  0   1  0 -1   1 -1  0      -1  0  0  -1  0  1  -1  1  0
                       0 -1  0   0 -1  1   1 -1  0       0  1  0   0  1 -1  -1  1  0
                       0  1 -1   0  1  0  -1  1  0       0 -1  1   0 -1  0   1 -1  0
                      -1  0  1  -1  0  0  -1  1  0       1  0 -1   1  0  0   1 -1  0
           toldfe      1.00000000E-08 Hartree
            typat      1  1  2  2  4  4  4  4  3
           useylm           1
              wtk        0.00058    0.00463    0.00463    0.00463    0.00463    0.00463
                         0.00231    0.00116    0.00463    0.00463    0.00463    0.00463
                         0.00463    0.00463    0.00463    0.00463    0.00463    0.00231
                         0.00116    0.00463    0.00463    0.00463    0.00463    0.00463
                         0.00463    0.00463    0.00231    0.00116    0.00463    0.00463
                         0.00463    0.00463    0.00463    0.00231    0.00116    0.00463
                         0.00463    0.00463    0.00231    0.00116    0.00463    0.00231
                         0.00058    0.00231    0.00926    0.00926    0.00926    0.00926
                         0.00926    0.00926
                       outvars : Printing only first  50 k-points.
           xangst1     2.6686793281E+00  2.6686793281E+00  2.6647149684E+00
                       8.0060379843E+00  8.0060379843E+00  7.9941449052E+00
                       5.3373586561E+00  5.3373586561E+00  2.8355527214E+00
                       5.3373586563E+00  5.3373586563E+00  7.8233071522E+00
                       8.0642697094E+00  5.3373586561E+00  5.3294299368E+00
                       5.3373586561E+00  8.0642697094E+00  5.3294299368E+00
                       5.3373586563E+00  2.6104476030E+00  5.3294299368E+00
                       2.6104476030E+00  5.3373586563E+00  5.3294299368E+00
                      -2.1169030730E-20 -3.2844968401E-20 -4.6268731209E-21
           xangst2     2.6673762406E+00  2.6673762406E+00  2.6633400858E+00
                       8.0021287219E+00  8.0021287219E+00  7.9900202574E+00
                       5.3347524813E+00  5.3347524813E+00  2.8348982969E+00
                       5.3347524812E+00  5.3347524812E+00  7.8184620463E+00
                       8.0594703915E+00  5.3347524813E+00  5.3266801716E+00
                       5.3347524813E+00  8.0594703915E+00  5.3266801716E+00
                       5.3347524812E+00  2.6100345711E+00  5.3266801716E+00
                       2.6100345711E+00  5.3347524812E+00  5.3266801716E+00
                      -1.8048762194E-20 -3.5926348695E-20 -6.8796310930E-22
           xangst3     2.6659873552E+00  2.6659873552E+00  2.6621365447E+00
                       7.9979620657E+00  7.9979620657E+00  7.9864096340E+00
                       5.3319747105E+00  5.3319747105E+00  2.8343166725E+00
                       5.3319747105E+00  5.3319747105E+00  7.8142295061E+00
                       8.0541878982E+00  5.3319747105E+00  5.3242730893E+00
                       5.3319747105E+00  8.0541878982E+00  5.3242730893E+00
                       5.3319747105E+00  2.6097615227E+00  5.3242730893E+00
                       2.6097615227E+00  5.3319747105E+00  5.3242730893E+00
                      -1.9753436062E-20 -3.5207178650E-20 -1.2983848605E-21
           xangst4     2.6646676158E+00  2.6646676158E+00  2.6607949153E+00
                       7.9940028473E+00  7.9940028473E+00  7.9823847458E+00
                       5.3293352315E+00  5.3293352315E+00  2.8336659608E+00
                       5.3293352316E+00  5.3293352316E+00  7.8095137002E+00
                       8.0492180217E+00  5.3293352315E+00  5.3215898305E+00
                       5.3293352315E+00  8.0492180217E+00  5.3215898305E+00
                       5.3293352316E+00  2.6094524414E+00  5.3215898305E+00
                       2.6094524414E+00  5.3293352316E+00  5.3215898305E+00
                      -1.7444356342E-20 -3.7625587080E-20  7.3587002182E-22
           xangst5     2.6628752579E+00  2.6628752579E+00  2.6603973925E+00
                       7.9886257738E+00  7.9886257738E+00  7.9811921774E+00
                       5.3257505158E+00  5.3257505158E+00  2.8331803501E+00
                       5.3257505159E+00  5.3257505159E+00  7.8084092198E+00
                       8.0423916609E+00  5.3257505158E+00  5.3207947849E+00
                       5.3257505158E+00  8.0423916609E+00  5.3207947849E+00
                       5.3257505159E+00  2.6091093708E+00  5.3207947849E+00
                       2.6091093708E+00  5.3257505159E+00  5.3207947849E+00
                      -1.8968815101E-20 -3.5604470041E-20 -7.3093409429E-22
           xangst6     2.6613666326E+00  2.6613666326E+00  2.6594332121E+00
                       7.9840998978E+00  7.9840998978E+00  7.9782996364E+00
                       5.3227332651E+00  5.3227332651E+00  2.8325744782E+00
                       5.3227332653E+00  5.3227332653E+00  7.8051583704E+00
                       8.0366738149E+00  5.3227332651E+00  5.3188664243E+00
                       5.3227332651E+00  8.0366738149E+00  5.3188664243E+00
                       5.3227332653E+00  2.6087927155E+00  5.3188664243E+00
                       2.6087927155E+00  5.3227332653E+00  5.3188664243E+00
                      -1.8892734796E-20 -3.5649037900E-20 -7.0475408397E-22
           xangst7     2.6599799639E+00  2.6599799639E+00  2.6582253367E+00
                       7.9799398918E+00  7.9799398918E+00  7.9746760102E+00
                       5.3199599279E+00  5.3199599279E+00  2.8318924793E+00
                       5.3199599279E+00  5.3199599279E+00  7.8010088676E+00
                       8.0314800716E+00  5.3199599279E+00  5.3164506734E+00
                       5.3199599279E+00  8.0314800716E+00  5.3164506734E+00
                       5.3199599279E+00  2.6084397841E+00  5.3164506734E+00
                       2.6084397841E+00  5.3199599279E+00  5.3164506734E+00
                      -1.8855824658E-20 -3.6054405222E-20 -3.7196029527E-22
           xangst8     2.6586179222E+00  2.6586179222E+00  2.6569682455E+00
                       7.9758537666E+00  7.9758537666E+00  7.9709047365E+00
                       5.3172358443E+00  5.3172358443E+00  2.8312387115E+00
                       5.3172358445E+00  5.3172358445E+00  7.7966342705E+00
                       8.0264137526E+00  5.3172358443E+00  5.3139364910E+00
                       5.3172358443E+00  8.0264137526E+00  5.3139364910E+00
                       5.3172358445E+00  2.6080579363E+00  5.3139364910E+00
                       2.6080579363E+00  5.3172358445E+00  5.3139364910E+00
                      -1.8857323292E-20 -3.5424463539E-20 -8.5233579676E-22
           xangst9     2.6572676727E+00  2.6572676727E+00  2.6556875862E+00
                       7.9718030182E+00  7.9718030182E+00  7.9670627585E+00
                       5.3145353455E+00  5.3145353455E+00  2.8305945651E+00
                       5.3145353455E+00  5.3145353455E+00  7.7921557796E+00
                       8.0213354390E+00  5.3145353455E+00  5.3113751723E+00
                       5.3145353455E+00  8.0213354390E+00  5.3113751723E+00
                       5.3145353455E+00  2.6077352519E+00  5.3113751723E+00
                       2.6077352519E+00  5.3145353455E+00  5.3113751723E+00
                      -1.8863636754E-20 -3.5594132284E-20 -7.0376148705E-22
           xangst10    2.6559213432E+00  2.6559213432E+00  2.6543990927E+00
                       7.9677640295E+00  7.9677640295E+00  7.9631972780E+00
                       5.3118426863E+00  5.3118426863E+00  2.8299389508E+00
                       5.3118426864E+00  5.3118426864E+00  7.7876574199E+00
                       8.0162380450E+00  5.3118426863E+00  5.3087981853E+00
                       5.3118426863E+00  8.0162380450E+00  5.3087981853E+00
                       5.3118426864E+00  2.6074473277E+00  5.3087981853E+00
                       2.6074473277E+00  5.3118426864E+00  5.3087981853E+00
                      -1.8854079315E-20 -3.5576098183E-20 -7.0342003420E-22
            xcart1     5.0430730666E+00  5.0430730666E+00  5.0355815125E+00
                       1.5129219200E+01  1.5129219200E+01  1.5106744537E+01
                       1.0086146133E+01  1.0086146133E+01  5.3584180788E+00
                       1.0086146133E+01  1.0086146133E+01  1.4783907971E+01
                       1.5239261213E+01  1.0086146133E+01  1.0071163025E+01
                       1.0086146133E+01  1.5239261213E+01  1.0071163025E+01
                       1.0086146133E+01  4.9330310538E+00  1.0071163025E+01
                       4.9330310538E+00  1.0086146133E+01  1.0071163025E+01
                      -4.0003670578E-20 -6.2067995121E-20 -8.7435230501E-21
            xcart2     5.0406105882E+00  5.0406105882E+00  5.0329833609E+00
                       1.5121831765E+01  1.5121831765E+01  1.5098950083E+01
                       1.0081221176E+01  1.0081221176E+01  5.3571813957E+00
                       1.0081221176E+01  1.0081221176E+01  1.4774752048E+01
                       1.5230191816E+01  1.0081221176E+01  1.0065966722E+01
                       1.0081221176E+01  1.5230191816E+01  1.0065966722E+01
                       1.0081221176E+01  4.9322505367E+00  1.0065966722E+01
                       4.9322505367E+00  1.0081221176E+01  1.0065966722E+01
                      -3.4107217585E-20 -6.7890959988E-20 -1.3000618661E-21
            xcart3     5.0379859751E+00  5.0379859751E+00  5.0307089978E+00
                       1.5113957925E+01  1.5113957925E+01  1.5092126993E+01
                       1.0075971950E+01  1.0075971950E+01  5.3560822850E+00
                       1.0075971950E+01  1.0075971950E+01  1.4766753706E+01
                       1.5220209350E+01  1.0075971950E+01  1.0061417996E+01
                       1.0075971950E+01  1.5220209350E+01  1.0061417996E+01
                       1.0075971950E+01  4.9317345500E+00  1.0061417996E+01
                       4.9317345500E+00  1.0075971950E+01  1.0061417996E+01
                      -3.7328584341E-20 -6.6531925559E-20 -2.4535918013E-21
            xcart4     5.0354920290E+00  5.0354920290E+00  5.0281736856E+00
                       1.5106476087E+01  1.5106476087E+01  1.5084521057E+01
                       1.0070984058E+01  1.0070984058E+01  5.3548526181E+00
                       1.0070984058E+01  1.0070984058E+01  1.4757842124E+01
                       1.5210817645E+01  1.0070984058E+01  1.0056347371E+01
                       1.0070984058E+01  1.5210817645E+01  1.0056347371E+01
                       1.0070984058E+01  4.9311504711E+00  1.0056347371E+01
                       4.9311504711E+00  1.0070984058E+01  1.0056347371E+01
                      -3.2965056051E-20 -7.1102055171E-20  1.3905928106E-21
            xcart5     5.0321049635E+00  5.0321049635E+00  5.0274224764E+00
                       1.5096314891E+01  1.5096314891E+01  1.5082267429E+01
                       1.0064209927E+01  1.0064209927E+01  5.3539349467E+00
                       1.0064209927E+01  1.0064209927E+01  1.4755754959E+01
                       1.5197917693E+01  1.0064209927E+01  1.0054844953E+01
                       1.0064209927E+01  1.5197917693E+01  1.0054844953E+01
                       1.0064209927E+01  4.9305021615E+00  1.0054844953E+01
                       4.9305021615E+00  1.0064209927E+01  1.0054844953E+01
                      -3.5845865606E-20 -6.7282697484E-20 -1.3812652594E-21
            xcart6     5.0292540748E+00  5.0292540748E+00  5.0256004396E+00
                       1.5087762224E+01  1.5087762224E+01  1.5076801319E+01
                       1.0058508150E+01  1.0058508150E+01  5.3527900147E+00
                       1.0058508150E+01  1.0058508150E+01  1.4749611744E+01
                       1.5187112530E+01  1.0058508150E+01  1.0051200879E+01
                       1.0058508150E+01  1.5187112530E+01  1.0051200879E+01
                       1.0058508150E+01  4.9299037698E+00  1.0051200879E+01
                       4.9299037698E+00  1.0058508150E+01  1.0051200879E+01
                      -3.5702094665E-20 -6.7366918531E-20 -1.3317922097E-21
            xcart7     5.0266336508E+00  5.0266336508E+00  5.0233178859E+00
                       1.5079900952E+01  1.5079900952E+01  1.5069953658E+01
                       1.0053267302E+01  1.0053267302E+01  5.3515012237E+00
                       1.0053267302E+01  1.0053267302E+01  1.4741770320E+01
                       1.5177297777E+01  1.0053267302E+01  1.0046635772E+01
                       1.0053267302E+01  1.5177297777E+01  1.0046635772E+01
                       1.0053267302E+01  4.9292368261E+00  1.0046635772E+01
                       4.9292368261E+00  1.0053267302E+01  1.0046635772E+01
                      -3.5632344614E-20 -6.8132951754E-20 -7.0290309037E-22
            xcart8     5.0240597650E+00  5.0240597650E+00  5.0209423278E+00
                       1.5072179295E+01  1.5072179295E+01  1.5062826983E+01
                       1.0048119530E+01  1.0048119530E+01  5.3502657816E+00
                       1.0048119530E+01  1.0048119530E+01  1.4733503530E+01
                       1.5167723822E+01  1.0048119530E+01  1.0041884656E+01
                       1.0048119530E+01  1.5167723822E+01  1.0041884656E+01
                       1.0048119530E+01  4.9285152383E+00  1.0041884656E+01
                       4.9285152383E+00  1.0048119530E+01  1.0041884656E+01
                      -3.5635176621E-20 -6.6942534493E-20 -1.6106812291E-21
            xcart9     5.0215081632E+00  5.0215081632E+00  5.0185222324E+00
                       1.5064524490E+01  1.5064524490E+01  1.5055566697E+01
                       1.0043016326E+01  1.0043016326E+01  5.3490485213E+00
                       1.0043016326E+01  1.0043016326E+01  1.4725040408E+01
                       1.5158127200E+01  1.0043016326E+01  1.0037044465E+01
                       1.0043016326E+01  1.5158127200E+01  1.0037044465E+01
                       1.0043016326E+01  4.9279054532E+00  1.0037044465E+01
                       4.9279054532E+00  1.0043016326E+01  1.0037044465E+01
                      -3.5647107335E-20 -6.7263161954E-20 -1.3299164734E-21
            xcart10    5.0189639691E+00  5.0189639691E+00  5.0160873325E+00
                       1.5056891907E+01  1.5056891907E+01  1.5048261998E+01
                       1.0037927938E+01  1.0037927938E+01  5.3478095898E+00
                       1.0037927938E+01  1.0037927938E+01  1.4716539740E+01
                       1.5148494521E+01  1.0037927938E+01  1.0032174665E+01
                       1.0037927938E+01  1.5148494521E+01  1.0032174665E+01
                       1.0037927938E+01  4.9273613552E+00  1.0032174665E+01
                       4.9273613552E+00  1.0037927938E+01  1.0032174665E+01
                      -3.5629046392E-20 -6.7229082442E-20 -1.3292712210E-21
             xred1     2.5000000000E-01  2.5000000000E-01  2.5000000000E-01
                       7.5000000000E-01  7.5000000000E-01  7.5000000000E-01
                       2.6602776986E-01  2.6602776986E-01  7.3397223014E-01
                       7.3397223014E-01  7.3397223014E-01  2.6602776986E-01
                       2.4454489300E-01  7.5545510700E-01  7.5545510700E-01
                       7.5545510700E-01  2.4454489300E-01  7.5545510700E-01
                       2.4454489300E-01  7.5545510700E-01  2.4454489300E-01
                       7.5545510700E-01  2.4454489300E-01  2.4454489300E-01
                      -1.5278806757E-21  6.5970656031E-22 -4.6259063409E-21
             xred2     2.5000000000E-01  2.5000000000E-01  2.5000000000E-01
                       7.5000000000E-01  7.5000000000E-01  7.5000000000E-01
                       2.6610367110E-01  2.6610367110E-01  7.3389632890E-01
                       7.3389632890E-01  7.3389632890E-01  2.6610367110E-01
                       2.4462564854E-01  7.5537435146E-01  7.5537435146E-01
                       7.5537435146E-01  2.4462564854E-01  7.5537435146E-01
                       2.4462564854E-01  7.5537435146E-01  2.4462564854E-01
                       7.5537435146E-01  2.4462564854E-01  2.4462564854E-01
                      -1.7401549789E-21  1.6110007802E-21 -4.9942434437E-21
             xred3     2.5000000000E-01  2.5000000000E-01  2.5000000000E-01
                       7.5000000000E-01  7.5000000000E-01  7.5000000000E-01
                       2.6616935542E-01  2.6616935542E-01  7.3383064458E-01
                       7.3383064458E-01  7.3383064458E-01  2.6616935542E-01
                       2.4472748507E-01  7.5527251493E-01  7.5527251493E-01
                       7.5527251493E-01  2.4472748507E-01  7.5527251493E-01
                       2.4472748507E-01  7.5527251493E-01  2.4472748507E-01
                       7.5527251493E-01  2.4472748507E-01  2.4472748507E-01
                      -1.5710882446E-21  1.3272268125E-21 -5.0319398194E-21
             xred4     2.5000000000E-01  2.5000000000E-01  2.5000000000E-01
                       7.5000000000E-01  7.5000000000E-01  7.5000000000E-01
                       2.6624242483E-01  2.6624242483E-01  7.3375757517E-01
                       7.3375757517E-01  7.3375757517E-01  2.6624242483E-01
                       2.4481969402E-01  7.5518030598E-01  7.5518030598E-01
                       7.5518030598E-01  2.4481969402E-01  7.5518030598E-01
                       2.4481969402E-01  7.5518030598E-01  2.4481969402E-01
                       7.5518030598E-01  2.4481969402E-01  2.4481969402E-01
                      -1.8242697106E-21  1.9625498196E-21 -5.2358204218E-21
             xred5     2.5000000000E-01  2.5000000000E-01  2.5000000000E-01
                       7.5000000000E-01  7.5000000000E-01  7.5000000000E-01
                       2.6623657410E-01  2.6623657410E-01  7.3376342590E-01
                       7.3376342590E-01  7.3376342590E-01  2.6623657410E-01
                       2.4495227133E-01  7.5504772867E-01  7.5504772867E-01
                       7.5504772867E-01  2.4495227133E-01  7.5504772867E-01
                       2.4495227133E-01  7.5504772867E-01  2.4495227133E-01
                       7.5504772867E-01  2.4495227133E-01  2.4495227133E-01
                      -1.6304997546E-21  1.4931266508E-21 -5.0548434539E-21
             xred6     2.5000000000E-01  2.5000000000E-01  2.5000000000E-01
                       7.5000000000E-01  7.5000000000E-01  7.5000000000E-01
                       2.6627614347E-01  2.6627614347E-01  7.3372385653E-01
                       7.3372385653E-01  7.3372385653E-01  2.6627614347E-01
                       2.4506137970E-01  7.5493862030E-01  7.5493862030E-01
                       7.5493862030E-01  2.4506137970E-01  7.5493862030E-01
                       2.4506137970E-01  7.5493862030E-01  2.4506137970E-01
                       7.5493862030E-01  2.4506137970E-01  2.4506137970E-01
                      -1.6402822269E-21  1.5077814217E-21 -5.0572237581E-21
             xred7     2.5000000000E-01  2.5000000000E-01  2.5000000000E-01
                       7.5000000000E-01  7.5000000000E-01  7.5000000000E-01
                       2.6633299670E-01  2.6633299670E-01  7.3366700330E-01
                       7.3366700330E-01  7.3366700330E-01  2.6633299670E-01
                       2.4515596165E-01  7.5484403835E-01  7.5484403835E-01
                       7.5484403835E-01  2.4515596165E-01  7.5484403835E-01
                       2.4515596165E-01  7.5484403835E-01  2.4515596165E-01
                       7.5484403835E-01  2.4515596165E-01  2.4515596165E-01
                      -1.6514021364E-21  1.5814381100E-21 -5.1257927506E-21
             xred8     2.5000000000E-01  2.5000000000E-01  2.5000000000E-01
                       7.5000000000E-01  7.5000000000E-01  7.5000000000E-01
                       2.6639749236E-01  2.6639749236E-01  7.3360250764E-01
                       7.3360250764E-01  7.3360250764E-01  2.6639749236E-01
                       2.4524565137E-01  7.5475434863E-01  7.5475434863E-01
                       7.5475434863E-01  2.4524565137E-01  7.5475434863E-01
                       2.4524565137E-01  7.5475434863E-01  2.4524565137E-01
                       7.5475434863E-01  2.4524565137E-01  2.4524565137E-01
                      -1.6380696434E-21  1.4776733349E-21 -5.0241256355E-21
             xred9     2.5000000000E-01  2.5000000000E-01  2.5000000000E-01
                       7.5000000000E-01  7.5000000000E-01  7.5000000000E-01
                       2.6646531955E-01  2.6646531955E-01  7.3353468045E-01
                       7.3353468045E-01  7.3353468045E-01  2.6646531955E-01
                       2.4533991049E-01  7.5466008951E-01  7.5466008951E-01
                       7.5466008951E-01  2.4533991049E-01  7.5466008951E-01
                       2.4533991049E-01  7.5466008951E-01  2.4533991049E-01
                       7.5466008951E-01  2.4533991049E-01  2.4533991049E-01
                      -1.6402822269E-21  1.5077814217E-21 -5.0572237581E-21
             xred10    2.5000000000E-01  2.5000000000E-01  2.5000000000E-01
                       7.5000000000E-01  7.5000000000E-01  7.5000000000E-01
                       2.6653291875E-01  2.6653291875E-01  7.3346708125E-01
                       7.3346708125E-01  7.3346708125E-01  2.6653291875E-01
                       2.4543717516E-01  7.5456282484E-01  7.5456282484E-01
                       7.5456282484E-01  2.4543717516E-01  7.5456282484E-01
                       2.4543717516E-01  7.5456282484E-01  2.4543717516E-01
                       7.5456282484E-01  2.4543717516E-01  2.4543717516E-01
                      -1.6402822269E-21  1.5077814217E-21 -5.0572237581E-21
            znucl       55.00000   53.00000   40.00000   35.00000

================================================================================

 chkinp: Checking input parameters for consistency, jdtset=   1.

 chkinp: Checking input parameters for consistency, jdtset=   2.

 chkinp: Checking input parameters for consistency, jdtset=   3.

 chkinp: Checking input parameters for consistency, jdtset=   4.

 chkinp: Checking input parameters for consistency, jdtset=   5.

 chkinp: Checking input parameters for consistency, jdtset=   6.

 chkinp: Checking input parameters for consistency, jdtset=   7.

 chkinp: Checking input parameters for consistency, jdtset=   8.

 chkinp: Checking input parameters for consistency, jdtset=   9.

 chkinp: Checking input parameters for consistency, jdtset=  10.

================================================================================
== DATASET  1 ==================================================================
-   mpi_nproc: 6, omp_nthreads: -1 (-1 if OMP is not activated)


--- !DatasetInfo
iteration_state: {dtset: 1, }
dimensions: {natom: 9, nkpt: 163, mband: 42, nsppol: 1, nspinor: 1, nspden: 1, mpw: 6291, }
cutoff_energies: {ecut:  16.0, pawecutdg:  40.0, }
electrons: {nelect:   7.20000000E+01, charge:   0.00000000E+00, occopt:   1.00000000E+00, tsmear:   1.00000000E-02, }
meta: {optdriver: 0, ionmov: 0, optcell: 0, iscf: 17, paral_kgb: 0, }
...

 Real(R)+Recip(G) space primitive vectors, cartesian coordinates (Bohr,Bohr^-1):
 R(1)=  0.0000000 10.0861461 10.0711630  G(1)= -0.0495729  0.0495729  0.0496467
 R(2)= 10.0861461  0.0000000 10.0711630  G(2)=  0.0495729 -0.0495729  0.0496467
 R(3)= 10.0861461 10.0861461  0.0000000  G(3)=  0.0495729  0.0495729 -0.0496467
 Unit cell volume ucvol=  2.0490858E+03 bohr^3
 Angles (23,13,12)=  5.99754176E+01  5.99754176E+01  6.00491647E+01 degrees

 Coarse grid specifications (used for wave-functions):

 getcut: wavevector=  0.0000  0.0000  0.0000  ngfft=  54  54  54
         ecut(hartree)=     16.000   => boxcut(ratio)=   2.10319

 Fine grid specifications (used for densities):

 getcut: wavevector=  0.0000  0.0000  0.0000  ngfft=  90  90  90
         ecut(hartree)=     40.000   => boxcut(ratio)=   2.21647

 getcut : COMMENT -
  Note that boxcut > 2.2 ; recall that boxcut=Gcut(box)/Gcut(sphere) = 2
  is sufficient for exact treatment of convolution.
  Such a large boxcut is a waste : you could raise ecut
  e.g. ecut=   49.127177 Hartrees makes boxcut=2


--- Pseudopotential description ------------------------------------------------
- pspini: atom type   1  psp file is ../../../Psps_for_tests/ATOMICDATA/Cs.GGA_PBE-JTH.xml
- pspatm: opening atomic psp file    ../../../Psps_for_tests/ATOMICDATA/Cs.GGA_PBE-JTH.xml
- pspatm : Reading pseudopotential header in XML form from ../../../Psps_for_tests/ATOMICDATA/Cs.GGA_PBE-JTH.xml
 Pseudopotential format is: paw10
 basis_size (lnmax)=  6 (lmn_size= 18), orbitals=   0   0   1   1   2   2
 Spheres core radius: rc_sph= 2.20660278
 1 radial meshes are used:
  - mesh 1: r(i)=AA*[exp(BB*(i-1))-1], size=1500 , AA= 0.15922E-03 BB= 0.87573E-02
 Shapefunction is SIN type: shapef(r)=[sin(pi*r/rshp)/(pi*r/rshp)]**2
 Radius for shape functions =  2.00394208
 mmax= 1500
 Radial grid used for partial waves is grid 1
 Radial grid used for projectors is grid 1
 Radial grid used for (t)core density is grid 1
 Radial grid used for Vloc is grid 1
 Radial grid used for pseudo valence density is grid 1
 Mesh size for Vloc has been set to 1341 to avoid numerical noise.
 Compensation charge density is not taken into account in XC energy/potential
 pspatm: atomic psp has been read  and splines computed

- pspini: atom type   2  psp file is ../../../Psps_for_tests/ATOMICDATA/I.GGA_PBE-JTH.xml
- pspatm: opening atomic psp file    ../../../Psps_for_tests/ATOMICDATA/I.GGA_PBE-JTH.xml
- pspatm : Reading pseudopotential header in XML form from ../../../Psps_for_tests/ATOMICDATA/I.GGA_PBE-JTH.xml
 Pseudopotential format is: paw10
 basis_size (lnmax)=  4 (lmn_size=  8), orbitals=   0   0   1   1
 Spheres core radius: rc_sph= 2.30022271
 1 radial meshes are used:
  - mesh 1: r(i)=AA*[exp(BB*(i-1))-1], size=2000 , AA= 0.12610E-03 BB= 0.66836E-02
 Shapefunction is SIN type: shapef(r)=[sin(pi*r/rshp)/(pi*r/rshp)]**2
 Radius for shape functions =  2.10879093
 mmax= 2000
 Radial grid used for partial waves is grid 1
 Radial grid used for projectors is grid 1
 Radial grid used for (t)core density is grid 1
 Radial grid used for Vloc is grid 1
 Radial grid used for pseudo valence density is grid 1
 Mesh size for Vloc has been set to 1792 to avoid numerical noise.
 Compensation charge density is not taken into account in XC energy/potential
 pspatm: atomic psp has been read  and splines computed

- pspini: atom type   3  psp file is ../../../Psps_for_tests/ATOMICDATA/Zr.GGA_PBE-JTH.xml
- pspatm: opening atomic psp file    ../../../Psps_for_tests/ATOMICDATA/Zr.GGA_PBE-JTH.xml
- pspatm : Reading pseudopotential header in XML form from ../../../Psps_for_tests/ATOMICDATA/Zr.GGA_PBE-JTH.xml
 Pseudopotential format is: paw10
 basis_size (lnmax)=  6 (lmn_size= 18), orbitals=   0   0   1   1   2   2
 Spheres core radius: rc_sph= 2.21000000
 1 radial meshes are used:
  - mesh 1: r(i)=AA*[exp(BB*(i-1))-1], size= 941 , AA= 0.35256E-03 BB= 0.14102E-01
 Shapefunction is BESSEL type: shapef(r,l)=aa(1,l)*jl(q(1,l)*r)+aa(2,l)*jl(q(2,l)*r)
 Radius for shape functions =  2.21000000
 mmax=  941
 Radial grid used for partial waves is grid 1
 Radial grid used for projectors is grid 1
 Radial grid used for (t)core density is grid 1
 Radial grid used for Vloc is grid 1
 Radial grid used for pseudo valence density is grid 1
 Mesh size for Vloc has been set to  777 to avoid numerical noise.
 Compensation charge density is not taken into account in XC energy/potential
 pspatm: atomic psp has been read  and splines computed

- pspini: atom type   4  psp file is ../../../Psps_for_tests/ATOMICDATA/Br.GGA_PBE-JTH.xml
- pspatm: opening atomic psp file    ../../../Psps_for_tests/ATOMICDATA/Br.GGA_PBE-JTH.xml
- pspatm : Reading pseudopotential header in XML form from ../../../Psps_for_tests/ATOMICDATA/Br.GGA_PBE-JTH.xml
 Pseudopotential format is: paw10
 basis_size (lnmax)=  4 (lmn_size=  8), orbitals=   0   0   1   1
 Spheres core radius: rc_sph= 2.20000000
 1 radial meshes are used:
  - mesh 1: r(i)=AA*[exp(BB*(i-1))-1], size= 927 , AA= 0.40483E-03 BB= 0.14169E-01
 Shapefunction is BESSEL type: shapef(r,l)=aa(1,l)*jl(q(1,l)*r)+aa(2,l)*jl(q(2,l)*r)
 Radius for shape functions =  2.02066386
 mmax=  927
 Radial grid used for partial waves is grid 1
 Radial grid used for projectors is grid 1
 Radial grid used for (t)core density is grid 1
 Radial grid used for Vloc is grid 1
 Radial grid used for pseudo valence density is grid 1
 Mesh size for Vloc has been set to  763 to avoid numerical noise.
 Compensation charge density is not taken into account in XC energy/potential
 pspatm: atomic psp has been read  and splines computed

   2.93056170E+04                                ecore*ucvol(ha*bohr**3)
--------------------------------------------------------------------------------

_setup2: Arith. and geom. avg. npw (full set) are    6263.730    6263.723

================================================================================

--- !BeginCycle
iteration_state: {dtset: 1, }
solver: {iscf: 17, nstep: 2500, nline: 4, wfoptalg: 10, }
tolerances: {toldfe: 1.00E-08, }
...

     iter   Etot(hartree)      deltaE(h)  residm     nres2
 ETOT  1  -166.44111092497    -1.664E+02 2.722E-01 2.014E+01
 ETOT  2  -166.63836832551    -1.973E-01 1.569E-02 5.199E+00
 ETOT  3  -166.63488293354     3.485E-03 3.851E-03 1.116E+00
 ETOT  4  -166.63551933029    -6.364E-04 3.061E-03 6.398E-02
 ETOT  5  -166.63523210009     2.872E-04 8.263E-04 6.003E-03
 ETOT  6  -166.63527409348    -4.199E-05 9.303E-04 5.016E-04
 ETOT  7  -166.63527420418    -1.107E-07 3.279E-04 8.177E-05
 ETOT  8  -166.63527542116    -1.217E-06 7.559E-04 1.671E-05
 ETOT  9  -166.63527546057    -3.941E-08 2.271E-04 2.695E-06
 ETOT 10  -166.63527550377    -4.320E-08 3.734E-04 2.376E-07
 ETOT 11  -166.63527550584    -2.068E-09 1.164E-04 6.482E-08
 ETOT 12  -166.63527550660    -7.643E-10 1.704E-04 1.080E-08

 At SCF step   12, etot is converged : 
  for the second time, diff in etot=  7.643E-10 < toldfe=  1.000E-08

 Cartesian components of stress tensor (hartree/bohr^3)
  sigma(1 1)= -1.27205963E-04  sigma(3 2)= -2.59757638E-13
  sigma(2 2)= -1.27205963E-04  sigma(3 1)= -2.59757526E-13
  sigma(3 3)= -1.27202713E-04  sigma(2 1)=  5.18745641E-13


--- !ResultsGS
iteration_state: {dtset: 1, }
comment   : Summary of ground state results
lattice_vectors:
- [  0.0000000,  10.0861461,  10.0711630, ]
- [ 10.0861461,   0.0000000,  10.0711630, ]
- [ 10.0861461,  10.0861461,   0.0000000, ]
lattice_lengths: [  14.25337,   14.25337,   14.26396, ]
lattice_angles: [ 59.975,  59.975,  60.049, ] # degrees, (23, 13, 12)
lattice_volume:   2.0490858E+03
convergence: {deltae: -7.643E-10, res2:  1.080E-08, residm:  1.704E-04, diffor: null, }
etotal    :  -1.66635276E+02
entropy   :   0.00000000E+00
fermie    :  -2.60754903E-02
cartesian_stress_tensor: # hartree/bohr^3
- [ -1.27205963E-04,   5.18745641E-13,  -2.59757526E-13, ]
- [  5.18745641E-13,  -1.27205963E-04,  -2.59757638E-13, ]
- [ -2.59757526E-13,  -2.59757638E-13,  -1.27202713E-04, ]
pressure_GPa:   3.7425E+00
xred      :
- [  2.5000E-01,   2.5000E-01,   2.5000E-01, Cs]
- [  7.5000E-01,   7.5000E-01,   7.5000E-01, Cs]
- [  2.6603E-01,   2.6603E-01,   7.3397E-01,  I]
- [  7.3397E-01,   7.3397E-01,   2.6603E-01,  I]
- [  2.4454E-01,   7.5546E-01,   7.5546E-01, Br]
- [  7.5546E-01,   2.4454E-01,   7.5546E-01, Br]
- [  2.4454E-01,   7.5546E-01,   2.4454E-01, Br]
- [  7.5546E-01,   2.4454E-01,   2.4454E-01, Br]
- [ -1.5279E-21,   6.5971E-22,  -4.6259E-21, Zr]
cartesian_forces: # hartree/bohr
- [ -1.60178835E-28,   3.65214172E-23,  -1.86905927E-23, ]
- [  6.80760047E-28,   3.65206563E-23,  -1.86893495E-23, ]
- [ -4.22134166E-23,   7.87347537E-23,  -1.74277845E-06, ]
- [ -1.98671467E-23,   5.63884838E-23,   1.74277845E-06, ]
- [ -2.76676997E-06,  -1.04725941E-16,   1.04881730E-16, ]
- [ -1.04725766E-16,  -2.76676997E-06,   1.04881518E-16, ]
- [  1.04725810E-16,   2.76676997E-06,  -1.04881811E-16, ]
- [  2.76676997E-06,   1.04726014E-16,  -1.04881767E-16, ]
- [ -0.00000000E+00,   3.65213371E-23,  -1.86899510E-23, ]
force_length_stats: {min:   4.10249939E-23, max:   2.76676997E-06, mean:   1.61695964E-06, }
...

 Integrated electronic density in atomic spheres:
 ------------------------------------------------
 Atom  Sphere_radius  Integrated_density
    1        2.20660          5.36564158
    2        2.20660          5.36564158
    3        2.30022          4.03809845
    4        2.30022          4.03809845
    5        2.20000          4.93641316
    6        2.20000          4.93641316
    7        2.20000          4.93641316
    8        2.20000          4.93641316
    9        2.21000          8.85079674

 PAW TEST:
 ==== Compensation charge inside spheres ============
 The following values must be close to each other ...
 Compensation charge over spherical meshes =     -4.998969451910035
 Compensation charge over fine fft grid    =     -4.998969606433353

 ==== Results concerning PAW augmentation regions ====

 Total pseudopotential strength Dij (hartree):
 Atom #  1
   0.42094  -0.13950   0.00000   0.00000   0.00000   0.00000   0.00000   0.00000   0.00000   0.00000   0.00000   0.00000 ...
  -0.13950   0.04190   0.00000   0.00000   0.00000   0.00000   0.00000   0.00000   0.00000   0.00000  -0.00000   0.00000 ...
   0.00000   0.00000  -0.09119   0.00000   0.00000  -0.16801   0.00000   0.00000   0.00000   0.00000   0.00000  -0.00000 ...
   0.00000   0.00000   0.00000  -0.09119   0.00000   0.00000  -0.16801   0.00000  -0.00000   0.00000   0.00000   0.00000 ...
   0.00000   0.00000   0.00000   0.00000  -0.09119   0.00000   0.00000  -0.16801   0.00000  -0.00000   0.00000   0.00000 ...
   0.00000   0.00000  -0.16801   0.00000   0.00000   0.39820   0.00000   0.00000   0.00000   0.00000   0.00000   0.00000 ...
   0.00000   0.00000   0.00000  -0.16801   0.00000   0.00000   0.39821   0.00000   0.00000   0.00000   0.00000   0.00000 ...
   0.00000   0.00000   0.00000   0.00000  -0.16801   0.00000   0.00000   0.39820   0.00000   0.00000   0.00000   0.00000 ...
   0.00000   0.00000   0.00000  -0.00000   0.00000   0.00000   0.00000   0.00000   0.00556   0.00000   0.00000   0.00000 ...
   0.00000   0.00000   0.00000   0.00000  -0.00000   0.00000   0.00000   0.00000   0.00000   0.00556   0.00000   0.00000 ...
   0.00000  -0.00000   0.00000   0.00000   0.00000   0.00000   0.00000   0.00000   0.00000   0.00000   0.00556   0.00000 ...
   0.00000   0.00000  -0.00000   0.00000   0.00000   0.00000   0.00000   0.00000   0.00000   0.00000   0.00000   0.00556 ...
   ...  only 12  components have been written...
 Atom #  9
   3.05769  -0.89021   0.00000   0.00000   0.00000   0.00000   0.00000   0.00000   0.00000   0.00000  -0.00002   0.00000 ...
  -0.89021   0.26592   0.00000   0.00000   0.00000   0.00000   0.00000   0.00000   0.00000   0.00000  -0.00000   0.00000 ...
   0.00000   0.00000   0.27514   0.00000   0.00000  -0.05618   0.00000   0.00000   0.00000   0.00000   0.00000   0.00000 ...
   0.00000   0.00000   0.00000   0.27506   0.00000   0.00000  -0.05617   0.00000   0.00000   0.00000   0.00000   0.00000 ...
   0.00000   0.00000   0.00000   0.00000   0.27514   0.00000   0.00000  -0.05618   0.00000   0.00000   0.00000   0.00000 ...
   0.00000   0.00000  -0.05618   0.00000   0.00000   0.01533   0.00000   0.00000   0.00000   0.00000   0.00000   0.00000 ...
   0.00000   0.00000   0.00000  -0.05617   0.00000   0.00000   0.01533   0.00000   0.00000   0.00000   0.00000   0.00000 ...
   0.00000   0.00000   0.00000   0.00000  -0.05618   0.00000   0.00000   0.01533   0.00000   0.00000   0.00000   0.00000 ...
   0.00000   0.00000   0.00000   0.00000   0.00000   0.00000   0.00000   0.00000  -0.00728   0.00000   0.00000   0.00000 ...
   0.00000   0.00000   0.00000   0.00000   0.00000   0.00000   0.00000   0.00000   0.00000  -0.00727   0.00000   0.00000 ...
  -0.00002  -0.00000   0.00000   0.00000   0.00000   0.00000   0.00000   0.00000   0.00000   0.00000  -0.00719   0.00000 ...
   0.00000   0.00000   0.00000   0.00000   0.00000   0.00000   0.00000   0.00000   0.00000   0.00000   0.00000  -0.00727 ...
   ...  only 12  components have been written...


 Augmentation waves occupancies Rhoij:
 Atom #  1
   1.99900  -0.01174   0.00000   0.00000   0.00000   0.00000   0.00000   0.00000   0.00000   0.00000   0.00216   0.00000 ...
  -0.01174   0.20558   0.00000   0.00000   0.00000   0.00000   0.00000   0.00000   0.00000   0.00000  -0.02862   0.00000 ...
   0.00000   0.00000   2.00942   0.00000   0.00000  -0.00499   0.00000   0.00000   0.00000   0.00000   0.00000  -0.00233 ...
   0.00000   0.00000   0.00000   2.00668   0.00000   0.00000  -0.00451   0.00000  -0.00212   0.00000   0.00000   0.00000 ...
   0.00000   0.00000   0.00000   0.00000   2.00942   0.00000   0.00000  -0.00499   0.00000  -0.00233   0.00000   0.00000 ...
   0.00000   0.00000  -0.00499   0.00000   0.00000   0.00017   0.00000   0.00000   0.00000   0.00000   0.00000   0.00008 ...
   0.00000   0.00000   0.00000  -0.00451   0.00000   0.00000   0.00013   0.00000   0.00007   0.00000   0.00000   0.00000 ...
   0.00000   0.00000   0.00000   0.00000  -0.00499   0.00000   0.00000   0.00017   0.00000   0.00008   0.00000   0.00000 ...
   0.00000   0.00000   0.00000  -0.00212   0.00000   0.00000   0.00007   0.00000   0.10500   0.00000   0.00000   0.00000 ...
   0.00000   0.00000   0.00000   0.00000  -0.00233   0.00000   0.00000   0.00008   0.00000   0.06007   0.00000   0.00000 ...
   0.00216  -0.02862   0.00000   0.00000   0.00000   0.00000   0.00000   0.00000   0.00000   0.00000   0.05695   0.00000 ...
   0.00000   0.00000  -0.00233   0.00000   0.00000   0.00008   0.00000   0.00000   0.00000   0.00000   0.00000   0.06007 ...
   ...  only 12  components have been written...
 Atom #  9
   1.99372  -0.06267   0.00000   0.00000   0.00000   0.00000   0.00000   0.00000   0.00000   0.00000   0.00412   0.00000 ...
  -0.06267   1.07771   0.00000   0.00000   0.00000   0.00000   0.00000   0.00000   0.00000   0.00000  -0.02608   0.00000 ...
   0.00000   0.00000   1.96897   0.00000   0.00000  -0.18926   0.00000   0.00000   0.00000   0.00000   0.00000   0.00000 ...
   0.00000   0.00000   0.00000   1.97011   0.00000   0.00000  -0.17923   0.00000   0.00000   0.00000   0.00000   0.00000 ...
   0.00000   0.00000   0.00000   0.00000   1.96897   0.00000   0.00000  -0.18926   0.00000   0.00000   0.00000   0.00000 ...
   0.00000   0.00000  -0.18926   0.00000   0.00000   1.73332   0.00000   0.00000   0.00000   0.00000   0.00000   0.00000 ...
   0.00000   0.00000   0.00000  -0.17923   0.00000   0.00000   1.57437   0.00000   0.00000   0.00000   0.00000   0.00000 ...
   0.00000   0.00000   0.00000   0.00000  -0.18926   0.00000   0.00000   1.73332   0.00000   0.00000   0.00000   0.00000 ...
   0.00000   0.00000   0.00000   0.00000   0.00000   0.00000   0.00000   0.00000   0.51279   0.00000   0.00000   0.00000 ...
   0.00000   0.00000   0.00000   0.00000   0.00000   0.00000   0.00000   0.00000   0.00000   0.50999   0.00000   0.00000 ...
   0.00412  -0.02608   0.00000   0.00000   0.00000   0.00000   0.00000   0.00000   0.00000   0.00000   1.42555   0.00000 ...
   0.00000   0.00000   0.00000   0.00000   0.00000   0.00000   0.00000   0.00000   0.00000   0.00000   0.00000   0.50999 ...
   ...  only 12  components have been written...


================================================================================

 ----iterations are completed or convergence reached----

 Mean square residual over all n,k,spin=   37.801E-08; max=  17.040E-05
 reduced coordinates (array xred) for    9 atoms
       0.250000000000      0.250000000000      0.250000000000
       0.750000000000      0.750000000000      0.750000000000
       0.266027769860      0.266027769860      0.733972230140
       0.733972230140      0.733972230140      0.266027769860
       0.244544893000      0.755455107000      0.755455107000
       0.755455107000      0.244544893000      0.755455107000
       0.244544893000      0.755455107000      0.244544893000
       0.755455107000      0.244544893000      0.244544893000
      -0.000000000000      0.000000000000     -0.000000000000
 rms dE/dt=  1.6625E-05; max dE/dt=  2.7906E-05; dE/dt below (all hartree)
    1       0.000000000000      0.000000000000      0.000000000000
    2       0.000000000000     -0.000000000000      0.000000000000
    3       0.000017551806      0.000017551806      0.000000000000
    4      -0.000017551806     -0.000017551806      0.000000000000
    5      -0.000000000000      0.000027906046      0.000027906046
    6       0.000027906046      0.000000000000      0.000027906046
    7      -0.000027906046      0.000000000000     -0.000027906046
    8       0.000000000000     -0.000027906046     -0.000027906046
    9       0.000000000000      0.000000000000      0.000000000000

 cartesian coordinates (angstrom) at end:
    1      2.66867932809153     2.66867932809153     2.66471496839401
    2      8.00603798427460     8.00603798427460     7.99414490518203
    3      5.33735865608853     5.33735865608853     2.83555272141767
    4      5.33735865627760     5.33735865627760     7.82330715215836
    5      8.06426970940831     5.33735865607985     5.32942993678802
    6      5.33735865607985     8.06426970940831     5.32942993678802
    7      5.33735865628628     2.61044760295782     5.32942993678802
    8      2.61044760295782     5.33735865628628     5.32942993678802
    9     -0.00000000000000    -0.00000000000000    -0.00000000000000

 cartesian forces (hartree/bohr) at end:
    1     -0.00000000000000     0.00000000000000    -0.00000000000000
    2      0.00000000000000     0.00000000000000    -0.00000000000000
    3     -0.00000000000000     0.00000000000000    -0.00000174277845
    4     -0.00000000000000     0.00000000000000     0.00000174277845
    5     -0.00000276676997    -0.00000000000000     0.00000000000000
    6     -0.00000000000000    -0.00000276676997     0.00000000000000
    7      0.00000000000000     0.00000276676997    -0.00000000000000
    8      0.00000276676997     0.00000000000000    -0.00000000000000
    9     -0.00000000000000     0.00000000000000    -0.00000000000000
 frms,max,avg= 1.1657873E-06 2.7667700E-06   0.000E+00  0.000E+00  0.000E+00 h/b

 cartesian forces (eV/Angstrom) at end:
    1     -0.00000000000000     0.00000000000000    -0.00000000000000
    2      0.00000000000000     0.00000000000000    -0.00000000000000
    3     -0.00000000000000     0.00000000000000    -0.00008961726360
    4     -0.00000000000000     0.00000000000000     0.00008961726360
    5     -0.00014227302038    -0.00000000000001     0.00000000000001
    6     -0.00000000000001    -0.00014227302038     0.00000000000001
    7      0.00000000000001     0.00014227302038    -0.00000000000001
    8      0.00014227302038     0.00000000000001    -0.00000000000001
    9     -0.00000000000000     0.00000000000000    -0.00000000000000
 frms,max,avg= 5.9947186E-05 1.4227302E-04   0.000E+00  0.000E+00  0.000E+00 e/A
 length scales= 14.253373934000 14.253373934000 14.263964653000 bohr
              =  7.542560631384  7.542560631384  7.548164998501 angstroms
 prteigrs : about to open file Cs2TiI6o_DS1_EIG
 Fermi (or HOMO) energy (hartree) =  -0.02608   Average Vxc (hartree)=  -0.32395
 Eigenvalues (hartree) for nkpt= 163  k points:
 kpt#   1, nband= 42, wtk=  0.00058, kpt=  0.0000  0.0000  0.0000 (reduced coord)
  -1.83476   -1.02717   -1.02717   -1.02565   -0.76345   -0.76281   -0.54494   -0.53031
  -0.53031   -0.53017   -0.44225   -0.43880   -0.28957   -0.28957   -0.28768   -0.28353
  -0.28353   -0.28244   -0.18146   -0.12811   -0.12672   -0.12672   -0.12596   -0.12357
  -0.12196   -0.12196   -0.09647   -0.08136   -0.07194   -0.07194   -0.05031   -0.03693
  -0.03693   -0.03119   -0.02608   -0.02608    0.04607    0.04607    0.05309    0.13898
   0.14027    0.14634
 prteigrs : prtvol=0 or 1, do not print more k-points.


--- !EnergyTerms
iteration_state     : {dtset: 1, }
comment             : Components of total free energy in Hartree
kinetic             :  4.90964286683028E+01
hartree             :  3.17064805641653E+01
xc                  : -6.42284660584821E+01
Ewald energy        : -1.30707932352141E+02
psp_core            :  1.43018011564962E+01
local_psp           : -1.00968189234805E+02
spherical_terms     :  3.41646071942853E+01
total_energy        : -1.66635270062179E+02
total_energy_eV     : -4.53437629827671E+03
...


--- !EnergyTermsDC
iteration_state     : {dtset: 1, }
comment             : '"Double-counting" decomposition of free energy'
band_energy         : -2.57375202060139E+01
Ewald energy        : -1.30707932352141E+02
psp_core            :  1.43018011564962E+01
xc_dc               : -5.24690752173395E+01
spherical_terms     :  2.79774511123986E+01
total_energy_dc     : -1.66635275506600E+02
total_energy_dc_eV  : -4.53437644642694E+03
...


 Cartesian components of stress tensor (hartree/bohr^3)
  sigma(1 1)= -1.27205963E-04  sigma(3 2)= -2.59757638E-13
  sigma(2 2)= -1.27205963E-04  sigma(3 1)= -2.59757526E-13
  sigma(3 3)= -1.27202713E-04  sigma(2 1)=  5.18745641E-13

-Cartesian components of stress tensor (GPa)         [Pressure=  3.7425E+00 GPa]
- sigma(1 1)= -3.74252800E+00  sigma(3 2)= -7.64233228E-09
- sigma(2 2)= -3.74252800E+00  sigma(3 1)= -7.64232897E-09
- sigma(3 3)= -3.74243240E+00  sigma(2 1)=  1.52620211E-08

================================================================================
== DATASET  2 ==================================================================
-   mpi_nproc: 6, omp_nthreads: -1 (-1 if OMP is not activated)


--- !DatasetInfo
iteration_state: {dtset: 2, }
dimensions: {natom: 9, nkpt: 163, mband: 42, nsppol: 1, nspinor: 1, nspden: 1, mpw: 6283, }
cutoff_energies: {ecut:  16.0, pawecutdg:  40.0, }
electrons: {nelect:   7.20000000E+01, charge:   0.00000000E+00, occopt:   1.00000000E+00, tsmear:   1.00000000E-02, }
meta: {optdriver: 0, ionmov: 0, optcell: 0, iscf: 17, paral_kgb: 0, }
...

 Real(R)+Recip(G) space primitive vectors, cartesian coordinates (Bohr,Bohr^-1):
 R(1)=  0.0000000 10.0812212 10.0659667  G(1)= -0.0495972  0.0495972  0.0496723
 R(2)= 10.0812212  0.0000000 10.0659667  G(2)=  0.0495972 -0.0495972  0.0496723
 R(3)= 10.0812212 10.0812212  0.0000000  G(3)=  0.0495972  0.0495972 -0.0496723
 Unit cell volume ucvol=  2.0460289E+03 bohr^3
 Angles (23,13,12)=  5.99749600E+01  5.99749600E+01  6.00500800E+01 degrees

 Coarse grid specifications (used for wave-functions):

 getcut: wavevector=  0.0000  0.0000  0.0000  ngfft=  54  54  54
         ecut(hartree)=     16.000   => boxcut(ratio)=   2.10421

 Fine grid specifications (used for densities):

 getcut: wavevector=  0.0000  0.0000  0.0000  ngfft=  90  90  90
         ecut(hartree)=     40.000   => boxcut(ratio)=   2.21755

 getcut : COMMENT -
  Note that boxcut > 2.2 ; recall that boxcut=Gcut(box)/Gcut(sphere) = 2
  is sufficient for exact treatment of convolution.
  Such a large boxcut is a waste : you could raise ecut
  e.g. ecut=   49.175189 Hartrees makes boxcut=2


--- Pseudopotential description ------------------------------------------------
- pspini: atom type   1  psp file is ../../../Psps_for_tests/ATOMICDATA/Cs.GGA_PBE-JTH.xml
- pspatm: opening atomic psp file    ../../../Psps_for_tests/ATOMICDATA/Cs.GGA_PBE-JTH.xml
- pspatm : Reading pseudopotential header in XML form from ../../../Psps_for_tests/ATOMICDATA/Cs.GGA_PBE-JTH.xml
 Pseudopotential format is: paw10
 basis_size (lnmax)=  6 (lmn_size= 18), orbitals=   0   0   1   1   2   2
 Spheres core radius: rc_sph= 2.20660278
 1 radial meshes are used:
  - mesh 1: r(i)=AA*[exp(BB*(i-1))-1], size=1500 , AA= 0.15922E-03 BB= 0.87573E-02
 Shapefunction is SIN type: shapef(r)=[sin(pi*r/rshp)/(pi*r/rshp)]**2
 Radius for shape functions =  2.00394208
 mmax= 1500
 Radial grid used for partial waves is grid 1
 Radial grid used for projectors is grid 1
 Radial grid used for (t)core density is grid 1
 Radial grid used for Vloc is grid 1
 Radial grid used for pseudo valence density is grid 1
 Mesh size for Vloc has been set to 1341 to avoid numerical noise.
 Compensation charge density is not taken into account in XC energy/potential
 pspatm: atomic psp has been read  and splines computed

- pspini: atom type   2  psp file is ../../../Psps_for_tests/ATOMICDATA/I.GGA_PBE-JTH.xml
- pspatm: opening atomic psp file    ../../../Psps_for_tests/ATOMICDATA/I.GGA_PBE-JTH.xml
- pspatm : Reading pseudopotential header in XML form from ../../../Psps_for_tests/ATOMICDATA/I.GGA_PBE-JTH.xml
 Pseudopotential format is: paw10
 basis_size (lnmax)=  4 (lmn_size=  8), orbitals=   0   0   1   1
 Spheres core radius: rc_sph= 2.30022271
 1 radial meshes are used:
  - mesh 1: r(i)=AA*[exp(BB*(i-1))-1], size=2000 , AA= 0.12610E-03 BB= 0.66836E-02
 Shapefunction is SIN type: shapef(r)=[sin(pi*r/rshp)/(pi*r/rshp)]**2
 Radius for shape functions =  2.10879093
 mmax= 2000
 Radial grid used for partial waves is grid 1
 Radial grid used for projectors is grid 1
 Radial grid used for (t)core density is grid 1
 Radial grid used for Vloc is grid 1
 Radial grid used for pseudo valence density is grid 1
 Mesh size for Vloc has been set to 1792 to avoid numerical noise.
 Compensation charge density is not taken into account in XC energy/potential
 pspatm: atomic psp has been read  and splines computed

- pspini: atom type   3  psp file is ../../../Psps_for_tests/ATOMICDATA/Zr.GGA_PBE-JTH.xml
- pspatm: opening atomic psp file    ../../../Psps_for_tests/ATOMICDATA/Zr.GGA_PBE-JTH.xml
- pspatm : Reading pseudopotential header in XML form from ../../../Psps_for_tests/ATOMICDATA/Zr.GGA_PBE-JTH.xml
 Pseudopotential format is: paw10
 basis_size (lnmax)=  6 (lmn_size= 18), orbitals=   0   0   1   1   2   2
 Spheres core radius: rc_sph= 2.21000000
 1 radial meshes are used:
  - mesh 1: r(i)=AA*[exp(BB*(i-1))-1], size= 941 , AA= 0.35256E-03 BB= 0.14102E-01
 Shapefunction is BESSEL type: shapef(r,l)=aa(1,l)*jl(q(1,l)*r)+aa(2,l)*jl(q(2,l)*r)
 Radius for shape functions =  2.21000000
 mmax=  941
 Radial grid used for partial waves is grid 1
 Radial grid used for projectors is grid 1
 Radial grid used for (t)core density is grid 1
 Radial grid used for Vloc is grid 1
 Radial grid used for pseudo valence density is grid 1
 Mesh size for Vloc has been set to  777 to avoid numerical noise.
 Compensation charge density is not taken into account in XC energy/potential
 pspatm: atomic psp has been read  and splines computed

- pspini: atom type   4  psp file is ../../../Psps_for_tests/ATOMICDATA/Br.GGA_PBE-JTH.xml
- pspatm: opening atomic psp file    ../../../Psps_for_tests/ATOMICDATA/Br.GGA_PBE-JTH.xml
- pspatm : Reading pseudopotential header in XML form from ../../../Psps_for_tests/ATOMICDATA/Br.GGA_PBE-JTH.xml
 Pseudopotential format is: paw10
 basis_size (lnmax)=  4 (lmn_size=  8), orbitals=   0   0   1   1
 Spheres core radius: rc_sph= 2.20000000
 1 radial meshes are used:
  - mesh 1: r(i)=AA*[exp(BB*(i-1))-1], size= 927 , AA= 0.40483E-03 BB= 0.14169E-01
 Shapefunction is BESSEL type: shapef(r,l)=aa(1,l)*jl(q(1,l)*r)+aa(2,l)*jl(q(2,l)*r)
 Radius for shape functions =  2.02066386
 mmax=  927
 Radial grid used for partial waves is grid 1
 Radial grid used for projectors is grid 1
 Radial grid used for (t)core density is grid 1
 Radial grid used for Vloc is grid 1
 Radial grid used for pseudo valence density is grid 1
 Mesh size for Vloc has been set to  763 to avoid numerical noise.
 Compensation charge density is not taken into account in XC energy/potential
 pspatm: atomic psp has been read  and splines computed

--------------------------------------------------------------------------------

_setup2: Arith. and geom. avg. npw (full set) are    6254.008    6254.001

================================================================================

--- !BeginCycle
iteration_state: {dtset: 2, }
solver: {iscf: 17, nstep: 2500, nline: 4, wfoptalg: 10, }
tolerances: {toldfe: 1.00E-08, }
...

     iter   Etot(hartree)      deltaE(h)  residm     nres2
 ETOT  1  -166.44103929963    -1.664E+02 2.568E-01 2.016E+01
 ETOT  2  -166.63797105541    -1.969E-01 2.218E-02 5.210E+00
 ETOT  3  -166.63448386242     3.487E-03 3.155E-03 1.121E+00
 ETOT  4  -166.63511317452    -6.293E-04 2.558E-03 6.397E-02
 ETOT  5  -166.63482574784     2.874E-04 8.380E-04 5.979E-03
 ETOT  6  -166.63486742508    -4.168E-05 8.447E-04 4.891E-04
 ETOT  7  -166.63486758762    -1.625E-07 7.145E-04 7.987E-05
 ETOT  8  -166.63486878494    -1.197E-06 8.418E-04 1.650E-05
 ETOT  9  -166.63486882637    -4.142E-08 3.420E-04 2.582E-06
 ETOT 10  -166.63486886790    -4.153E-08 4.798E-04 2.263E-07
 ETOT 11  -166.63486886988    -1.979E-09 1.883E-04 6.056E-08
 ETOT 12  -166.63486887065    -7.732E-10 2.071E-04 1.020E-08

 At SCF step   12, etot is converged : 
  for the second time, diff in etot=  7.732E-10 < toldfe=  1.000E-08

 Cartesian components of stress tensor (hartree/bohr^3)
  sigma(1 1)= -1.28761424E-04  sigma(3 2)=  9.22894529E-14
  sigma(2 2)= -1.28761424E-04  sigma(3 1)=  9.22891327E-14
  sigma(3 3)= -1.28769433E-04  sigma(2 1)= -1.84295500E-13


--- !ResultsGS
iteration_state: {dtset: 2, }
comment   : Summary of ground state results
lattice_vectors:
- [  0.0000000,  10.0812212,  10.0659667, ]
- [ 10.0812212,   0.0000000,  10.0659667, ]
- [ 10.0812212,  10.0812212,   0.0000000, ]
lattice_lengths: [  14.24622,   14.24622,   14.25700, ]
lattice_angles: [ 59.975,  59.975,  60.050, ] # degrees, (23, 13, 12)
lattice_volume:   2.0460289E+03
convergence: {deltae: -7.732E-10, res2:  1.020E-08, residm:  2.071E-04, diffor: null, }
etotal    :  -1.66634869E+02
entropy   :   0.00000000E+00
fermie    :  -2.57194041E-02
cartesian_stress_tensor: # hartree/bohr^3
- [ -1.28761424E-04,  -1.84295500E-13,   9.22891327E-14, ]
- [ -1.84295500E-13,  -1.28761424E-04,   9.22894529E-14, ]
- [  9.22891327E-14,   9.22894529E-14,  -1.28769433E-04, ]
pressure_GPa:   3.7884E+00
xred      :
- [  2.5000E-01,   2.5000E-01,   2.5000E-01, Cs]
- [  7.5000E-01,   7.5000E-01,   7.5000E-01, Cs]
- [  2.6610E-01,   2.6610E-01,   7.3390E-01,  I]
- [  7.3390E-01,   7.3390E-01,   2.6610E-01,  I]
- [  2.4463E-01,   7.5537E-01,   7.5537E-01, Br]
- [  7.5537E-01,   2.4463E-01,   7.5537E-01, Br]
- [  2.4463E-01,   7.5537E-01,   2.4463E-01, Br]
- [  7.5537E-01,   2.4463E-01,   2.4463E-01, Br]
- [ -1.7402E-21,   1.6110E-21,  -4.9942E-21, Zr]
cartesian_forces: # hartree/bohr
- [ -1.88230165E-22,  -1.34098592E-22,  -3.86326896E-23, ]
- [ -1.88229624E-22,  -1.34099093E-22,  -3.86325090E-23, ]
- [  6.66817562E-22,  -9.89146279E-22,   6.35336439E-06, ]
- [ -1.96243703E-22,  -1.26085014E-22,  -6.35336439E-06, ]
- [ -9.08446737E-06,   1.21819610E-16,  -1.22004740E-16, ]
- [  1.21819381E-16,  -9.08446737E-06,  -1.22004566E-16, ]
- [ -1.21819932E-16,   9.08446737E-06,   1.22004663E-16, ]
- [  9.08446737E-06,  -1.21819206E-16,   1.22003990E-16, ]
- [ -1.88229544E-22,  -1.34099173E-22,  -3.86327498E-23, ]
force_length_stats: {min:   2.34319075E-22, max:   9.08446737E-06, mean:   5.44939981E-06, }
...

 Integrated electronic density in atomic spheres:
 ------------------------------------------------
 Atom  Sphere_radius  Integrated_density
    1        2.20660          5.36717706
    2        2.20660          5.36717706
    3        2.30022          4.03545219
    4        2.30022          4.03545219
    5        2.20000          4.93941455
    6        2.20000          4.93941455
    7        2.20000          4.93941455
    8        2.20000          4.93941455
    9        2.21000          8.85274555

 PAW TEST:
 ==== Compensation charge inside spheres ============
 The following values must be close to each other ...
 Compensation charge over spherical meshes =     -4.999074664179729
 Compensation charge over fine fft grid    =     -4.999073990251329

 ==== Results concerning PAW augmentation regions ====

 Total pseudopotential strength Dij (hartree):
 Atom #  1
   0.42085  -0.13947   0.00000   0.00000   0.00000   0.00000   0.00000   0.00000   0.00000   0.00000   0.00000   0.00000 ...
[...]
                       5.3145353455E+00  2.6077352519E+00  5.3113751723E+00
                       2.6077352519E+00  5.3145353455E+00  5.3113751723E+00
                      -1.8863636754E-20 -3.5594132284E-20 -7.0376148705E-22
           xangst10    2.6559213432E+00  2.6559213432E+00  2.6543990927E+00
                       7.9677640295E+00  7.9677640295E+00  7.9631972780E+00
                       5.3118426863E+00  5.3118426863E+00  2.8299389508E+00
                       5.3118426864E+00  5.3118426864E+00  7.7876574199E+00
                       8.0162380450E+00  5.3118426863E+00  5.3087981853E+00
                       5.3118426863E+00  8.0162380450E+00  5.3087981853E+00
                       5.3118426864E+00  2.6074473277E+00  5.3087981853E+00
                       2.6074473277E+00  5.3118426864E+00  5.3087981853E+00
                      -1.8854079315E-20 -3.5576098183E-20 -7.0342003420E-22
            xcart1     5.0430730666E+00  5.0430730666E+00  5.0355815125E+00
                       1.5129219200E+01  1.5129219200E+01  1.5106744537E+01
                       1.0086146133E+01  1.0086146133E+01  5.3584180788E+00
                       1.0086146133E+01  1.0086146133E+01  1.4783907971E+01
                       1.5239261213E+01  1.0086146133E+01  1.0071163025E+01
                       1.0086146133E+01  1.5239261213E+01  1.0071163025E+01
                       1.0086146133E+01  4.9330310538E+00  1.0071163025E+01
                       4.9330310538E+00  1.0086146133E+01  1.0071163025E+01
                      -4.0003670578E-20 -6.2067995121E-20 -8.7435230501E-21
            xcart2     5.0406105882E+00  5.0406105882E+00  5.0329833609E+00
                       1.5121831765E+01  1.5121831765E+01  1.5098950083E+01
                       1.0081221176E+01  1.0081221176E+01  5.3571813957E+00
                       1.0081221176E+01  1.0081221176E+01  1.4774752048E+01
                       1.5230191816E+01  1.0081221176E+01  1.0065966722E+01
                       1.0081221176E+01  1.5230191816E+01  1.0065966722E+01
                       1.0081221176E+01  4.9322505367E+00  1.0065966722E+01
                       4.9322505367E+00  1.0081221176E+01  1.0065966722E+01
                      -3.4107217585E-20 -6.7890959988E-20 -1.3000618661E-21
            xcart3     5.0379859751E+00  5.0379859751E+00  5.0307089978E+00
                       1.5113957925E+01  1.5113957925E+01  1.5092126993E+01
                       1.0075971950E+01  1.0075971950E+01  5.3560822850E+00
                       1.0075971950E+01  1.0075971950E+01  1.4766753706E+01
                       1.5220209350E+01  1.0075971950E+01  1.0061417996E+01
                       1.0075971950E+01  1.5220209350E+01  1.0061417996E+01
                       1.0075971950E+01  4.9317345500E+00  1.0061417996E+01
                       4.9317345500E+00  1.0075971950E+01  1.0061417996E+01
                      -3.7328584341E-20 -6.6531925559E-20 -2.4535918013E-21
            xcart4     5.0354920290E+00  5.0354920290E+00  5.0281736856E+00
                       1.5106476087E+01  1.5106476087E+01  1.5084521057E+01
                       1.0070984058E+01  1.0070984058E+01  5.3548526181E+00
                       1.0070984058E+01  1.0070984058E+01  1.4757842124E+01
                       1.5210817645E+01  1.0070984058E+01  1.0056347371E+01
                       1.0070984058E+01  1.5210817645E+01  1.0056347371E+01
                       1.0070984058E+01  4.9311504711E+00  1.0056347371E+01
                       4.9311504711E+00  1.0070984058E+01  1.0056347371E+01
                      -3.2965056051E-20 -7.1102055171E-20  1.3905928106E-21
            xcart5     5.0321049635E+00  5.0321049635E+00  5.0274224764E+00
                       1.5096314891E+01  1.5096314891E+01  1.5082267429E+01
                       1.0064209927E+01  1.0064209927E+01  5.3539349467E+00
                       1.0064209927E+01  1.0064209927E+01  1.4755754959E+01
                       1.5197917693E+01  1.0064209927E+01  1.0054844953E+01
                       1.0064209927E+01  1.5197917693E+01  1.0054844953E+01
                       1.0064209927E+01  4.9305021615E+00  1.0054844953E+01
                       4.9305021615E+00  1.0064209927E+01  1.0054844953E+01
                      -3.5845865606E-20 -6.7282697484E-20 -1.3812652594E-21
            xcart6     5.0292540748E+00  5.0292540748E+00  5.0256004396E+00
                       1.5087762224E+01  1.5087762224E+01  1.5076801319E+01
                       1.0058508150E+01  1.0058508150E+01  5.3527900147E+00
                       1.0058508150E+01  1.0058508150E+01  1.4749611744E+01
                       1.5187112530E+01  1.0058508150E+01  1.0051200879E+01
                       1.0058508150E+01  1.5187112530E+01  1.0051200879E+01
                       1.0058508150E+01  4.9299037698E+00  1.0051200879E+01
                       4.9299037698E+00  1.0058508150E+01  1.0051200879E+01
                      -3.5702094665E-20 -6.7366918531E-20 -1.3317922097E-21
            xcart7     5.0266336508E+00  5.0266336508E+00  5.0233178859E+00
                       1.5079900952E+01  1.5079900952E+01  1.5069953658E+01
                       1.0053267302E+01  1.0053267302E+01  5.3515012237E+00
                       1.0053267302E+01  1.0053267302E+01  1.4741770320E+01
                       1.5177297777E+01  1.0053267302E+01  1.0046635772E+01
                       1.0053267302E+01  1.5177297777E+01  1.0046635772E+01
                       1.0053267302E+01  4.9292368261E+00  1.0046635772E+01
                       4.9292368261E+00  1.0053267302E+01  1.0046635772E+01
                      -3.5632344614E-20 -6.8132951754E-20 -7.0290309037E-22
            xcart8     5.0240597650E+00  5.0240597650E+00  5.0209423278E+00
                       1.5072179295E+01  1.5072179295E+01  1.5062826983E+01
                       1.0048119530E+01  1.0048119530E+01  5.3502657816E+00
                       1.0048119530E+01  1.0048119530E+01  1.4733503530E+01
                       1.5167723822E+01  1.0048119530E+01  1.0041884656E+01
                       1.0048119530E+01  1.5167723822E+01  1.0041884656E+01
                       1.0048119530E+01  4.9285152383E+00  1.0041884656E+01
                       4.9285152383E+00  1.0048119530E+01  1.0041884656E+01
                      -3.5635176621E-20 -6.6942534493E-20 -1.6106812291E-21
            xcart9     5.0215081632E+00  5.0215081632E+00  5.0185222324E+00
                       1.5064524490E+01  1.5064524490E+01  1.5055566697E+01
                       1.0043016326E+01  1.0043016326E+01  5.3490485213E+00
                       1.0043016326E+01  1.0043016326E+01  1.4725040408E+01
                       1.5158127200E+01  1.0043016326E+01  1.0037044465E+01
                       1.0043016326E+01  1.5158127200E+01  1.0037044465E+01
                       1.0043016326E+01  4.9279054532E+00  1.0037044465E+01
                       4.9279054532E+00  1.0043016326E+01  1.0037044465E+01
                      -3.5647107335E-20 -6.7263161954E-20 -1.3299164734E-21
            xcart10    5.0189639691E+00  5.0189639691E+00  5.0160873325E+00
                       1.5056891907E+01  1.5056891907E+01  1.5048261998E+01
                       1.0037927938E+01  1.0037927938E+01  5.3478095898E+00
                       1.0037927938E+01  1.0037927938E+01  1.4716539740E+01
                       1.5148494521E+01  1.0037927938E+01  1.0032174665E+01
                       1.0037927938E+01  1.5148494521E+01  1.0032174665E+01
                       1.0037927938E+01  4.9273613552E+00  1.0032174665E+01
                       4.9273613552E+00  1.0037927938E+01  1.0032174665E+01
                      -3.5629046392E-20 -6.7229082442E-20 -1.3292712210E-21
             xred1     2.5000000000E-01  2.5000000000E-01  2.5000000000E-01
                       7.5000000000E-01  7.5000000000E-01  7.5000000000E-01
                       2.6602776986E-01  2.6602776986E-01  7.3397223014E-01
                       7.3397223014E-01  7.3397223014E-01  2.6602776986E-01
                       2.4454489300E-01  7.5545510700E-01  7.5545510700E-01
                       7.5545510700E-01  2.4454489300E-01  7.5545510700E-01
                       2.4454489300E-01  7.5545510700E-01  2.4454489300E-01
                       7.5545510700E-01  2.4454489300E-01  2.4454489300E-01
                      -1.5278806757E-21  6.5970656031E-22 -4.6259063409E-21
             xred2     2.5000000000E-01  2.5000000000E-01  2.5000000000E-01
                       7.5000000000E-01  7.5000000000E-01  7.5000000000E-01
                       2.6610367110E-01  2.6610367110E-01  7.3389632890E-01
                       7.3389632890E-01  7.3389632890E-01  2.6610367110E-01
                       2.4462564854E-01  7.5537435146E-01  7.5537435146E-01
                       7.5537435146E-01  2.4462564854E-01  7.5537435146E-01
                       2.4462564854E-01  7.5537435146E-01  2.4462564854E-01
                       7.5537435146E-01  2.4462564854E-01  2.4462564854E-01
                      -1.7401549789E-21  1.6110007802E-21 -4.9942434437E-21
             xred3     2.5000000000E-01  2.5000000000E-01  2.5000000000E-01
                       7.5000000000E-01  7.5000000000E-01  7.5000000000E-01
                       2.6616935542E-01  2.6616935542E-01  7.3383064458E-01
                       7.3383064458E-01  7.3383064458E-01  2.6616935542E-01
                       2.4472748507E-01  7.5527251493E-01  7.5527251493E-01
                       7.5527251493E-01  2.4472748507E-01  7.5527251493E-01
                       2.4472748507E-01  7.5527251493E-01  2.4472748507E-01
                       7.5527251493E-01  2.4472748507E-01  2.4472748507E-01
                      -1.5710882446E-21  1.3272268125E-21 -5.0319398194E-21
             xred4     2.5000000000E-01  2.5000000000E-01  2.5000000000E-01
                       7.5000000000E-01  7.5000000000E-01  7.5000000000E-01
                       2.6624242483E-01  2.6624242483E-01  7.3375757517E-01
                       7.3375757517E-01  7.3375757517E-01  2.6624242483E-01
                       2.4481969402E-01  7.5518030598E-01  7.5518030598E-01
                       7.5518030598E-01  2.4481969402E-01  7.5518030598E-01
                       2.4481969402E-01  7.5518030598E-01  2.4481969402E-01
                       7.5518030598E-01  2.4481969402E-01  2.4481969402E-01
                      -1.8242697106E-21  1.9625498196E-21 -5.2358204218E-21
             xred5     2.5000000000E-01  2.5000000000E-01  2.5000000000E-01
                       7.5000000000E-01  7.5000000000E-01  7.5000000000E-01
                       2.6623657410E-01  2.6623657410E-01  7.3376342590E-01
                       7.3376342590E-01  7.3376342590E-01  2.6623657410E-01
                       2.4495227133E-01  7.5504772867E-01  7.5504772867E-01
                       7.5504772867E-01  2.4495227133E-01  7.5504772867E-01
                       2.4495227133E-01  7.5504772867E-01  2.4495227133E-01
                       7.5504772867E-01  2.4495227133E-01  2.4495227133E-01
                      -1.6304997546E-21  1.4931266508E-21 -5.0548434539E-21
             xred6     2.5000000000E-01  2.5000000000E-01  2.5000000000E-01
                       7.5000000000E-01  7.5000000000E-01  7.5000000000E-01
                       2.6627614347E-01  2.6627614347E-01  7.3372385653E-01
                       7.3372385653E-01  7.3372385653E-01  2.6627614347E-01
                       2.4506137970E-01  7.5493862030E-01  7.5493862030E-01
                       7.5493862030E-01  2.4506137970E-01  7.5493862030E-01
                       2.4506137970E-01  7.5493862030E-01  2.4506137970E-01
                       7.5493862030E-01  2.4506137970E-01  2.4506137970E-01
                      -1.6402822269E-21  1.5077814217E-21 -5.0572237581E-21
             xred7     2.5000000000E-01  2.5000000000E-01  2.5000000000E-01
                       7.5000000000E-01  7.5000000000E-01  7.5000000000E-01
                       2.6633299670E-01  2.6633299670E-01  7.3366700330E-01
                       7.3366700330E-01  7.3366700330E-01  2.6633299670E-01
                       2.4515596165E-01  7.5484403835E-01  7.5484403835E-01
                       7.5484403835E-01  2.4515596165E-01  7.5484403835E-01
                       2.4515596165E-01  7.5484403835E-01  2.4515596165E-01
                       7.5484403835E-01  2.4515596165E-01  2.4515596165E-01
                      -1.6514021364E-21  1.5814381100E-21 -5.1257927506E-21
             xred8     2.5000000000E-01  2.5000000000E-01  2.5000000000E-01
                       7.5000000000E-01  7.5000000000E-01  7.5000000000E-01
                       2.6639749236E-01  2.6639749236E-01  7.3360250764E-01
                       7.3360250764E-01  7.3360250764E-01  2.6639749236E-01
                       2.4524565137E-01  7.5475434863E-01  7.5475434863E-01
                       7.5475434863E-01  2.4524565137E-01  7.5475434863E-01
                       2.4524565137E-01  7.5475434863E-01  2.4524565137E-01
                       7.5475434863E-01  2.4524565137E-01  2.4524565137E-01
                      -1.6380696434E-21  1.4776733349E-21 -5.0241256355E-21
             xred9     2.5000000000E-01  2.5000000000E-01  2.5000000000E-01
                       7.5000000000E-01  7.5000000000E-01  7.5000000000E-01
                       2.6646531955E-01  2.6646531955E-01  7.3353468045E-01
                       7.3353468045E-01  7.3353468045E-01  2.6646531955E-01
                       2.4533991049E-01  7.5466008951E-01  7.5466008951E-01
                       7.5466008951E-01  2.4533991049E-01  7.5466008951E-01
                       2.4533991049E-01  7.5466008951E-01  2.4533991049E-01
                       7.5466008951E-01  2.4533991049E-01  2.4533991049E-01
                      -1.6402822269E-21  1.5077814217E-21 -5.0572237581E-21
             xred10    2.5000000000E-01  2.5000000000E-01  2.5000000000E-01
                       7.5000000000E-01  7.5000000000E-01  7.5000000000E-01
                       2.6653291875E-01  2.6653291875E-01  7.3346708125E-01
                       7.3346708125E-01  7.3346708125E-01  2.6653291875E-01
                       2.4543717516E-01  7.5456282484E-01  7.5456282484E-01
                       7.5456282484E-01  2.4543717516E-01  7.5456282484E-01
                       2.4543717516E-01  7.5456282484E-01  2.4543717516E-01
                       7.5456282484E-01  2.4543717516E-01  2.4543717516E-01
                      -1.6402822269E-21  1.5077814217E-21 -5.0572237581E-21
            znucl       55.00000   53.00000   40.00000   35.00000

================================================================================


- Timing analysis has been suppressed with timopt=0



================================================================================

 Suggested references for the acknowledgment of ABINIT usage.

 The users of ABINIT have little formal obligations with respect to the ABINIT group
 (those specified in the GNU General Public License, http://www.gnu.org/copyleft/gpl.txt).
 However, it is common practice in the scientific literature,
 to acknowledge the efforts of people that have made the research possible.
 In this spirit, please find below suggested citations of work written by ABINIT developers,
 corresponding to implementations inside of ABINIT that you have used in the present run.
 Note also that it will be of great value to readers of publications presenting these results,
 to read papers enabling them to understand the theoretical formalism and details
 of the ABINIT implementation.
 For information on why they are suggested, see also https://docs.abinit.org/theory/acknowledgments.
-
- [1] Implementation of the Projector Augmented-Wave Method in the ABINIT code.
- M. Torrent, F. Jollet, F. Bottin, G. Zerah, and X. Gonze Comput. Mat. Science 42, 337, (2008).
- Comment: PAW calculations. Strong suggestion to cite this paper.
- DOI and bibtex: see https://docs.abinit.org/theory/bibliography/#torrent2008
-
- [2] Libxc: A library of exchange and correlation functionals for density functional theory.
- M.A.L. Marques, M.J.T. Oliveira, T. Burnus, Computer Physics Communications 183, 2227 (2012).
- Comment: to be cited when LibXC is used (negative value of ixc)
- Strong suggestion to cite this paper.
- DOI and bibtex: see https://docs.abinit.org/theory/bibliography/#marques2012
-
- [3] The Abinit project: Impact, environment and recent developments.
- Computer Phys. Comm. 248, 107042 (2020).
- X.Gonze, B. Amadon, G. Antonius, F.Arnardi, L.Baguet, J.-M.Beuken,
- J.Bieder, F.Bottin, J.Bouchet, E.Bousquet, N.Brouwer, F.Bruneval,
- G.Brunin, T.Cavignac, J.-B. Charraud, Wei Chen, M.Cote, S.Cottenier,
- J.Denier, G.Geneste, Ph.Ghosez, M.Giantomassi, Y.Gillet, O.Gingras,
- D.R.Hamann, G.Hautier, Xu He, N.Helbig, N.Holzwarth, Y.Jia, F.Jollet,
- W.Lafargue-Dit-Hauret, K.Lejaeghere, M.A.L.Marques, A.Martin, C.Martins,
- H.P.C. Miranda, F.Naccarato, K. Persson, G.Petretto, V.Planes, Y.Pouillon,
- S.Prokhorenko, F.Ricci, G.-M.Rignanese, A.H.Romero, M.M.Schmitt, M.Torrent,
- M.J.van Setten, B.Van Troeye, M.J.Verstraete, G.Zerah and J.W.Zwanzig
- Comment: the fifth generic paper describing the ABINIT project.
- Note that a version of this paper, that is not formatted for Computer Phys. Comm. 
- is available at https://www.abinit.org/sites/default/files/ABINIT20.pdf .
- The licence allows the authors to put it on the Web.
- DOI and bibtex: see https://docs.abinit.org/theory/bibliography/#gonze2020
-
- [4] ABINIT: Overview, and focus on selected capabilities
- J. Chem. Phys. 152, 124102 (2020).
- A. Romero, D.C. Allan, B. Amadon, G. Antonius, T. Applencourt, L.Baguet,
- J.Bieder, F.Bottin, J.Bouchet, E.Bousquet, F.Bruneval,
- G.Brunin, D.Caliste, M.Cote,
- J.Denier, C. Dreyer, Ph.Ghosez, M.Giantomassi, Y.Gillet, O.Gingras,
- D.R.Hamann, G.Hautier, F.Jollet, G. Jomard,
- A.Martin, 
- H.P.C. Miranda, F.Naccarato, G.Petretto, N.A. Pike, V.Planes,
- S.Prokhorenko, T. Rangel, F.Ricci, G.-M.Rignanese, M.Royo, M.Stengel, M.Torrent,
- M.J.van Setten, B.Van Troeye, M.J.Verstraete, J.Wiktor, J.W.Zwanziger, and X.Gonze.
- Comment: a global overview of ABINIT, with focus on selected capabilities .
- Note that a version of this paper, that is not formatted for J. Chem. Phys 
- is available at https://www.abinit.org/sites/default/files/ABINIT20_JPC.pdf .
- The licence allows the authors to put it on the Web.
- DOI and bibtex: see https://docs.abinit.org/theory/bibliography/#romero2020
-
- [5] Recent developments in the ABINIT software package.
- Computer Phys. Comm. 205, 106 (2016).
- X.Gonze, F.Jollet, F.Abreu Araujo, D.Adams, B.Amadon, T.Applencourt,
- C.Audouze, J.-M.Beuken, J.Bieder, A.Bokhanchuk, E.Bousquet, F.Bruneval
- D.Caliste, M.Cote, F.Dahm, F.Da Pieve, M.Delaveau, M.Di Gennaro,
- B.Dorado, C.Espejo, G.Geneste, L.Genovese, A.Gerossier, M.Giantomassi,
- Y.Gillet, D.R.Hamann, L.He, G.Jomard, J.Laflamme Janssen, S.Le Roux,
- A.Levitt, A.Lherbier, F.Liu, I.Lukacevic, A.Martin, C.Martins,
- M.J.T.Oliveira, S.Ponce, Y.Pouillon, T.Rangel, G.-M.Rignanese,
- A.H.Romero, B.Rousseau, O.Rubel, A.A.Shukri, M.Stankovski, M.Torrent,
- M.J.Van Setten, B.Van Troeye, M.J.Verstraete, D.Waroquier, J.Wiktor,
- B.Xu, A.Zhou, J.W.Zwanziger.
- Comment: the fourth generic paper describing the ABINIT project.
- Note that a version of this paper, that is not formatted for Computer Phys. Comm. 
- is available at https://www.abinit.org/sites/default/files/ABINIT16.pdf .
- The licence allows the authors to put it on the Web.
- DOI and bibtex: see https://docs.abinit.org/theory/bibliography/#gonze2016
-
- Proc.   0 individual time (sec): cpu=       6073.3  wall=       6073.6

================================================================================

 Calculation completed.
.Delivered   0 WARNINGs and  20 COMMENTs to log file.
+Overall time at end (sec) : cpu=      36440.5  wall=      36441.3
