
.Version 9.2.2 of ABINIT 
.(MPI version, prepared for a x86_64_linux_gnu9.3 computer) 

.Copyright (C) 1998-2020 ABINIT group . 
 ABINIT comes with ABSOLUTELY NO WARRANTY.
 It is free software, and you are welcome to redistribute it
 under certain conditions (GNU General Public License,
 see ~abinit/COPYING or http://www.gnu.org/copyleft/gpl.txt).

 ABINIT is a project of the Universite Catholique de Louvain,
 Corning Inc. and other collaborators, see ~abinit/doc/developers/contributors.txt .
 Please read https://docs.abinit.org/theory/acknowledgments for suggested
 acknowledgments of the ABINIT effort.
 For more information, see https://www.abinit.org .

.Starting date : Sun  2 Oct 2022.
- ( at 10h01 )
  
- input  file    -> Cs2TiI6.in
- output file    -> Cs2TiI6.out
- root for input  files -> Cs2TiI6i
- root for output files -> Cs2TiI6o

- inpspheads : Reading pseudopotential header in XML form from 
-   ../../../Psps_for_tests/ATOMICDATA/Cs.GGA_PBE-JTH.xml
- inpspheads : Reading pseudopotential header in XML form from 
-   ../../../Psps_for_tests/ATOMICDATA/I.GGA_PBE-JTH.xml
- inpspheads : Reading pseudopotential header in XML form from 
-   ../../../Psps_for_tests/ATOMICDATA/Hf.GGA_PBE-JTH.xml
- inpspheads : Reading pseudopotential header in XML form from 
-   ../../../Psps_for_tests/ATOMICDATA/Br.GGA_PBE-JTH.xml

 Symmetries : space group Fm m 2 (# 42); Bravais oF (face-center ortho.)
================================================================================
 Values of the parameters that define the memory need of the present run
     intxc =       0    ionmov =       0      iscf =      17    lmnmax =      18
     lnmax =       6     mgfft =      60  mpssoang =       3    mqgrid =    3627
     natom =       9  nloc_mem =       2    nspden =       1   nspinor =       1
    nsppol =       1      nsym =       4    n1xccc =       1    ntypat =       4
    occopt =       1   xclevel =       2
-    mband =          42        mffmem =           1         mkmem =          47
       mpw =        8243          nfft =      216000          nkpt =         280
Pmy_natom=         2
 PAW method is used; the additional fine FFT grid is defined by:
   mgfftf=        90    nfftf =    729000
================================================================================
P This job should need less than                     490.013 Mbytes of memory.
  Rough estimation (10% accuracy) of disk space for files :
_ WF disk file :   1479.154 Mbytes ; DEN or POT disk file :      5.564 Mbytes.
================================================================================

--------------------------------------------------------------------------------
------------- Echo of variables that govern the present computation ------------
--------------------------------------------------------------------------------
-
- outvars: echo of selected default values                                      
-   iomode0 =  0 , fftalg0 =112 , wfoptalg0 = 10
-
- outvars: echo of global parameters not present in the input file              
-  max_nthreads =    0
-
 -outvars: echo values of preprocessed input variables --------
            acell      1.5546298368E+01  1.5720170163E+01  1.5547594142E+01 Bohr
              amu      1.32905430E+02  1.26904470E+02  1.78490000E+02
                       7.99040000E+01
           diemac      1.20000000E+01
             ecut      1.60000000E+01 Hartree
-          fftalg         112
           istwfk        2    0    0    0    0    0    3    0    0    0
                         0    0    0    0    0    0    0    0    0    0
                         0    0    0    0    0    0    0    0    0    0
                         0    0    0    0    0    0    0    0    0    0
                         0    0    7    0    0    0    0    0    0    0
                       outvar_i_n : Printing only first  50 k-points.
              ixc     -101130
              kpt      0.00000000E+00  0.00000000E+00  0.00000000E+00
                       8.33333333E-02  0.00000000E+00  0.00000000E+00
                       1.66666667E-01  0.00000000E+00  0.00000000E+00
                       2.50000000E-01  0.00000000E+00  0.00000000E+00
                       3.33333333E-01  0.00000000E+00  0.00000000E+00
                       4.16666667E-01  0.00000000E+00  0.00000000E+00
                       5.00000000E-01  0.00000000E+00  0.00000000E+00
                       8.33333333E-02  8.33333333E-02  0.00000000E+00
                       1.66666667E-01  8.33333333E-02  0.00000000E+00
                       2.50000000E-01  8.33333333E-02  0.00000000E+00
                       3.33333333E-01  8.33333333E-02  0.00000000E+00
                       4.16666667E-01  8.33333333E-02  0.00000000E+00
                       5.00000000E-01  8.33333333E-02  0.00000000E+00
                      -4.16666667E-01  8.33333333E-02  0.00000000E+00
                      -3.33333333E-01  8.33333333E-02  0.00000000E+00
                      -2.50000000E-01  8.33333333E-02  0.00000000E+00
                      -1.66666667E-01  8.33333333E-02  0.00000000E+00
                      -8.33333333E-02  8.33333333E-02  0.00000000E+00
                       1.66666667E-01  1.66666667E-01  0.00000000E+00
                       2.50000000E-01  1.66666667E-01  0.00000000E+00
                       3.33333333E-01  1.66666667E-01  0.00000000E+00
                       4.16666667E-01  1.66666667E-01  0.00000000E+00
                       5.00000000E-01  1.66666667E-01  0.00000000E+00
                      -4.16666667E-01  1.66666667E-01  0.00000000E+00
                      -3.33333333E-01  1.66666667E-01  0.00000000E+00
                      -2.50000000E-01  1.66666667E-01  0.00000000E+00
                      -1.66666667E-01  1.66666667E-01  0.00000000E+00
                       2.50000000E-01  2.50000000E-01  0.00000000E+00
                       3.33333333E-01  2.50000000E-01  0.00000000E+00
                       4.16666667E-01  2.50000000E-01  0.00000000E+00
                       5.00000000E-01  2.50000000E-01  0.00000000E+00
                      -4.16666667E-01  2.50000000E-01  0.00000000E+00
                      -3.33333333E-01  2.50000000E-01  0.00000000E+00
                      -2.50000000E-01  2.50000000E-01  0.00000000E+00
                       3.33333333E-01  3.33333333E-01  0.00000000E+00
                       4.16666667E-01  3.33333333E-01  0.00000000E+00
                       5.00000000E-01  3.33333333E-01  0.00000000E+00
                      -4.16666667E-01  3.33333333E-01  0.00000000E+00
                      -3.33333333E-01  3.33333333E-01  0.00000000E+00
                       4.16666667E-01  4.16666667E-01  0.00000000E+00
                       5.00000000E-01  4.16666667E-01  0.00000000E+00
                      -4.16666667E-01  4.16666667E-01  0.00000000E+00
                       5.00000000E-01  5.00000000E-01  0.00000000E+00
                       8.33333333E-02  0.00000000E+00  8.33333333E-02
                       1.66666667E-01  0.00000000E+00  8.33333333E-02
                       2.50000000E-01  0.00000000E+00  8.33333333E-02
                       3.33333333E-01  0.00000000E+00  8.33333333E-02
                       4.16666667E-01  0.00000000E+00  8.33333333E-02
                       5.00000000E-01  0.00000000E+00  8.33333333E-02
                      -4.16666667E-01  0.00000000E+00  8.33333333E-02
                       outvar_i_n : Printing only first  50 k-points.
         kptrlatt       12    0    0      0   12    0      0    0   12
          kptrlen      1.86555580E+02
P           mkmem          47
            natom           9
            nband          42
            ngfft          60      60      60
          ngfftdg          90      90      90
             nkpt         280
            nstep        2500
             nsym           4
           ntypat           4
              occ      2.000000  2.000000  2.000000  2.000000  2.000000  2.000000
                       2.000000  2.000000  2.000000  2.000000  2.000000  2.000000
                       2.000000  2.000000  2.000000  2.000000  2.000000  2.000000
                       2.000000  2.000000  2.000000  2.000000  2.000000  2.000000
                       2.000000  2.000000  2.000000  2.000000  2.000000  2.000000
                       2.000000  2.000000  2.000000  2.000000  2.000000  2.000000
                       0.000000  0.000000  0.000000  0.000000  0.000000  0.000000
        pawecutdg      4.00000000E+01 Hartree
            prtwf           0
            rprim      0.0000000000E+00  6.9916856495E-01  7.1495686428E-01
                       7.0716442159E-01  0.0000000000E+00  7.0704913608E-01
                       7.1501384324E-01  6.9911029457E-01  0.0000000000E+00
          spgroup          42
           symrel      1  0  0   0  1  0   0  0  1       1  0  0   1  0 -1   1 -1  0
                       0  1 -1   1  0 -1   0  0 -1       0  1 -1   0  1  0  -1  1  0
           toldfe      1.00000000E-08 Hartree
            typat      1  1  4  4  2  4  2  2  3
           useylm           1
              wtk        0.00058    0.00463    0.00463    0.00463    0.00463    0.00463
                         0.00231    0.00116    0.00463    0.00463    0.00463    0.00463
                         0.00463    0.00463    0.00463    0.00463    0.00463    0.00231
                         0.00116    0.00463    0.00463    0.00463    0.00463    0.00463
                         0.00463    0.00463    0.00231    0.00116    0.00463    0.00463
                         0.00463    0.00463    0.00463    0.00231    0.00116    0.00463
                         0.00463    0.00463    0.00231    0.00116    0.00463    0.00231
                         0.00058    0.00116    0.00463    0.00463    0.00463    0.00463
                         0.00463    0.00463
                       outvars : Printing only first  50 k-points.
           xangst      2.9413640546E+00  2.8759413682E+00  2.9501663699E+00
                       8.8240921638E+00  8.6278241047E+00  8.8319354470E+00
                       5.8827281092E+00  8.8948158823E+00  5.9102604073E+00
                       5.8827281092E+00  5.7518827365E+00  2.6703804346E+00
                       5.8827281092E+00  5.7518827364E+00  8.9344583670E+00
                       5.8827281092E+00  2.6089495905E+00  5.9102604074E+00
                       8.8830902250E+00  5.7518827365E+00  5.8925283404E+00
                       2.8823659934E+00  5.7518827364E+00  5.8925283403E+00
                       1.9807351140E-14 -6.3586985244E-13  6.1634502656E-02
            xcart      5.5583725203E+00  5.4347415602E+00  5.5750064855E+00
                       1.6675117561E+01  1.6304224681E+01  1.6689939218E+01
                       1.1116745041E+01  1.6808766020E+01  1.1168773544E+01
                       1.1116745041E+01  1.0869483120E+01  5.0462876920E+00
                       1.1116745041E+01  1.0869483120E+01  1.6883679459E+01
                       1.1116745041E+01  4.9302002206E+00  1.1168773544E+01
                       1.6786607739E+01  1.0869483120E+01  1.1135264794E+01
                       5.4468823423E+00  1.0869483120E+01  1.1135264793E+01
                       3.7430469072E-14 -1.2016198773E-12  1.1647233036E-01
             xred      2.5078903398E-01  2.5078903398E-01  2.4921096602E-01
                       7.5078903398E-01  7.5078903398E-01  7.4921096602E-01
                       7.7563108039E-01  2.2921292656E-01  7.7078707344E-01
                       2.2700486874E-01  2.2700486874E-01  7.7299513126E-01
                       7.5950434724E-01  7.5950434724E-01  2.4049565276E-01
                       2.2921292656E-01  7.7563108039E-01  2.2436891961E-01
                       2.4590011278E-01  7.5592914354E-01  7.5409988722E-01
                       7.5592914354E-01  2.4590011278E-01  2.4407085646E-01
                       5.2394527776E-03  5.2394527776E-03 -5.2394527776E-03
            znucl       55.00000   53.00000   72.00000   35.00000

================================================================================

 chkinp: Checking input parameters for consistency.

================================================================================
== DATASET  1 ==================================================================
-   mpi_nproc: 6, omp_nthreads: -1 (-1 if OMP is not activated)


--- !DatasetInfo
iteration_state: {dtset: 1, }
dimensions: {natom: 9, nkpt: 280, mband: 42, nsppol: 1, nspinor: 1, nspden: 1, mpw: 8243, }
cutoff_energies: {ecut:  16.0, pawecutdg:  40.0, }
electrons: {nelect:   7.20000000E+01, charge:   0.00000000E+00, occopt:   1.00000000E+00, tsmear:   1.00000000E-02, }
meta: {optdriver: 0, ionmov: 0, optcell: 0, iscf: 17, paral_kgb: 0, }
...

 Real(R)+Recip(G) space primitive vectors, cartesian coordinates (Bohr,Bohr^-1):
 R(1)=  0.0000000 10.8694831 11.1149327  G(1)= -0.0449772  0.0460003  0.0449845
 R(2)= 11.1167450  0.0000000 11.1149327  G(2)=  0.0449772 -0.0460003  0.0449845
 R(3)= 11.1167450 10.8694831  0.0000000  G(3)=  0.0449772  0.0460003 -0.0449845
 Unit cell volume ucvol=  2.6861074E+03 bohr^3
 Angles (23,13,12)=  5.96266618E+01  6.07385270E+01  5.96348112E+01 degrees

 Coarse grid specifications (used for wave-functions):

 getcut: wavevector=  0.0000  0.0000  0.0000  ngfft=  60  60  60
         ecut(hartree)=     16.000   => boxcut(ratio)=   2.11967

 Fine grid specifications (used for densities):

 getcut: wavevector=  0.0000  0.0000  0.0000  ngfft=  90  90  90
         ecut(hartree)=     40.000   => boxcut(ratio)=   2.01116

--- Pseudopotential description ------------------------------------------------
- pspini: atom type   1  psp file is ../../../Psps_for_tests/ATOMICDATA/Cs.GGA_PBE-JTH.xml
- pspatm: opening atomic psp file    ../../../Psps_for_tests/ATOMICDATA/Cs.GGA_PBE-JTH.xml
- pspatm : Reading pseudopotential header in XML form from ../../../Psps_for_tests/ATOMICDATA/Cs.GGA_PBE-JTH.xml
 Pseudopotential format is: paw10
 basis_size (lnmax)=  6 (lmn_size= 18), orbitals=   0   0   1   1   2   2
 Spheres core radius: rc_sph= 2.20660278
 1 radial meshes are used:
  - mesh 1: r(i)=AA*[exp(BB*(i-1))-1], size=1500 , AA= 0.15922E-03 BB= 0.87573E-02
 Shapefunction is SIN type: shapef(r)=[sin(pi*r/rshp)/(pi*r/rshp)]**2
 Radius for shape functions =  2.00394208
 mmax= 1500
 Radial grid used for partial waves is grid 1
 Radial grid used for projectors is grid 1
 Radial grid used for (t)core density is grid 1
 Radial grid used for Vloc is grid 1
 Radial grid used for pseudo valence density is grid 1
 Mesh size for Vloc has been set to 1341 to avoid numerical noise.
 Compensation charge density is not taken into account in XC energy/potential
 pspatm: atomic psp has been read  and splines computed

- pspini: atom type   2  psp file is ../../../Psps_for_tests/ATOMICDATA/I.GGA_PBE-JTH.xml
- pspatm: opening atomic psp file    ../../../Psps_for_tests/ATOMICDATA/I.GGA_PBE-JTH.xml
- pspatm : Reading pseudopotential header in XML form from ../../../Psps_for_tests/ATOMICDATA/I.GGA_PBE-JTH.xml
 Pseudopotential format is: paw10
 basis_size (lnmax)=  4 (lmn_size=  8), orbitals=   0   0   1   1
 Spheres core radius: rc_sph= 2.30022271
 1 radial meshes are used:
  - mesh 1: r(i)=AA*[exp(BB*(i-1))-1], size=2000 , AA= 0.12610E-03 BB= 0.66836E-02
 Shapefunction is SIN type: shapef(r)=[sin(pi*r/rshp)/(pi*r/rshp)]**2
 Radius for shape functions =  2.10879093
 mmax= 2000
 Radial grid used for partial waves is grid 1
 Radial grid used for projectors is grid 1
 Radial grid used for (t)core density is grid 1
 Radial grid used for Vloc is grid 1
 Radial grid used for pseudo valence density is grid 1
 Mesh size for Vloc has been set to 1792 to avoid numerical noise.
 Compensation charge density is not taken into account in XC energy/potential
 pspatm: atomic psp has been read  and splines computed

- pspini: atom type   3  psp file is ../../../Psps_for_tests/ATOMICDATA/Hf.GGA_PBE-JTH.xml
- pspatm: opening atomic psp file    ../../../Psps_for_tests/ATOMICDATA/Hf.GGA_PBE-JTH.xml
- pspatm : Reading pseudopotential header in XML form from ../../../Psps_for_tests/ATOMICDATA/Hf.GGA_PBE-JTH.xml
 Pseudopotential format is: paw10
 basis_size (lnmax)=  6 (lmn_size= 18), orbitals=   0   0   1   1   2   2
 Spheres core radius: rc_sph= 2.41000000
 1 radial meshes are used:
  - mesh 1: r(i)=AA*[exp(BB*(i-1))-1], size= 972 , AA= 0.19796E-03 BB= 0.14253E-01
 Shapefunction is SIN type: shapef(r)=[sin(pi*r/rshp)/(pi*r/rshp)]**2
 Radius for shape functions =  2.41000000
 mmax=  972
 Radial grid used for partial waves is grid 1
 Radial grid used for projectors is grid 1
 Radial grid used for (t)core density is grid 1
 Radial grid used for Vloc is grid 1
 Radial grid used for pseudo valence density is grid 1
 Mesh size for Vloc has been set to  809 to avoid numerical noise.
 Compensation charge density is not taken into account in XC energy/potential
 pspatm: atomic psp has been read  and splines computed

- pspini: atom type   4  psp file is ../../../Psps_for_tests/ATOMICDATA/Br.GGA_PBE-JTH.xml
- pspatm: opening atomic psp file    ../../../Psps_for_tests/ATOMICDATA/Br.GGA_PBE-JTH.xml
- pspatm : Reading pseudopotential header in XML form from ../../../Psps_for_tests/ATOMICDATA/Br.GGA_PBE-JTH.xml
 Pseudopotential format is: paw10
 basis_size (lnmax)=  4 (lmn_size=  8), orbitals=   0   0   1   1
 Spheres core radius: rc_sph= 2.20000000
 1 radial meshes are used:
  - mesh 1: r(i)=AA*[exp(BB*(i-1))-1], size= 927 , AA= 0.40483E-03 BB= 0.14169E-01
 Shapefunction is BESSEL type: shapef(r,l)=aa(1,l)*jl(q(1,l)*r)+aa(2,l)*jl(q(2,l)*r)
 Radius for shape functions =  2.02066386
 mmax=  927
 Radial grid used for partial waves is grid 1
 Radial grid used for projectors is grid 1
 Radial grid used for (t)core density is grid 1
 Radial grid used for Vloc is grid 1
 Radial grid used for pseudo valence density is grid 1
 Mesh size for Vloc has been set to  763 to avoid numerical noise.
 Compensation charge density is not taken into account in XC energy/potential
 pspatm: atomic psp has been read  and splines computed

   3.85741523E+04                                ecore*ucvol(ha*bohr**3)
--------------------------------------------------------------------------------

_setup2: Arith. and geom. avg. npw (full set) are    8210.564    8210.554

================================================================================

--- !BeginCycle
iteration_state: {dtset: 1, }
solver: {iscf: 17, nstep: 2500, nline: 4, wfoptalg: 10, }
tolerances: {toldfe: 1.00E-08, }
...

     iter   Etot(hartree)      deltaE(h)  residm     nres2
 ETOT  1  -165.85229054300    -1.659E+02 1.095E+01 5.356E+00
 ETOT  2  -167.23419811977    -1.382E+00 2.541E-02 1.726E+00
 ETOT  3  -167.22666437813     7.534E-03 1.957E-02 3.311E-01
 ETOT  4  -167.22736927252    -7.049E-04 5.598E-03 8.833E-02
 ETOT  5  -167.22726113453     1.081E-04 3.892E-03 8.154E-03
 ETOT  6  -167.22733313898    -7.200E-05 3.364E-03 1.359E-03
 ETOT  7  -167.22734732914    -1.419E-05 2.264E-03 3.328E-04
 ETOT  8  -167.22734969677    -2.368E-06 2.263E-03 3.982E-05
 ETOT  9  -167.22735023278    -5.360E-07 1.204E-03 1.623E-05
 ETOT 10  -167.22735018941     4.338E-08 1.213E-03 1.487E-06
 ETOT 11  -167.22735021735    -2.794E-08 5.785E-04 1.656E-06
 ETOT 12  -167.22735020989     7.455E-09 1.143E-03 3.332E-07
 ETOT 13  -167.22735021096    -1.072E-09 9.257E-04 9.412E-08

 At SCF step   13, etot is converged : 
  for the second time, diff in etot=  1.072E-09 < toldfe=  1.000E-08

 Cartesian components of stress tensor (hartree/bohr^3)
  sigma(1 1)=  3.67860457E-06  sigma(3 2)=  1.61796865E-13
  sigma(2 2)=  3.61911836E-06  sigma(3 1)= -1.05952427E-13
  sigma(3 3)=  3.61490385E-06  sigma(2 1)= -5.34258318E-14


--- !ResultsGS
iteration_state: {dtset: 1, }
comment   : Summary of ground state results
lattice_vectors:
- [  0.0000000,  10.8694831,  11.1149327, ]
- [ 11.1167450,   0.0000000,  11.1149327, ]
- [ 11.1167450,  10.8694831,   0.0000000, ]
lattice_lengths: [  15.54630,   15.72017,   15.54759, ]
lattice_angles: [ 59.627,  60.739,  59.635, ] # degrees, (23, 13, 12)
lattice_volume:   2.6861074E+03
convergence: {deltae: -1.072E-09, res2:  9.412E-08, residm:  9.257E-04, diffor: null, }
etotal    :  -1.67227350E+02
entropy   :   0.00000000E+00
fermie    :  -1.04402124E-01
cartesian_stress_tensor: # hartree/bohr^3
- [  3.67860457E-06,  -5.34258318E-14,  -1.05952427E-13, ]
- [ -5.34258318E-14,   3.61911836E-06,   1.61796865E-13, ]
- [ -1.05952427E-13,   1.61796865E-13,   3.61490385E-06, ]
pressure_GPa:  -1.0702E-01
xred      :
- [  2.5079E-01,   2.5079E-01,   2.4921E-01, Cs]
- [  7.5079E-01,   7.5079E-01,   7.4921E-01, Cs]
- [  7.7563E-01,   2.2921E-01,   7.7079E-01, Br]
- [  2.2700E-01,   2.2700E-01,   7.7300E-01, Br]
- [  7.5950E-01,   7.5950E-01,   2.4050E-01,  I]
- [  2.2921E-01,   7.7563E-01,   2.2437E-01, Br]
- [  2.4590E-01,   7.5593E-01,   7.5410E-01,  I]
- [  7.5593E-01,   2.4590E-01,   2.4407E-01,  I]
- [  5.2395E-03,   5.2395E-03,  -5.2395E-03, Hf]
cartesian_forces: # hartree/bohr
- [ -1.10571660E-16,   1.13087171E-16,   5.67520667E-06, ]
- [ -1.10570813E-16,   1.13086324E-16,   5.67520667E-06, ]
- [  6.19382673E-17,   3.48792114E-06,  -5.02569481E-06, ]
- [  7.38560802E-18,  -7.55361067E-18,  -3.79088426E-07, ]
- [  3.59321082E-16,  -3.67494321E-16,  -1.84425835E-05, ]
- [  1.33894673E-16,  -3.48792114E-06,  -5.02569481E-06, ]
- [ -1.11852500E-06,   3.00118310E-16,   1.50797215E-05, ]
- [  1.11852499E-06,   3.00850657E-16,   1.50797215E-05, ]
- [  2.46206504E-16,  -2.51806661E-16,  -1.26367947E-05, ]
force_length_stats: {min:   3.79088426E-07, max:   1.84425835E-05, mean:   9.47623067E-06, }
...

 Integrated electronic density in atomic spheres:
 ------------------------------------------------
 Atom  Sphere_radius  Integrated_density
    1        2.20660          5.35680610
    2        2.20660          5.35680610
    3        2.20000          4.92988300
    4        2.20000          4.92452475
    5        2.30022          4.01027467
    6        2.20000          4.92988300
    7        2.30022          4.01726714
    8        2.30022          4.01726714
    9        2.41000          9.26609256

 PAW TEST:
 ==== Compensation charge inside spheres ============
 The following values must be close to each other ...
 Compensation charge over spherical meshes =     -0.426709861539223
 Compensation charge over fine fft grid    =     -0.426727995686346

 ==== Results concerning PAW augmentation regions ====

 Total pseudopotential strength Dij (hartree):
 Atom #  1
   0.44486  -0.14728   0.00000   0.00000   0.00000   0.00000  -0.00001   0.00000   0.00000   0.00000  -0.00000   0.00000 ...
  -0.14728   0.04442   0.00000  -0.00000   0.00000   0.00000   0.00000   0.00000  -0.00000   0.00000   0.00000   0.00000 ...
   0.00000   0.00000  -0.09415   0.00000   0.00000  -0.16620   0.00000  -0.00000   0.00000   0.00000   0.00000   0.00000 ...
   0.00000  -0.00000   0.00000  -0.09415   0.00000   0.00000  -0.16620   0.00000   0.00000   0.00000   0.00000   0.00000 ...
   0.00000   0.00000   0.00000   0.00000  -0.09415  -0.00000   0.00000  -0.16621   0.00000   0.00000   0.00000   0.00000 ...
   0.00000   0.00000  -0.16620   0.00000  -0.00000   0.40537   0.00000   0.00001   0.00000  -0.00000   0.00000   0.00000 ...
  -0.00001   0.00000   0.00000  -0.16620   0.00000   0.00000   0.40538   0.00000   0.00000   0.00000  -0.00000   0.00000 ...
   0.00000   0.00000  -0.00000   0.00000  -0.16621   0.00001   0.00000   0.40539   0.00000   0.00000   0.00000  -0.00000 ...
   0.00000  -0.00000   0.00000   0.00000   0.00000   0.00000   0.00000   0.00000   0.00514   0.00000  -0.00000   0.00000 ...
   0.00000   0.00000   0.00000   0.00000   0.00000  -0.00000   0.00000   0.00000   0.00000   0.00514   0.00000   0.00000 ...
  -0.00000   0.00000   0.00000   0.00000   0.00000   0.00000  -0.00000   0.00000  -0.00000   0.00000   0.00514   0.00000 ...
   0.00000   0.00000   0.00000   0.00000   0.00000   0.00000   0.00000  -0.00000   0.00000   0.00000   0.00000   0.00514 ...
   ...  only 12  components have been written...
 Atom #  9
  -3.52503   0.43063   0.00000   0.00016   0.00000   0.00000  -0.00003   0.00000   0.00000   0.00000  -0.00003   0.00000 ...
   0.43063   0.00236   0.00000  -0.00001   0.00000   0.00000   0.00000   0.00000   0.00000   0.00000   0.00000   0.00000 ...
   0.00000   0.00000  -1.46626   0.00000   0.00000   0.12548   0.00000   0.00000   0.00000   0.00008   0.00000   0.00000 ...
   0.00016  -0.00001   0.00000  -1.46679   0.00000   0.00000   0.12557   0.00000   0.00000   0.00000   0.00008   0.00000 ...
   0.00000   0.00000   0.00000   0.00000  -1.46711   0.00000   0.00000   0.12563   0.00000   0.00000   0.00000   0.00008 ...
   0.00000   0.00000   0.12548   0.00000   0.00000   0.01304   0.00000   0.00000   0.00000  -0.00001   0.00000   0.00000 ...
  -0.00003   0.00000   0.00000   0.12557   0.00000   0.00000   0.01302   0.00000   0.00000   0.00000  -0.00001   0.00000 ...
   0.00000   0.00000   0.00000   0.00000   0.12563   0.00000   0.00000   0.01301   0.00000   0.00000   0.00000  -0.00001 ...
   0.00000   0.00000   0.00000   0.00000   0.00000   0.00000   0.00000   0.00000  -0.39607   0.00000   0.00000   0.00000 ...
   0.00000   0.00000   0.00008   0.00000   0.00000  -0.00001   0.00000   0.00000   0.00000  -0.39601   0.00000   0.00000 ...
  -0.00003   0.00000   0.00000   0.00008   0.00000   0.00000  -0.00001   0.00000   0.00000   0.00000  -0.39541   0.00000 ...
   0.00000   0.00000   0.00000   0.00000   0.00008   0.00000   0.00000  -0.00001   0.00000   0.00000   0.00000  -0.39617 ...
   ...  only 12  components have been written...


 Augmentation waves occupancies Rhoij:
 Atom #  1
   1.99693  -0.01654   0.00000   0.00001   0.00000   0.00000   0.00002   0.00000   0.00238   0.00000  -0.00023   0.00000 ...
  -0.01654   0.11893   0.00000   0.00169   0.00000   0.00000  -0.00005   0.00000  -0.01270   0.00000   0.00031   0.00000 ...
   0.00000   0.00000   2.00967   0.00000  -0.00154  -0.00514   0.00000   0.00023   0.00000   0.00099   0.00000   0.00091 ...
   0.00001   0.00169   0.00000   2.00900   0.00000   0.00000  -0.00501   0.00000   0.00078   0.00000   0.00037   0.00000 ...
   0.00000   0.00000  -0.00154   0.00000   2.00760   0.00023   0.00000  -0.00479   0.00000   0.00071   0.00000   0.00158 ...
   0.00000   0.00000  -0.00514   0.00000   0.00023   0.00009   0.00000  -0.00001   0.00000  -0.00002   0.00000  -0.00004 ...
   0.00002  -0.00005   0.00000  -0.00501   0.00000   0.00000   0.00008   0.00000  -0.00004   0.00000   0.00000   0.00000 ...
   0.00000   0.00000   0.00023   0.00000  -0.00479  -0.00001   0.00000   0.00007   0.00000  -0.00003   0.00000  -0.00005 ...
   0.00238  -0.01270   0.00000   0.00078   0.00000   0.00000  -0.00004   0.00000   0.03598   0.00000   0.00831   0.00000 ...
   0.00000   0.00000   0.00099   0.00000   0.00071  -0.00002   0.00000  -0.00003   0.00000   0.04786   0.00000  -0.00011 ...
  -0.00023   0.00031   0.00000   0.00037   0.00000   0.00000   0.00000   0.00000   0.00831   0.00000   0.02352   0.00000 ...
   0.00000   0.00000   0.00091   0.00000   0.00158  -0.00004   0.00000  -0.00005   0.00000  -0.00011   0.00000   0.02141 ...
   ...  only 12  components have been written...
 Atom #  9
   1.99779  -0.02215   0.00000  -0.00004   0.00000   0.00000  -0.00030   0.00000   0.00000   0.00000  -0.00028   0.00000 ...
  -0.02215   0.99935   0.00000  -0.00154   0.00000   0.00000   0.03128   0.00000   0.00000   0.00000  -0.00298   0.00000 ...
   0.00000   0.00000   1.99181   0.00000   0.00000  -0.07116   0.00000   0.00000   0.00000   0.00077   0.00000   0.00000 ...
  -0.00004  -0.00154   0.00000   1.99201   0.00000   0.00000  -0.06850   0.00000   0.00000   0.00000   0.00092   0.00000 ...
   0.00000   0.00000   0.00000   0.00000   1.99216   0.00000   0.00000  -0.06624   0.00000   0.00000   0.00000   0.00085 ...
   0.00000   0.00000  -0.07116   0.00000   0.00000   1.34489   0.00000   0.00000   0.00000  -0.01518   0.00000   0.00000 ...
  -0.00030   0.03128   0.00000  -0.06850   0.00000   0.00000   1.22027   0.00000   0.00000   0.00000   0.10718   0.00000 ...
   0.00000   0.00000   0.00000   0.00000  -0.06624   0.00000   0.00000   1.11608   0.00000   0.00000   0.00000  -0.01788 ...
   0.00000   0.00000   0.00000   0.00000   0.00000   0.00000   0.00000   0.00000   0.45664   0.00000   0.00000   0.00000 ...
   0.00000   0.00000   0.00077   0.00000   0.00000  -0.01518   0.00000   0.00000   0.00000   0.47813   0.00000   0.00000 ...
  -0.00028  -0.00298   0.00000   0.00092   0.00000   0.00000   0.10718   0.00000   0.00000   0.00000   1.39194   0.00000 ...
   0.00000   0.00000   0.00000   0.00000   0.00085   0.00000   0.00000  -0.01788   0.00000   0.00000   0.00000   0.42904 ...
   ...  only 12  components have been written...


================================================================================

 ----iterations are completed or convergence reached----

 Mean square residual over all n,k,spin=   12.114E-07; max=  92.569E-05
 reduced coordinates (array xred) for    9 atoms
       0.250789033980      0.250789033980      0.249210966020
       0.750789033980      0.750789033980      0.749210966020
       0.775631080390      0.229212926560      0.770787073440
       0.227004868740      0.227004868740      0.772995131260
       0.759504347240      0.759504347240      0.240495652760
       0.229212926560      0.775631080390      0.224368919610
       0.245900112780      0.755929143540      0.754099887220
       0.755929143540      0.245900112780      0.244070856460
       0.005239452778      0.005239452778     -0.005239452778
 rms dE/dt=  1.0691E-04; max dE/dt=  1.5907E-04; dE/dt below (all hartree)
    1      -0.000108998732     -0.000108998732      0.000000000000
    2      -0.000108998732     -0.000108998732      0.000000000000
    3      -0.000027970831      0.000009941069     -0.000037911900
    4      -0.000041705649     -0.000041705649      0.000000000000
    5       0.000159068884      0.000159068884      0.000000000000
    6       0.000047852969      0.000009941069      0.000037911900
    7      -0.000213529281     -0.000201094924      0.000012434357
    8      -0.000213529281     -0.000225963638     -0.000012434357
    9       0.000094537932      0.000094537932      0.000000000000

 cartesian coordinates (angstrom) at end:
    1      2.94136405459855     2.87594136822237     2.95016636987036
    2      8.82409216379565     8.62782410466729     8.83193544695375
    3      5.88272810919607     8.89481588233951     5.91026040730845
    4      5.88272810919606     5.75188273647805     2.67038043460461
    5      5.88272810919808     5.75188273641343     8.93445836701327
    6      5.88272810919814     2.60894959054975     5.91026040743370
    7      8.88309022495550     5.75188273647576     5.89252834039888
    8      2.88236599343870     5.75188273641386     5.89252834028197
    9      0.00000000000002    -0.00000000000064     0.06163450265625

 cartesian forces (hartree/bohr) at end:
    1     -0.00000000000000     0.00000000000000     0.00000567520667
    2     -0.00000000000000     0.00000000000000     0.00000567520667
    3      0.00000000000000     0.00000348792114    -0.00000502569481
    4      0.00000000000000    -0.00000000000000    -0.00000037908843
    5      0.00000000000000    -0.00000000000000    -0.00001844258349
    6      0.00000000000000    -0.00000348792114    -0.00000502569481
    7     -0.00000111852500     0.00000000000000     0.00001507972146
    8      0.00000111852499     0.00000000000000     0.00001507972146
    9      0.00000000000000    -0.00000000000000    -0.00001263679473
 frms,max,avg= 6.3727479E-06 1.8442583E-05   0.000E+00  0.000E+00  4.131E-06 h/b

 cartesian forces (eV/Angstrom) at end:
    1     -0.00000000000001     0.00000000000001     0.00029183083619
    2     -0.00000000000001     0.00000000000001     0.00029183083619
    3      0.00000000000000     0.00017935610151    -0.00025843159627
    4      0.00000000000000    -0.00000000000000    -0.00001949350899
    5      0.00000000000002    -0.00000000000002    -0.00094835569349
    6      0.00000000000001    -0.00017935610152    -0.00025843159627
    7     -0.00005751686298     0.00000000000002     0.00077543039001
    8      0.00005751686295     0.00000000000002     0.00077543039001
    9      0.00000000000001    -0.00000000000001    -0.00064981005738
 frms,max,avg= 3.2769984E-04 9.4835569E-04   0.000E+00  0.000E+00  2.124E-04 e/A
 length scales= 15.546298368000 15.720170163000 15.547594142000 bohr
              =  8.226746774286  8.318755765416  8.227432468354 angstroms
 prteigrs : about to open file Cs2TiI6o_EIG
 Fermi (or HOMO) energy (hartree) =  -0.10440   Average Vxc (hartree)=  -0.28000
 Eigenvalues (hartree) for nkpt= 280  k points:
 kpt#   1, nband= 42, wtk=  0.00058, kpt=  0.0000  0.0000  0.0000 (reduced coord)
  -2.40368   -1.24745   -1.24732   -1.24729   -0.85825   -0.85813   -0.61547   -0.60698
  -0.60432   -0.52056   -0.51304   -0.50890   -0.37550   -0.37488   -0.37473   -0.37333
  -0.37331   -0.37330   -0.25050   -0.20307   -0.20086   -0.19470   -0.19453   -0.19300
  -0.19029   -0.18722   -0.17560   -0.15000   -0.14536   -0.14472   -0.12708   -0.12368
  -0.11965   -0.11759   -0.11550   -0.10440   -0.01695   -0.01243   -0.00868    0.04188
   0.06019    0.06755
 prteigrs : prtvol=0 or 1, do not print more k-points.


--- !EnergyTerms
iteration_state     : {dtset: 1, }
comment             : Components of total free energy in Hartree
kinetic             :  4.02841461295820E+01
hartree             :  3.98931209767172E+01
xc                  : -6.40466723185522E+01
Ewald energy        : -1.13771793209057E+02
psp_core            :  1.43606143117778E+01
local_psp           : -8.45748761564685E+01
spherical_terms     :  6.28064826083932E-01
total_energy        : -1.67227395439917E+02
total_energy_eV     : -4.55048884922359E+03
...


--- !EnergyTermsDC
iteration_state     : {dtset: 1, }
comment             : '"Double-counting" decomposition of free energy'
band_energy         : -3.29452408847432E+01
Ewald energy        : -1.13771793209057E+02
psp_core            :  1.43606143117778E+01
xc_dc               : -6.52925117779499E+01
spherical_terms     :  3.04215813490082E+01
total_energy_dc     : -1.67227350210964E+02
total_energy_dc_eV  : -4.55048761848119E+03
...


 Cartesian components of stress tensor (hartree/bohr^3)
  sigma(1 1)=  3.67860457E-06  sigma(3 2)=  1.61796865E-13
  sigma(2 2)=  3.61911836E-06  sigma(3 1)= -1.05952427E-13
  sigma(3 3)=  3.61490385E-06  sigma(2 1)= -5.34258318E-14

-Cartesian components of stress tensor (GPa)         [Pressure= -1.0702E-01 GPa]
- sigma(1 1)=  1.08228265E-01  sigma(3 2)=  4.76022730E-09
- sigma(2 2)=  1.06478120E-01  sigma(3 1)= -3.11722749E-09
- sigma(3 3)=  1.06354125E-01  sigma(2 1)= -1.57184197E-09

== END DATASET(S) ==============================================================
================================================================================
  
 -outvars: echo values of variables after computation  --------
            acell      1.5546298368E+01  1.5720170163E+01  1.5547594142E+01 Bohr
              amu      1.32905430E+02  1.26904470E+02  1.78490000E+02
                       7.99040000E+01
           diemac      1.20000000E+01
             ecut      1.60000000E+01 Hartree
           etotal     -1.6722735021E+02
            fcart     -1.1057166047E-16  1.1308717103E-16  5.6752066735E-06
                      -1.1057081344E-16  1.1308632400E-16  5.6752066735E-06
                       6.1938267345E-17  3.4879211446E-06 -5.0256948132E-06
                       7.3856080226E-18 -7.5536106740E-18 -3.7908842593E-07
                       3.5932108208E-16 -3.6749432098E-16 -1.8442583487E-05
                       1.3389467302E-16 -3.4879211448E-06 -5.0256948133E-06
                      -1.1185249950E-06  3.0011831010E-16  1.5079721463E-05
                       1.1185249944E-06  3.0085065721E-16  1.5079721463E-05
                       2.4620650449E-16 -2.5180666051E-16 -1.2636794734E-05
-          fftalg         112
           istwfk        2    0    0    0    0    0    3    0    0    0
                         0    0    0    0    0    0    0    0    0    0
                         0    0    0    0    0    0    0    0    0    0
                         0    0    0    0    0    0    0    0    0    0
                         0    0    7    0    0    0    0    0    0    0
                       outvar_i_n : Printing only first  50 k-points.
              ixc     -101130
              kpt      0.00000000E+00  0.00000000E+00  0.00000000E+00
                       8.33333333E-02  0.00000000E+00  0.00000000E+00
                       1.66666667E-01  0.00000000E+00  0.00000000E+00
                       2.50000000E-01  0.00000000E+00  0.00000000E+00
                       3.33333333E-01  0.00000000E+00  0.00000000E+00
                       4.16666667E-01  0.00000000E+00  0.00000000E+00
                       5.00000000E-01  0.00000000E+00  0.00000000E+00
                       8.33333333E-02  8.33333333E-02  0.00000000E+00
                       1.66666667E-01  8.33333333E-02  0.00000000E+00
                       2.50000000E-01  8.33333333E-02  0.00000000E+00
                       3.33333333E-01  8.33333333E-02  0.00000000E+00
                       4.16666667E-01  8.33333333E-02  0.00000000E+00
                       5.00000000E-01  8.33333333E-02  0.00000000E+00
                      -4.16666667E-01  8.33333333E-02  0.00000000E+00
                      -3.33333333E-01  8.33333333E-02  0.00000000E+00
                      -2.50000000E-01  8.33333333E-02  0.00000000E+00
                      -1.66666667E-01  8.33333333E-02  0.00000000E+00
                      -8.33333333E-02  8.33333333E-02  0.00000000E+00
                       1.66666667E-01  1.66666667E-01  0.00000000E+00
                       2.50000000E-01  1.66666667E-01  0.00000000E+00
                       3.33333333E-01  1.66666667E-01  0.00000000E+00
                       4.16666667E-01  1.66666667E-01  0.00000000E+00
                       5.00000000E-01  1.66666667E-01  0.00000000E+00
                      -4.16666667E-01  1.66666667E-01  0.00000000E+00
                      -3.33333333E-01  1.66666667E-01  0.00000000E+00
                      -2.50000000E-01  1.66666667E-01  0.00000000E+00
                      -1.66666667E-01  1.66666667E-01  0.00000000E+00
                       2.50000000E-01  2.50000000E-01  0.00000000E+00
                       3.33333333E-01  2.50000000E-01  0.00000000E+00
                       4.16666667E-01  2.50000000E-01  0.00000000E+00
                       5.00000000E-01  2.50000000E-01  0.00000000E+00
                      -4.16666667E-01  2.50000000E-01  0.00000000E+00
                      -3.33333333E-01  2.50000000E-01  0.00000000E+00
                      -2.50000000E-01  2.50000000E-01  0.00000000E+00
                       3.33333333E-01  3.33333333E-01  0.00000000E+00
                       4.16666667E-01  3.33333333E-01  0.00000000E+00
                       5.00000000E-01  3.33333333E-01  0.00000000E+00
                      -4.16666667E-01  3.33333333E-01  0.00000000E+00
                      -3.33333333E-01  3.33333333E-01  0.00000000E+00
                       4.16666667E-01  4.16666667E-01  0.00000000E+00
                       5.00000000E-01  4.16666667E-01  0.00000000E+00
                      -4.16666667E-01  4.16666667E-01  0.00000000E+00
                       5.00000000E-01  5.00000000E-01  0.00000000E+00
                       8.33333333E-02  0.00000000E+00  8.33333333E-02
                       1.66666667E-01  0.00000000E+00  8.33333333E-02
                       2.50000000E-01  0.00000000E+00  8.33333333E-02
                       3.33333333E-01  0.00000000E+00  8.33333333E-02
                       4.16666667E-01  0.00000000E+00  8.33333333E-02
                       5.00000000E-01  0.00000000E+00  8.33333333E-02
                      -4.16666667E-01  0.00000000E+00  8.33333333E-02
                       outvar_i_n : Printing only first  50 k-points.
         kptrlatt       12    0    0      0   12    0      0    0   12
          kptrlen      1.86555580E+02
P           mkmem          47
            natom           9
            nband          42
            ngfft          60      60      60
          ngfftdg          90      90      90
             nkpt         280
            nstep        2500
             nsym           4
           ntypat           4
              occ      2.000000  2.000000  2.000000  2.000000  2.000000  2.000000
                       2.000000  2.000000  2.000000  2.000000  2.000000  2.000000
                       2.000000  2.000000  2.000000  2.000000  2.000000  2.000000
                       2.000000  2.000000  2.000000  2.000000  2.000000  2.000000
                       2.000000  2.000000  2.000000  2.000000  2.000000  2.000000
                       2.000000  2.000000  2.000000  2.000000  2.000000  2.000000
                       0.000000  0.000000  0.000000  0.000000  0.000000  0.000000
        pawecutdg      4.00000000E+01 Hartree
            prtwf           0
            rprim      0.0000000000E+00  6.9916856495E-01  7.1495686428E-01
                       7.0716442159E-01  0.0000000000E+00  7.0704913608E-01
                       7.1501384324E-01  6.9911029457E-01  0.0000000000E+00
          spgroup          42
           strten      3.6786045687E-06  3.6191183599E-06  3.6149038457E-06
                       1.6179686456E-13 -1.0595242672E-13 -5.3425831805E-14
           symrel      1  0  0   0  1  0   0  0  1       1  0  0   1  0 -1   1 -1  0
                       0  1 -1   1  0 -1   0  0 -1       0  1 -1   0  1  0  -1  1  0
           toldfe      1.00000000E-08 Hartree
            typat      1  1  4  4  2  4  2  2  3
           useylm           1
              wtk        0.00058    0.00463    0.00463    0.00463    0.00463    0.00463
                         0.00231    0.00116    0.00463    0.00463    0.00463    0.00463
                         0.00463    0.00463    0.00463    0.00463    0.00463    0.00231
                         0.00116    0.00463    0.00463    0.00463    0.00463    0.00463
                         0.00463    0.00463    0.00231    0.00116    0.00463    0.00463
                         0.00463    0.00463    0.00463    0.00231    0.00116    0.00463
                         0.00463    0.00463    0.00231    0.00116    0.00463    0.00231
                         0.00058    0.00116    0.00463    0.00463    0.00463    0.00463
                         0.00463    0.00463
                       outvars : Printing only first  50 k-points.
           xangst      2.9413640546E+00  2.8759413682E+00  2.9501663699E+00
                       8.8240921638E+00  8.6278241047E+00  8.8319354470E+00
                       5.8827281092E+00  8.8948158823E+00  5.9102604073E+00
                       5.8827281092E+00  5.7518827365E+00  2.6703804346E+00
                       5.8827281092E+00  5.7518827364E+00  8.9344583670E+00
                       5.8827281092E+00  2.6089495905E+00  5.9102604074E+00
                       8.8830902250E+00  5.7518827365E+00  5.8925283404E+00
                       2.8823659934E+00  5.7518827364E+00  5.8925283403E+00
                       1.9807351140E-14 -6.3586985244E-13  6.1634502656E-02
            xcart      5.5583725203E+00  5.4347415602E+00  5.5750064855E+00
                       1.6675117561E+01  1.6304224681E+01  1.6689939218E+01
                       1.1116745041E+01  1.6808766020E+01  1.1168773544E+01
                       1.1116745041E+01  1.0869483120E+01  5.0462876920E+00
                       1.1116745041E+01  1.0869483120E+01  1.6883679459E+01
                       1.1116745041E+01  4.9302002206E+00  1.1168773544E+01
                       1.6786607739E+01  1.0869483120E+01  1.1135264794E+01
                       5.4468823423E+00  1.0869483120E+01  1.1135264793E+01
                       3.7430469072E-14 -1.2016198773E-12  1.1647233036E-01
             xred      2.5078903398E-01  2.5078903398E-01  2.4921096602E-01
                       7.5078903398E-01  7.5078903398E-01  7.4921096602E-01
                       7.7563108039E-01  2.2921292656E-01  7.7078707344E-01
                       2.2700486874E-01  2.2700486874E-01  7.7299513126E-01
                       7.5950434724E-01  7.5950434724E-01  2.4049565276E-01
                       2.2921292656E-01  7.7563108039E-01  2.2436891961E-01
                       2.4590011278E-01  7.5592914354E-01  7.5409988722E-01
                       7.5592914354E-01  2.4590011278E-01  2.4407085646E-01
                       5.2394527776E-03  5.2394527776E-03 -5.2394527776E-03
            znucl       55.00000   53.00000   72.00000   35.00000

================================================================================


- Timing analysis has been suppressed with timopt=0



================================================================================

 Suggested references for the acknowledgment of ABINIT usage.

 The users of ABINIT have little formal obligations with respect to the ABINIT group
 (those specified in the GNU General Public License, http://www.gnu.org/copyleft/gpl.txt).
 However, it is common practice in the scientific literature,
 to acknowledge the efforts of people that have made the research possible.
 In this spirit, please find below suggested citations of work written by ABINIT developers,
 corresponding to implementations inside of ABINIT that you have used in the present run.
 Note also that it will be of great value to readers of publications presenting these results,
 to read papers enabling them to understand the theoretical formalism and details
 of the ABINIT implementation.
 For information on why they are suggested, see also https://docs.abinit.org/theory/acknowledgments.
-
- [1] Implementation of the Projector Augmented-Wave Method in the ABINIT code.
- M. Torrent, F. Jollet, F. Bottin, G. Zerah, and X. Gonze Comput. Mat. Science 42, 337, (2008).
- Comment: PAW calculations. Strong suggestion to cite this paper.
- DOI and bibtex: see https://docs.abinit.org/theory/bibliography/#torrent2008
-
- [2] Libxc: A library of exchange and correlation functionals for density functional theory.
- M.A.L. Marques, M.J.T. Oliveira, T. Burnus, Computer Physics Communications 183, 2227 (2012).
- Comment: to be cited when LibXC is used (negative value of ixc)
- Strong suggestion to cite this paper.
- DOI and bibtex: see https://docs.abinit.org/theory/bibliography/#marques2012
-
- [3] The Abinit project: Impact, environment and recent developments.
- Computer Phys. Comm. 248, 107042 (2020).
- X.Gonze, B. Amadon, G. Antonius, F.Arnardi, L.Baguet, J.-M.Beuken,
- J.Bieder, F.Bottin, J.Bouchet, E.Bousquet, N.Brouwer, F.Bruneval,
- G.Brunin, T.Cavignac, J.-B. Charraud, Wei Chen, M.Cote, S.Cottenier,
- J.Denier, G.Geneste, Ph.Ghosez, M.Giantomassi, Y.Gillet, O.Gingras,
- D.R.Hamann, G.Hautier, Xu He, N.Helbig, N.Holzwarth, Y.Jia, F.Jollet,
- W.Lafargue-Dit-Hauret, K.Lejaeghere, M.A.L.Marques, A.Martin, C.Martins,
- H.P.C. Miranda, F.Naccarato, K. Persson, G.Petretto, V.Planes, Y.Pouillon,
- S.Prokhorenko, F.Ricci, G.-M.Rignanese, A.H.Romero, M.M.Schmitt, M.Torrent,
- M.J.van Setten, B.Van Troeye, M.J.Verstraete, G.Zerah and J.W.Zwanzig
- Comment: the fifth generic paper describing the ABINIT project.
- Note that a version of this paper, that is not formatted for Computer Phys. Comm. 
- is available at https://www.abinit.org/sites/default/files/ABINIT20.pdf .
- The licence allows the authors to put it on the Web.
- DOI and bibtex: see https://docs.abinit.org/theory/bibliography/#gonze2020
-
- [4] ABINIT: Overview, and focus on selected capabilities
- J. Chem. Phys. 152, 124102 (2020).
- A. Romero, D.C. Allan, B. Amadon, G. Antonius, T. Applencourt, L.Baguet,
- J.Bieder, F.Bottin, J.Bouchet, E.Bousquet, F.Bruneval,
- G.Brunin, D.Caliste, M.Cote,
- J.Denier, C. Dreyer, Ph.Ghosez, M.Giantomassi, Y.Gillet, O.Gingras,
- D.R.Hamann, G.Hautier, F.Jollet, G. Jomard,
- A.Martin, 
- H.P.C. Miranda, F.Naccarato, G.Petretto, N.A. Pike, V.Planes,
- S.Prokhorenko, T. Rangel, F.Ricci, G.-M.Rignanese, M.Royo, M.Stengel, M.Torrent,
- M.J.van Setten, B.Van Troeye, M.J.Verstraete, J.Wiktor, J.W.Zwanziger, and X.Gonze.
- Comment: a global overview of ABINIT, with focus on selected capabilities .
- Note that a version of this paper, that is not formatted for J. Chem. Phys 
- is available at https://www.abinit.org/sites/default/files/ABINIT20_JPC.pdf .
- The licence allows the authors to put it on the Web.
- DOI and bibtex: see https://docs.abinit.org/theory/bibliography/#romero2020
-
- [5] Recent developments in the ABINIT software package.
- Computer Phys. Comm. 205, 106 (2016).
- X.Gonze, F.Jollet, F.Abreu Araujo, D.Adams, B.Amadon, T.Applencourt,
- C.Audouze, J.-M.Beuken, J.Bieder, A.Bokhanchuk, E.Bousquet, F.Bruneval
- D.Caliste, M.Cote, F.Dahm, F.Da Pieve, M.Delaveau, M.Di Gennaro,
- B.Dorado, C.Espejo, G.Geneste, L.Genovese, A.Gerossier, M.Giantomassi,
- Y.Gillet, D.R.Hamann, L.He, G.Jomard, J.Laflamme Janssen, S.Le Roux,
- A.Levitt, A.Lherbier, F.Liu, I.Lukacevic, A.Martin, C.Martins,
- M.J.T.Oliveira, S.Ponce, Y.Pouillon, T.Rangel, G.-M.Rignanese,
- A.H.Romero, B.Rousseau, O.Rubel, A.A.Shukri, M.Stankovski, M.Torrent,
- M.J.Van Setten, B.Van Troeye, M.J.Verstraete, D.Waroquier, J.Wiktor,
- B.Xu, A.Zhou, J.W.Zwanziger.
- Comment: the fourth generic paper describing the ABINIT project.
- Note that a version of this paper, that is not formatted for Computer Phys. Comm. 
- is available at https://www.abinit.org/sites/default/files/ABINIT16.pdf .
- The licence allows the authors to put it on the Web.
- DOI and bibtex: see https://docs.abinit.org/theory/bibliography/#gonze2016
-
- Proc.   0 individual time (sec): cpu=       1500.9  wall=       1501.0

================================================================================

 Calculation completed.
.Delivered   0 WARNINGs and   0 COMMENTs to log file.
+Overall time at end (sec) : cpu=       9005.4  wall=       9005.6
