
.Version 9.2.2 of ABINIT 
.(MPI version, prepared for a x86_64_linux_gnu9.3 computer) 

.Copyright (C) 1998-2020 ABINIT group . 
 ABINIT comes with ABSOLUTELY NO WARRANTY.
 It is free software, and you are welcome to redistribute it
 under certain conditions (GNU General Public License,
 see ~abinit/COPYING or http://www.gnu.org/copyleft/gpl.txt).

 ABINIT is a project of the Universite Catholique de Louvain,
 Corning Inc. and other collaborators, see ~abinit/doc/developers/contributors.txt .
 Please read https://docs.abinit.org/theory/acknowledgments for suggested
 acknowledgments of the ABINIT effort.
 For more information, see https://www.abinit.org .

.Starting date : Thu 27 Oct 2022.
- ( at 20h48 )
  
- input  file    -> Cs2TiI6.in
- output file    -> Cs2TiI6.out
- root for input  files -> Cs2TiI6i
- root for output files -> Cs2TiI6o

- inpspheads : Reading pseudopotential header in XML form from 
-   ../../../Psps_for_tests/ATOMICDATA/Cs.GGA_PBE-JTH.xml
- inpspheads : Reading pseudopotential header in XML form from 
-   ../../../Psps_for_tests/ATOMICDATA/I.GGA_PBE-JTH.xml
- inpspheads : Reading pseudopotential header in XML form from 
-   ../../../Psps_for_tests/ATOMICDATA/Hf.GGA_PBE-JTH.xml
- inpspheads : Reading pseudopotential header in XML form from 
-   ../../../Psps_for_tests/ATOMICDATA/Cl.GGA_PBE-JTH.xml

 DATASET    1 : space group Fm m 2 (# 42); Bravais oF (face-center ortho.)
================================================================================
 Values of the parameters that define the memory need for DATASET  1.
     intxc =       0    ionmov =       0      iscf =      17    lmnmax =      18
     lnmax =       6     mgfft =      60  mpssoang =       3    mqgrid =    3553
     natom =       9  nloc_mem =       2    nspden =       1   nspinor =       1
    nsppol =       1      nsym =       4    n1xccc =       1    ntypat =       4
    occopt =       1   xclevel =       2
-    mband =          42        mffmem =           1         mkmem =          47
       mpw =        7756          nfft =      216000          nkpt =         280
Pmy_natom=         2
 PAW method is used; the additional fine FFT grid is defined by:
   mgfftf=        90    nfftf =    729000
================================================================================
P This job should need less than                     473.853 Mbytes of memory.
  Rough estimation (10% accuracy) of disk space for files :
_ WF disk file :   1391.765 Mbytes ; DEN or POT disk file :      5.564 Mbytes.
================================================================================


 DATASET    2 : space group Fm m 2 (# 42); Bravais oF (face-center ortho.)
================================================================================
 Values of the parameters that define the memory need for DATASET  2.
     intxc =       0    ionmov =       0      iscf =      17    lmnmax =      18
     lnmax =       6     mgfft =      60  mpssoang =       3    mqgrid =    3517
     natom =       9  nloc_mem =       2    nspden =       1   nspinor =       1
    nsppol =       1      nsym =       4    n1xccc =       1    ntypat =       4
    occopt =       1   xclevel =       2
-    mband =          42        mffmem =           1         mkmem =          47
       mpw =        7521          nfft =      216000          nkpt =         280
Pmy_natom=         2
 PAW method is used; the additional fine FFT grid is defined by:
   mgfftf=        90    nfftf =    729000
================================================================================
P This job should need less than                     466.000 Mbytes of memory.
  Rough estimation (10% accuracy) of disk space for files :
_ WF disk file :   1349.596 Mbytes ; DEN or POT disk file :      5.564 Mbytes.
================================================================================


 DATASET    3 : space group Fm m 2 (# 42); Bravais oF (face-center ortho.)
================================================================================
 Values of the parameters that define the memory need for DATASET  3.
     intxc =       0    ionmov =       0      iscf =      17    lmnmax =      18
     lnmax =       6     mgfft =      60  mpssoang =       3    mqgrid =    3481
     natom =       9  nloc_mem =       2    nspden =       1   nspinor =       1
    nsppol =       1      nsym =       4    n1xccc =       1    ntypat =       4
    occopt =       1   xclevel =       2
-    mband =          42        mffmem =           1         mkmem =          47
       mpw =        7293          nfft =      216000          nkpt =         280
Pmy_natom=         2
 PAW method is used; the additional fine FFT grid is defined by:
   mgfftf=        90    nfftf =    729000
================================================================================
P This job should need less than                     458.389 Mbytes of memory.
  Rough estimation (10% accuracy) of disk space for files :
_ WF disk file :   1308.682 Mbytes ; DEN or POT disk file :      5.564 Mbytes.
================================================================================


 DATASET    4 : space group Fm m 2 (# 42); Bravais oF (face-center ortho.)
================================================================================
 Values of the parameters that define the memory need for DATASET  4.
     intxc =       0    ionmov =       0      iscf =      17    lmnmax =      18
     lnmax =       6     mgfft =      54  mpssoang =       3    mqgrid =    3445
     natom =       9  nloc_mem =       2    nspden =       1   nspinor =       1
    nsppol =       1      nsym =       4    n1xccc =       1    ntypat =       4
    occopt =       1   xclevel =       2
-    mband =          42        mffmem =           1         mkmem =          47
       mpw =        7083          nfft =      157464          nkpt =         280
Pmy_natom=         2
 PAW method is used; the additional fine FFT grid is defined by:
   mgfftf=        90    nfftf =    729000
================================================================================
P This job should need less than                     442.680 Mbytes of memory.
  Rough estimation (10% accuracy) of disk space for files :
_ WF disk file :   1270.999 Mbytes ; DEN or POT disk file :      5.564 Mbytes.
================================================================================


 DATASET    5 : space group Fm m 2 (# 42); Bravais oF (face-center ortho.)
================================================================================
 Values of the parameters that define the memory need for DATASET  5.
     intxc =       0    ionmov =       0      iscf =      17    lmnmax =      18
     lnmax =       6     mgfft =      54  mpssoang =       3    mqgrid =    3409
     natom =       9  nloc_mem =       2    nspden =       1   nspinor =       1
    nsppol =       1      nsym =       4    n1xccc =       1    ntypat =       4
    occopt =       1   xclevel =       2
-    mband =          42        mffmem =           1         mkmem =          47
       mpw =        6854          nfft =      157464          nkpt =         280
Pmy_natom=         2
 PAW method is used; the additional fine FFT grid is defined by:
   mgfftf=        90    nfftf =    729000
================================================================================
P This job should need less than                     435.046 Mbytes of memory.
  Rough estimation (10% accuracy) of disk space for files :
_ WF disk file :   1229.907 Mbytes ; DEN or POT disk file :      5.564 Mbytes.
================================================================================


 DATASET    6 : space group Fm m 2 (# 42); Bravais oF (face-center ortho.)
================================================================================
 Values of the parameters that define the memory need for DATASET  6.
     intxc =       0    ionmov =       0      iscf =      17    lmnmax =      18
     lnmax =       6     mgfft =      54  mpssoang =       3    mqgrid =    3373
     natom =       9  nloc_mem =       2    nspden =       1   nspinor =       1
    nsppol =       1      nsym =       4    n1xccc =       1    ntypat =       4
    occopt =       1   xclevel =       2
-    mband =          42        mffmem =           1         mkmem =          47
       mpw =        6652          nfft =      157464          nkpt =         280
Pmy_natom=         2
 PAW method is used; the additional fine FFT grid is defined by:
   mgfftf=        90    nfftf =    729000
================================================================================
P This job should need less than                     428.332 Mbytes of memory.
  Rough estimation (10% accuracy) of disk space for files :
_ WF disk file :   1193.659 Mbytes ; DEN or POT disk file :      5.564 Mbytes.
================================================================================


 DATASET    7 : space group Fm m 2 (# 42); Bravais oF (face-center ortho.)
================================================================================
 Values of the parameters that define the memory need for DATASET  7.
     intxc =       0    ionmov =       0      iscf =      17    lmnmax =      18
     lnmax =       6     mgfft =      54  mpssoang =       3    mqgrid =    3337
     natom =       9  nloc_mem =       2    nspden =       1   nspinor =       1
    nsppol =       1      nsym =       4    n1xccc =       1    ntypat =       4
    occopt =       1   xclevel =       2
-    mband =          42        mffmem =           1         mkmem =          47
       mpw =        6430          nfft =      157464          nkpt =         280
Pmy_natom=         2
 PAW method is used; the additional fine FFT grid is defined by:
   mgfftf=        90    nfftf =    729000
================================================================================
P This job should need less than                     420.947 Mbytes of memory.
  Rough estimation (10% accuracy) of disk space for files :
_ WF disk file :   1153.823 Mbytes ; DEN or POT disk file :      5.564 Mbytes.
================================================================================


 DATASET    8 : space group Fm m 2 (# 42); Bravais oF (face-center ortho.)
================================================================================
 Values of the parameters that define the memory need for DATASET  8.
     intxc =       0    ionmov =       0      iscf =      17    lmnmax =      18
     lnmax =       6     mgfft =      54  mpssoang =       3    mqgrid =    3301
     natom =       9  nloc_mem =       2    nspden =       1   nspinor =       1
    nsppol =       1      nsym =       4    n1xccc =       1    ntypat =       4
    occopt =       1   xclevel =       2
-    mband =          42        mffmem =           1         mkmem =          47
       mpw =        6240          nfft =      157464          nkpt =         280
Pmy_natom=         2
 PAW method is used; the additional fine FFT grid is defined by:
   mgfftf=        90    nfftf =    729000
================================================================================
P This job should need less than                     414.652 Mbytes of memory.
  Rough estimation (10% accuracy) of disk space for files :
_ WF disk file :   1119.729 Mbytes ; DEN or POT disk file :      5.564 Mbytes.
================================================================================


 DATASET    9 : space group Fm m 2 (# 42); Bravais oF (face-center ortho.)
================================================================================
 Values of the parameters that define the memory need for DATASET  9.
     intxc =       0    ionmov =       0      iscf =      17    lmnmax =      18
     lnmax =       6     mgfft =      54  mpssoang =       3    mqgrid =    3265
     natom =       9  nloc_mem =       2    nspden =       1   nspinor =       1
    nsppol =       1      nsym =       4    n1xccc =       1    ntypat =       4
    occopt =       1   xclevel =       2
-    mband =          42        mffmem =           1         mkmem =          47
       mpw =        6028          nfft =      157464          nkpt =         280
Pmy_natom=         2
 PAW method is used; the additional fine FFT grid is defined by:
   mgfftf=        90    nfftf =    729000
================================================================================
P This job should need less than                     407.619 Mbytes of memory.
  Rough estimation (10% accuracy) of disk space for files :
_ WF disk file :   1081.687 Mbytes ; DEN or POT disk file :      5.564 Mbytes.
================================================================================


 DATASET   10 : space group Fm m 2 (# 42); Bravais oF (face-center ortho.)
================================================================================
 Values of the parameters that define the memory need for DATASET 10.
     intxc =       0    ionmov =       0      iscf =      17    lmnmax =      18
     lnmax =       6     mgfft =      54  mpssoang =       3    mqgrid =    3229
     natom =       9  nloc_mem =       2    nspden =       1   nspinor =       1
    nsppol =       1      nsym =       4    n1xccc =       1    ntypat =       4
    occopt =       1   xclevel =       2
-    mband =          42        mffmem =           1         mkmem =          47
       mpw =        5839          nfft =      157464          nkpt =         280
Pmy_natom=         2
 PAW method is used; the additional fine FFT grid is defined by:
   mgfftf=        90    nfftf =    729000
================================================================================
P This job should need less than                     401.372 Mbytes of memory.
  Rough estimation (10% accuracy) of disk space for files :
_ WF disk file :   1047.772 Mbytes ; DEN or POT disk file :      5.564 Mbytes.
================================================================================

--------------------------------------------------------------------------------
------------- Echo of variables that govern the present computation ------------
--------------------------------------------------------------------------------
-
- outvars: echo of selected default values                                      
-   iomode0 =  0 , fftalg0 =112 , wfoptalg0 = 10
-
- outvars: echo of global parameters not present in the input file              
-  max_nthreads =    0
-
 -outvars: echo values of preprocessed input variables --------
            acell1     1.5266727088E+01  1.5449777188E+01  1.5148408677E+01 Bohr
            acell2     1.5127359482E+01  1.5293767345E+01  1.4981302708E+01 Bohr
            acell3     1.4994767480E+01  1.5124452400E+01  1.4819568386E+01 Bohr
            acell4     1.4850533646E+01  1.4971739989E+01  1.4654450256E+01 Bohr
            acell5     1.4703868271E+01  1.4814055998E+01  1.4495931788E+01 Bohr
            acell6     1.4556848852E+01  1.4660113257E+01  1.4334565525E+01 Bohr
            acell7     1.4405315718E+01  1.4508295419E+01  1.4175515829E+01 Bohr
            acell8     1.4246690753E+01  1.4359518451E+01  1.4020310793E+01 Bohr
            acell9     1.4084422820E+01  1.4209983931E+01  1.3869085580E+01 Bohr
            acell10    1.3922526097E+01  1.4061524510E+01  1.3716666042E+01 Bohr
              amu      1.32905430E+02  1.26904470E+02  1.78490000E+02
                       3.54527000E+01
           diemac      1.20000000E+01
             ecut      1.60000000E+01 Hartree
-          fftalg         112
           istwfk        2    0    0    0    0    0    3    0    0    0
                         0    0    0    0    0    0    0    0    0    0
                         0    0    0    0    0    0    0    0    0    0
                         0    0    0    0    0    0    0    0    0    0
                         0    0    7    0    0    0    0    0    0    0
                       outvar_i_n : Printing only first  50 k-points.
              ixc     -101130
           jdtset        1    2    3    4    5    6    7    8    9   10
              kpt      0.00000000E+00  0.00000000E+00  0.00000000E+00
                       8.33333333E-02  0.00000000E+00  0.00000000E+00
                       1.66666667E-01  0.00000000E+00  0.00000000E+00
                       2.50000000E-01  0.00000000E+00  0.00000000E+00
                       3.33333333E-01  0.00000000E+00  0.00000000E+00
                       4.16666667E-01  0.00000000E+00  0.00000000E+00
                       5.00000000E-01  0.00000000E+00  0.00000000E+00
                       8.33333333E-02  8.33333333E-02  0.00000000E+00
                       1.66666667E-01  8.33333333E-02  0.00000000E+00
                       2.50000000E-01  8.33333333E-02  0.00000000E+00
                       3.33333333E-01  8.33333333E-02  0.00000000E+00
                       4.16666667E-01  8.33333333E-02  0.00000000E+00
                       5.00000000E-01  8.33333333E-02  0.00000000E+00
                      -4.16666667E-01  8.33333333E-02  0.00000000E+00
                      -3.33333333E-01  8.33333333E-02  0.00000000E+00
                      -2.50000000E-01  8.33333333E-02  0.00000000E+00
                      -1.66666667E-01  8.33333333E-02  0.00000000E+00
                      -8.33333333E-02  8.33333333E-02  0.00000000E+00
                       1.66666667E-01  1.66666667E-01  0.00000000E+00
                       2.50000000E-01  1.66666667E-01  0.00000000E+00
                       3.33333333E-01  1.66666667E-01  0.00000000E+00
                       4.16666667E-01  1.66666667E-01  0.00000000E+00
                       5.00000000E-01  1.66666667E-01  0.00000000E+00
                      -4.16666667E-01  1.66666667E-01  0.00000000E+00
                      -3.33333333E-01  1.66666667E-01  0.00000000E+00
                      -2.50000000E-01  1.66666667E-01  0.00000000E+00
                      -1.66666667E-01  1.66666667E-01  0.00000000E+00
                       2.50000000E-01  2.50000000E-01  0.00000000E+00
                       3.33333333E-01  2.50000000E-01  0.00000000E+00
                       4.16666667E-01  2.50000000E-01  0.00000000E+00
                       5.00000000E-01  2.50000000E-01  0.00000000E+00
                      -4.16666667E-01  2.50000000E-01  0.00000000E+00
                      -3.33333333E-01  2.50000000E-01  0.00000000E+00
                      -2.50000000E-01  2.50000000E-01  0.00000000E+00
                       3.33333333E-01  3.33333333E-01  0.00000000E+00
                       4.16666667E-01  3.33333333E-01  0.00000000E+00
                       5.00000000E-01  3.33333333E-01  0.00000000E+00
                      -4.16666667E-01  3.33333333E-01  0.00000000E+00
                      -3.33333333E-01  3.33333333E-01  0.00000000E+00
                       4.16666667E-01  4.16666667E-01  0.00000000E+00
                       5.00000000E-01  4.16666667E-01  0.00000000E+00
                      -4.16666667E-01  4.16666667E-01  0.00000000E+00
                       5.00000000E-01  5.00000000E-01  0.00000000E+00
                       8.33333333E-02  0.00000000E+00  8.33333333E-02
                       1.66666667E-01  0.00000000E+00  8.33333333E-02
                       2.50000000E-01  0.00000000E+00  8.33333333E-02
                       3.33333333E-01  0.00000000E+00  8.33333333E-02
                       4.16666667E-01  0.00000000E+00  8.33333333E-02
                       5.00000000E-01  0.00000000E+00  8.33333333E-02
                      -4.16666667E-01  0.00000000E+00  8.33333333E-02
                       outvar_i_n : Printing only first  50 k-points.
         kptrlatt       12    0    0      0   12    0      0    0   12
          kptrlen1     1.81780904E+02
          kptrlen2     1.79775632E+02
          kptrlen3     1.77834821E+02
          kptrlen4     1.75853403E+02
          kptrlen5     1.73951181E+02
          kptrlen6     1.72014786E+02
          kptrlen7     1.70106190E+02
          kptrlen8     1.68243730E+02
          kptrlen9     1.66429027E+02
          kptrlen10    1.64599992E+02
P           mkmem          47
            natom           9
            nband          42
           ndtset          10
            ngfft1         60      60      60
            ngfft2         60      60      60
            ngfft3         60      60      60
            ngfft4         54      54      54
            ngfft5         54      54      54
            ngfft6         54      54      54
            ngfft7         54      54      54
            ngfft8         54      54      54
            ngfft9         54      54      54
            ngfft10        54      54      54
          ngfftdg          90      90      90
             nkpt         280
            nstep        2500
             nsym           4
           ntypat           4
              occ      2.000000  2.000000  2.000000  2.000000  2.000000  2.000000
                       2.000000  2.000000  2.000000  2.000000  2.000000  2.000000
                       2.000000  2.000000  2.000000  2.000000  2.000000  2.000000
                       2.000000  2.000000  2.000000  2.000000  2.000000  2.000000
                       2.000000  2.000000  2.000000  2.000000  2.000000  2.000000
                       2.000000  2.000000  2.000000  2.000000  2.000000  2.000000
                       0.000000  0.000000  0.000000  0.000000  0.000000  0.000000
        pawecutdg      4.00000000E+01 Hartree
            prtwf           0
            rprim1     0.0000000000E+00  6.9297758466E-01  7.2095913002E-01
                       7.0175622550E-01  0.0000000000E+00  7.1241715306E-01
                       7.1571724503E-01  6.9839016686E-01  0.0000000000E+00
            rprim2     0.0000000000E+00  6.9233699096E-01  7.2157431423E-01
                       7.0042803305E-01  0.0000000000E+00  7.1372303488E-01
                       7.1503684218E-01  6.9908677167E-01  0.0000000000E+00
            rprim3     0.0000000000E+00  6.9260245780E-01  7.2131950996E-01
                       6.9898682945E-01  0.0000000000E+00  7.1513454137E-01
                       7.1336713429E-01  7.0079050487E-01  0.0000000000E+00
            rprim4     0.0000000000E+00  6.9187305102E-01  7.2201916960E-01
                       6.9792183805E-01  0.0000000000E+00  7.1617393695E-01
                       7.1303284056E-01  7.0113063568E-01  0.0000000000E+00
            rprim5     0.0000000000E+00  6.9169104714E-01  7.2219353037E-01
                       6.9725639674E-01  0.0000000000E+00  7.1682181691E-01
                       7.1255821692E-01  7.0161298983E-01  0.0000000000E+00
            rprim6     0.0000000000E+00  6.9117836879E-01  7.2268420663E-01
                       6.9646198500E-01  0.0000000000E+00  7.1759368967E-01
                       7.1227911040E-01  7.0189633770E-01  0.0000000000E+00
            rprim7     0.0000000000E+00  6.9065224384E-01  7.2318702842E-01
                       6.9598754306E-01  0.0000000000E+00  7.1805385586E-01
                       7.1232631000E-01  7.0184843669E-01  0.0000000000E+00
            rprim8     0.0000000000E+00  6.9013427015E-01  7.2368134505E-01
                       6.9604812501E-01  0.0000000000E+00  7.1799513067E-01
                       7.1288832621E-01  7.0127757297E-01  0.0000000000E+00
            rprim9     0.0000000000E+00  6.8983564125E-01  7.2396601305E-01
                       6.9648746091E-01  0.0000000000E+00  7.1756896309E-01
                       7.1360693329E-01  7.0054631879E-01  0.0000000000E+00
            rprim10    0.0000000000E+00  6.8941254494E-01  7.2436892732E-01
                       6.9685861369E-01  0.0000000000E+00  7.1720852792E-01
                       7.1437873074E-01  6.9975926508E-01  0.0000000000E+00
          spgroup          42
           symrel      1  0  0   0  1  0   0  0  1       0  1 -1   1  0 -1   0  0 -1
                       1  0  0   1  0 -1   1 -1  0       0  1 -1   0  1  0  -1  1  0
           toldfe      1.00000000E-08 Hartree
            typat      1  1  4  4  2  4  2  2  3
           useylm           1
              wtk        0.00058    0.00463    0.00463    0.00463    0.00463    0.00463
                         0.00231    0.00116    0.00463    0.00463    0.00463    0.00463
                         0.00463    0.00463    0.00463    0.00463    0.00463    0.00231
                         0.00116    0.00463    0.00463    0.00463    0.00463    0.00463
                         0.00463    0.00463    0.00231    0.00116    0.00463    0.00463
                         0.00463    0.00463    0.00463    0.00231    0.00116    0.00463
                         0.00463    0.00463    0.00231    0.00116    0.00463    0.00231
                         0.00058    0.00116    0.00463    0.00463    0.00463    0.00463
                         0.00463    0.00463
                       outvars : Printing only first  50 k-points.
           xangst1     2.8686636481E+00  2.7992150501E+00  2.9226296314E+00
                       8.6059909443E+00  8.3976451502E+00  8.7471171527E+00
                       5.7373272963E+00  8.7583169719E+00  5.8870817111E+00
                       5.7373272963E+00  5.5984301002E+00  2.5372333261E+00
                       5.7373272961E+00  5.5984301001E+00  8.8432642054E+00
                       5.7373272961E+00  2.4385432284E+00  5.8870817111E+00
                       8.5894310411E+00  5.5984301002E+00  5.8353351646E+00
                       2.8852235513E+00  5.5984301001E+00  5.8353351646E+00
                      -2.8583997114E-12 -2.2344437965E-12  1.0082210334E-01
           xangst2     2.8343216494E+00  2.7710974524E+00  2.8985838854E+00
                       8.5029649482E+00  8.3132923573E+00  8.6748251376E+00
                       5.6686432989E+00  8.6459708792E+00  5.8399074552E+00
                       5.6686432989E+00  5.5421949049E+00  2.5383286764E+00
                       5.6686432987E+00  5.5421949048E+00  8.7538642491E+00
                       5.6686432987E+00  2.4384189305E+00  5.8399074552E+00
                       8.4583153213E+00  5.5421949049E+00  5.7814376112E+00
                       2.8789712762E+00  5.5421949048E+00  5.7814376113E+00
                      -3.2046384299E-12 -2.8336401854E-12  1.0163793667E-01
           xangst3     2.7971759629E+00  2.7478618807E+00  2.8655733375E+00
                       8.3915278886E+00  8.2435856421E+00  8.5891637258E+00
                       5.5943519258E+00  8.5535136052E+00  5.7947798873E+00
                       5.5943519258E+00  5.4957237614E+00  2.5421857183E+00
                       5.5943519256E+00  5.4957237613E+00  8.6591388766E+00
                       5.5943519256E+00  2.4379339175E+00  5.7947798873E+00
                       8.3170318092E+00  5.4957237614E+00  5.7190553304E+00
                       2.8716720422E+00  5.4957237613E+00  5.7190553304E+00
                      -3.3589030623E-12 -1.9070350369E-12  1.0499101215E-01
           xangst4     2.7647139209E+00  2.7185643053E+00  2.8414237176E+00
                       8.2941417626E+00  8.1556929158E+00  8.5154575284E+00
                       5.5294278419E+00  8.4371569461E+00  5.7455679344E+00
                       5.5294278419E+00  5.4371286106E+00  2.5428087281E+00
                       5.5294278416E+00  5.4371286105E+00  8.5689770697E+00
                       5.5294278416E+00  2.4371002750E+00  5.7455679343E+00
                       8.1946836672E+00  5.4371286106E+00  5.6634934086E+00
                       2.8641720162E+00  5.4371286105E+00  5.6634934087E+00
                      -4.6793542312E-12 -2.9366534410E-12  1.0548075625E-01
           xangst5     2.7329873697E+00  2.6910074070E+00  2.8129061005E+00
                       8.1989621092E+00  8.0730222211E+00  8.4322592712E+00
                       5.4659747396E+00  8.3282471041E+00  5.6915148951E+00
                       5.4659747396E+00  5.3820148142E+00  2.5445910720E+00
                       5.4659747393E+00  5.3820148140E+00  8.4707227564E+00
                       5.4659747393E+00  2.4357825240E+00  5.6915148949E+00
                       8.0763343614E+00  5.3820148142E+00  5.6019662250E+00
                       2.8556151176E+00  5.3820148140E+00  5.6019662251E+00
                      -5.9721988687E-12 -3.9125348089E-12  1.0738392510E-01
           xangst6     2.7015056314E+00  2.6621262386E+00  2.7824307494E+00
                       8.1045168943E+00  7.9863787159E+00  8.3493775044E+00
                       5.4030112630E+00  8.2143581694E+00  5.6427445093E+00
                       5.4030112630E+00  5.3242524773E+00  2.5464695622E+00
                       5.4030112628E+00  5.3242524772E+00  8.3786841232E+00
                       5.4030112627E+00  2.4341467852E+00  5.6427445092E+00
                       7.9600469029E+00  5.3242524773E+00  5.5415474081E+00
                       2.8459756228E+00  5.3242524772E+00  5.5415474082E+00
                      -4.3011030607E-12 -1.4131933191E-12  1.1002826609E-01
           xangst7     2.6717080076E+00  2.6324088583E+00  2.7533067852E+00
                       8.0151240227E+00  7.8972265748E+00  8.2661360181E+00
                       5.3434160152E+00  8.0978800616E+00  5.5881054040E+00
                       5.3434160152E+00  5.2648177166E+00  2.5475631604E+00
                       5.3434160151E+00  5.2648177166E+00  8.2838962448E+00
                       5.3434160151E+00  2.4317553715E+00  5.5881054040E+00
                       7.8514679461E+00  5.2648177166E+00  5.4814965556E+00
                       2.8353640842E+00  5.2648177166E+00  5.4814965556E+00
                      -8.6248320466E-13  1.2538915525E-14  1.1252773539E-01
           xangst8     2.6445408464E+00  2.6014694283E+00  2.7237404858E+00
                       7.9336225393E+00  7.8044082848E+00  8.1795915466E+00
                       5.2890816929E+00  7.9771957979E+00  5.5285786998E+00
                       5.2890816929E+00  5.2029388566E+00  2.5480607144E+00
                       5.2890816928E+00  5.2029388565E+00  8.1844253681E+00
                       5.2890816928E+00  2.4286819152E+00  5.5285786997E+00
                       7.7543699743E+00  5.2029388566E+00  5.4194516617E+00
                       2.8237934115E+00  5.2029388565E+00  5.4194516617E+00
                      -1.6760927619E-12 -1.8154926242E-12  1.1492964796E-01
           xangst9     2.6186534270E+00  2.5707261700E+00  2.6917213438E+00
                       7.8559602810E+00  7.7121785100E+00  8.0875526537E+00
                       5.2373068541E+00  7.8580346991E+00  5.4649273884E+00
                       5.2373068541E+00  5.1414523400E+00  2.5488609401E+00
                       5.2373068539E+00  5.1414523399E+00  8.0805677229E+00
                       5.2373068539E+00  2.4248699809E+00  5.4649273883E+00
                       7.6636757182E+00  5.1414523400E+00  5.3549496059E+00
                       2.8109379898E+00  5.1414523399E+00  5.3549496060E+00
                      -3.5137841200E-12 -2.2118755623E-12  1.1819383018E-01
           xangst10    2.5926758132E+00  2.5396177736E+00  2.6592301911E+00
                       7.7780274397E+00  7.6188533209E+00  7.9960063084E+00
                       5.1853516266E+00  7.7383346716E+00  5.4030638775E+00
                       5.1853516266E+00  5.0792355473E+00  2.5488023298E+00
                       5.1853516264E+00  5.0792355472E+00  7.9798297262E+00
                       5.1853516264E+00  2.4201364229E+00  5.4030638774E+00
                       7.5738514124E+00  5.0792355473E+00  5.2910993070E+00
                       2.7968518406E+00  5.0792355472E+00  5.2910993071E+00
                      -4.0037817965E-12 -2.2465484548E-12  1.2201401381E-01
            xcart1     5.4209886623E+00  5.2897498317E+00  5.5229695912E+00
                       1.6262965987E+01  1.5869249495E+01  1.6529655871E+01
                       1.0841977325E+01  1.6550820462E+01  1.1124972156E+01
                       1.0841977325E+01  1.0579499663E+01  4.7946761215E+00
                       1.0841977324E+01  1.0579499663E+01  1.6711347469E+01
                       1.0841977324E+01  4.6081788648E+00  1.1124972156E+01
                       1.6231672305E+01  1.0579499663E+01  1.1027185355E+01
                       5.4522823441E+00  1.0579499663E+01  1.1027185355E+01
                      -5.4015926328E-12 -4.2224868346E-12  1.9052616346E-01
            xcart2     5.3560916899E+00  5.2366152726E+00  5.4775297165E+00
                       1.6068275070E+01  1.5709845818E+01  1.6393043761E+01
                       1.0712183380E+01  1.6338517115E+01  1.1035825732E+01
                       1.0712183380E+01  1.0473230545E+01  4.7967460336E+00
                       1.0712183380E+01  1.0473230545E+01  1.6542406035E+01
                       1.0712183380E+01  4.6079439759E+00  1.1035825732E+01
                       1.5983899503E+01  1.0473230545E+01  1.0925333740E+01
                       5.4404672565E+00  1.0473230545E+01  1.0925333740E+01
                      -6.0558889874E-12 -5.3548039095E-12  1.9206786501E-01
            xcart3     5.2858965153E+00  5.1927064055E+00  5.4151488216E+00
                       1.5857689546E+01  1.5578119216E+01  1.6231167152E+01
                       1.0571793031E+01  1.6163798188E+01  1.0950546987E+01
                       1.0571793031E+01  1.0385412811E+01  4.8040347866E+00
                       1.0571793030E+01  1.0385412811E+01  1.6363401023E+01
                       1.0571793030E+01  4.6070274341E+00  1.0950546987E+01
                       1.5716912358E+01  1.0385412811E+01  1.0807448313E+01
                       5.4266737032E+00  1.0385412811E+01  1.0807448313E+01
                      -6.3474068947E-12 -3.6037739455E-12  1.9840425937E-01
            xcart4     5.2245521462E+00  5.1373420116E+00  5.3695126538E+00
                       1.5673656439E+01  1.5412026035E+01  1.6091882625E+01
                       1.0449104293E+01  1.5943915968E+01  1.0857549874E+01
                       1.0449104293E+01  1.0274684023E+01  4.8052121044E+00
                       1.0449104292E+01  1.0274684023E+01  1.6193019901E+01
                       1.0449104292E+01  4.6054520782E+00  1.0857549874E+01
                       1.5485707877E+01  1.0274684023E+01  1.0702451498E+01
                       5.4125007081E+00  1.0274684023E+01  1.0702451498E+01
                      -8.8426979757E-12 -5.5494707506E-12  1.9932974160E-01
            xcart5     5.1645976534E+00  5.0852670209E+00  5.3156221675E+00
                       1.5493792960E+01  1.5255801063E+01  1.5934660704E+01
                       1.0329195307E+01  1.5738106194E+01  1.0755404433E+01
                       1.0329195307E+01  1.0170534042E+01  4.8085802463E+00
                       1.0329195307E+01  1.0170534042E+01  1.6007346157E+01
                       1.0329195307E+01  4.6029618897E+00  1.0755404433E+01
                       1.5262060101E+01  1.0170534042E+01  1.0586181971E+01
                       5.3963305131E+00  1.0170534042E+01  1.0586181971E+01
                      -1.1285820273E-11 -7.3936192743E-12  2.0292620951E-01
            xcart6     5.1051057899E+00  5.0306895222E+00  5.2580321001E+00
                       1.5315317370E+01  1.5092068567E+01  1.5778036863E+01
                       1.0210211580E+01  1.5522887298E+01  1.0663241761E+01
                       1.0210211580E+01  1.0061379044E+01  4.8121300782E+00
                       1.0210211579E+01  1.0061379044E+01  1.5833418347E+01
                       1.0210211579E+01  4.5998707912E+00  1.0663241760E+01
                       1.5042308651E+01  1.0061379044E+01  1.0472006954E+01
                       5.3781145080E+00  1.0061379044E+01  1.0472006954E+01
                      -8.1279068541E-12 -2.6705483459E-12  2.0792328979E-01
            xcart7     5.0487964414E+00  4.9745318119E+00  5.2029957839E+00
                       1.5146389324E+01  1.4923595436E+01  1.5620733251E+01
                       1.0097592883E+01  1.5302775573E+01  1.0559988815E+01
                       1.0097592883E+01  9.9490636239E+00  4.8141966794E+00
                       1.0097592883E+01  9.9490636239E+00  1.5654295216E+01
                       1.0097592883E+01  4.5953516743E+00  1.0559988815E+01
                       1.4837124159E+01  9.9490636239E+00  1.0358527288E+01
                       5.3580616062E+00  9.9490636239E+00  1.0358527288E+01
                      -1.6298570510E-12  2.3695116346E-14  2.1264660224E-01
            xcart8     4.9974579470E+00  4.9160647625E+00  5.1471235752E+00
                       1.4992373841E+01  1.4748194288E+01  1.5457187902E+01
                       9.9949158941E+00  1.5074715366E+01  1.0447499647E+01
                       9.9949158941E+00  9.8321295251E+00  4.8151369202E+00
                       9.9949158939E+00  9.8321295250E+00  1.5466322501E+01
                       9.9949158939E+00  4.5895436836E+00  1.0447499647E+01
                       1.4653635584E+01  9.8321295251E+00  1.0241279431E+01
                       5.3361962036E+00  9.8321295250E+00  1.0241279431E+01
                      -3.1673562933E-12 -3.4307838561E-12  2.1718555918E-01
            xcart9     4.9485378140E+00  4.8579684239E+00  5.0866161658E+00
                       1.4845613442E+01  1.4573905272E+01  1.5283259601E+01
                       9.8970756281E+00  1.4849533524E+01  1.0327216100E+01
                       9.8970756281E+00  9.7159368480E+00  4.8166491276E+00
                       9.8970756278E+00  9.7159368478E+00  1.5270059994E+01
                       9.8970756278E+00  4.5823401718E+00  1.0327216100E+01
                       1.4482248279E+01  9.7159368480E+00  1.0119388211E+01
                       5.3119029772E+00  9.7159368478E+00  1.0119388211E+01
                      -6.6400896769E-12 -4.1798390527E-12  2.2335396963E-01
            xcart10    4.8994472384E+00  4.7991820744E+00  5.0252167855E+00
                       1.4698341715E+01  1.4397546223E+01  1.5110262080E+01
                       9.7988944769E+00  1.4623333254E+01  1.0210311007E+01
                       9.7988944769E+00  9.5983641488E+00  4.8165383702E+00
                       9.7988944766E+00  9.5983641486E+00  1.5079692770E+01
                       9.7988944766E+00  4.5733950434E+00  1.0210311007E+01
                       1.4312504941E+01  9.5983641488E+00  9.9987286322E+00
                       5.2852840129E+00  9.5983641486E+00  9.9987286324E+00
                      -7.5660510913E-12 -4.2453613238E-12  2.3057307047E-01
             xred1     2.5089156949E-01  2.5089156949E-01  2.4910843051E-01
                       7.5089156949E-01  7.5089156949E-01  7.4910843051E-01
                       7.8758523605E-01  2.2316149310E-01  7.7683850690E-01
                       2.1780743085E-01  2.1780743085E-01  7.8219256915E-01
                       7.5914526154E-01  7.5914526154E-01  2.4085473846E-01
                       2.2316149310E-01  7.8758523605E-01  2.1241476395E-01
                       2.5237438237E-01  7.4948803785E-01  7.4762561763E-01
                       7.4948803785E-01  2.5237438237E-01  2.5051196215E-01
                       8.6550192592E-03  8.6550192592E-03 -8.6550192592E-03
             xred2     2.5090571522E-01  2.5090571522E-01  2.4909428478E-01
                       7.5090571522E-01  7.5090571522E-01  7.4909428478E-01
                       7.8552428719E-01  2.2549779450E-01  7.7450220550E-01
                       2.1972149063E-01  2.1972149063E-01  7.8027850937E-01
                       7.5774745780E-01  7.5774745780E-01  2.4225254220E-01
                       2.2549779450E-01  7.8552428719E-01  2.1447571281E-01
                       2.5438810374E-01  7.4651150532E-01  7.4561189626E-01
                       7.4651150532E-01  2.5438810374E-01  2.5348849468E-01
                       8.7979303691E-03  8.7979303691E-03 -8.7979303691E-03
             xred3     2.5033005012E-01  2.5033005012E-01  2.4966994988E-01
                       7.5033005012E-01  7.5033005012E-01  7.4966994988E-01
                       7.8441614737E-01  2.2802176209E-01  7.7197823791E-01
                       2.2207963410E-01  2.2207963410E-01  7.7792036590E-01
                       7.5644292212E-01  7.5644292212E-01  2.4355707788E-01
                       2.2802176209E-01  7.8441614737E-01  2.1558385263E-01
                       2.5626197850E-01  7.4294567657E-01  7.4373802150E-01
                       7.4294567657E-01  2.5626197850E-01  2.5705432343E-01
                       9.1717789904E-03  9.1717789904E-03 -9.1717789904E-03
             xred4     2.5038833151E-01  2.5038833151E-01  2.4961166849E-01
                       7.5038833151E-01  7.5038833151E-01  7.4961166849E-01
                       7.8218715696E-01  2.3042012138E-01  7.6957987862E-01
                       2.2407416072E-01  2.2407416072E-01  7.7592583928E-01
                       7.5510451255E-01  7.5510451255E-01  2.4489548745E-01
                       2.3042012138E-01  7.8218715696E-01  2.1781284304E-01
                       2.5806469710E-01  7.4007764705E-01  7.4193530290E-01
                       7.4007764705E-01  2.5806469710E-01  2.5992235295E-01
                       9.2950412145E-03  9.2950412145E-03 -9.2950412145E-03
             xred5     2.5028735649E-01  2.5028735649E-01  2.4971264351E-01
                       7.5028735649E-01  7.5028735649E-01  7.4971264351E-01
                       7.8013172615E-01  2.3270991632E-01  7.6729008368E-01
                       2.2641316489E-01  2.2641316489E-01  7.7358683511E-01
                       7.5370976865E-01  7.5370976865E-01  2.4629023135E-01
                       2.3270991632E-01  7.8013172615E-01  2.1986827385E-01
                       2.5967031301E-01  7.3723556831E-01  7.4032968699E-01
                       7.3723556831E-01  2.5967031301E-01  2.6276443169E-01
                       9.5548296965E-03  9.5548296965E-03 -9.5548296965E-03
             xred6     2.4990635548E-01  2.4990635548E-01  2.5009364452E-01
                       7.4990635548E-01  7.4990635548E-01  7.5009364452E-01
                       7.7821736590E-01  2.3539831206E-01  7.6460168794E-01
                       2.2871330320E-01  2.2871330320E-01  7.7128669680E-01
                       7.5253855407E-01  7.5253855407E-01  2.4746144593E-01
                       2.3539831206E-01  7.7821736590E-01  2.2178263410E-01
                       2.6108813205E-01  7.3434934059E-01  7.3891186795E-01
                       7.3434934059E-01  2.6108813205E-01  2.6565065941E-01
                       9.8822811616E-03  9.8822811616E-03 -9.8822811616E-03
             xred7     2.4971812738E-01  2.4971812738E-01  2.5028187262E-01
                       7.4971812738E-01  7.4971812738E-01  7.5028187262E-01
                       7.7588343446E-01  2.3777129125E-01  7.6222870875E-01
                       2.3105768860E-01  2.3105768860E-01  7.6894231140E-01
                       7.5132893609E-01  7.5132893609E-01  2.4867106391E-01
                       2.3777129125E-01  7.7588343446E-01  2.2411656554E-01
                       2.6247200992E-01  7.3184439714E-01  7.3752799008E-01
                       7.3184439714E-01  2.6247200992E-01  2.6815560286E-01
                       1.0205987764E-02  1.0205987764E-02 -1.0205987764E-02
             xred8     2.4961646272E-01  2.4961646272E-01  2.5038353728E-01
                       7.4961646272E-01  7.4961646272E-01  7.5038353728E-01
                       7.7326990438E-01  2.4006030537E-01  7.5993969463E-01
                       2.3351633742E-01  2.3351633742E-01  7.6648366258E-01
                       7.5005945699E-01  7.5005945699E-01  2.4994054301E-01
                       2.4006030537E-01  7.7326990438E-01  2.2673009562E-01
                       2.6360971500E-01  7.2971865877E-01  7.3639028500E-01
                       7.2971865877E-01  2.6360971500E-01  2.7028134123E-01
                       1.0532696611E-02  1.0532696611E-02 -1.0532696611E-02
             xred9     2.4942600956E-01  2.4942600956E-01  2.5057399044E-01
                       7.4942600956E-01  7.4942600956E-01  7.5057399044E-01
                       7.7058706518E-01  2.4221839045E-01  7.5778160955E-01
                       2.3618797491E-01  2.3618797491E-01  7.6381202509E-01
                       7.4877875704E-01  7.4877875704E-01  2.5122124296E-01
                       2.4221839045E-01  7.7058706518E-01  2.2941293482E-01
                       2.6456893105E-01  7.2785453410E-01  7.3543106895E-01
                       7.2785453410E-01  2.6456893105E-01  2.7214546590E-01
                       1.0952328139E-02  1.0952328139E-02 -1.0952328139E-02
             xred10    2.4914200377E-01  2.4914200377E-01  2.5085799623E-01
                       7.4914200377E-01  7.4914200377E-01  7.5085799623E-01
                       7.6797221393E-01  2.4444872311E-01  7.5555127689E-01
                       2.3879607030E-01  2.3879607030E-01  7.6120392970E-01
                       7.4762642752E-01  7.4762642752E-01  2.5237357248E-01
                       2.4444872311E-01  7.6797221393E-01  2.3202778607E-01
                       2.6540833218E-01  7.2603279084E-01  7.3459166782E-01
                       7.2603279084E-01  2.6540833218E-01  2.7396720916E-01
                       1.1431434552E-02  1.1431434552E-02 -1.1431434552E-02
            znucl       55.00000   53.00000   72.00000   17.00000

================================================================================

 chkinp: Checking input parameters for consistency, jdtset=   1.

 chkinp: Checking input parameters for consistency, jdtset=   2.

 chkinp: Checking input parameters for consistency, jdtset=   3.

 chkinp: Checking input parameters for consistency, jdtset=   4.

 chkinp: Checking input parameters for consistency, jdtset=   5.

 chkinp: Checking input parameters for consistency, jdtset=   6.

 chkinp: Checking input parameters for consistency, jdtset=   7.

 chkinp: Checking input parameters for consistency, jdtset=   8.

 chkinp: Checking input parameters for consistency, jdtset=   9.

 chkinp: Checking input parameters for consistency, jdtset=  10.

================================================================================
== DATASET  1 ==================================================================
-   mpi_nproc: 6, omp_nthreads: -1 (-1 if OMP is not activated)


--- !DatasetInfo
iteration_state: {dtset: 1, }
dimensions: {natom: 9, nkpt: 280, mband: 42, nsppol: 1, nspinor: 1, nspden: 1, mpw: 7756, }
cutoff_energies: {ecut:  16.0, pawecutdg:  40.0, }
electrons: {nelect:   7.20000000E+01, charge:   0.00000000E+00, occopt:   1.00000000E+00, tsmear:   1.00000000E-02, }
meta: {optdriver: 0, ionmov: 0, optcell: 0, iscf: 17, paral_kgb: 0, }
...

 Real(R)+Recip(G) space primitive vectors, cartesian coordinates (Bohr,Bohr^-1):
 R(1)=  0.0000000 10.5794997 11.0066863  G(1)= -0.0461170  0.0472612  0.0454269
 R(2)= 10.8419773  0.0000000 11.0066863  G(2)=  0.0461170 -0.0472612  0.0454269
 R(3)= 10.8419773 10.5794997  0.0000000  G(3)=  0.0461170  0.0472612 -0.0454269
 Unit cell volume ucvol=  2.5249932E+03 bohr^3
 Angles (23,13,12)=  5.98504307E+01  6.10550715E+01  5.90944978E+01 degrees

 Coarse grid specifications (used for wave-functions):

 getcut: wavevector=  0.0000  0.0000  0.0000  ngfft=  60  60  60
         ecut(hartree)=     16.000   => boxcut(ratio)=   2.15702

 Fine grid specifications (used for densities):

 getcut: wavevector=  0.0000  0.0000  0.0000  ngfft=  90  90  90
         ecut(hartree)=     40.000   => boxcut(ratio)=   2.04614

--- Pseudopotential description ------------------------------------------------
- pspini: atom type   1  psp file is ../../../Psps_for_tests/ATOMICDATA/Cs.GGA_PBE-JTH.xml
- pspatm: opening atomic psp file    ../../../Psps_for_tests/ATOMICDATA/Cs.GGA_PBE-JTH.xml
- pspatm : Reading pseudopotential header in XML form from ../../../Psps_for_tests/ATOMICDATA/Cs.GGA_PBE-JTH.xml
 Pseudopotential format is: paw10
 basis_size (lnmax)=  6 (lmn_size= 18), orbitals=   0   0   1   1   2   2
 Spheres core radius: rc_sph= 2.20660278
 1 radial meshes are used:
  - mesh 1: r(i)=AA*[exp(BB*(i-1))-1], size=1500 , AA= 0.15922E-03 BB= 0.87573E-02
 Shapefunction is SIN type: shapef(r)=[sin(pi*r/rshp)/(pi*r/rshp)]**2
 Radius for shape functions =  2.00394208
 mmax= 1500
 Radial grid used for partial waves is grid 1
 Radial grid used for projectors is grid 1
 Radial grid used for (t)core density is grid 1
 Radial grid used for Vloc is grid 1
 Radial grid used for pseudo valence density is grid 1
 Mesh size for Vloc has been set to 1341 to avoid numerical noise.
 Compensation charge density is not taken into account in XC energy/potential
 pspatm: atomic psp has been read  and splines computed

- pspini: atom type   2  psp file is ../../../Psps_for_tests/ATOMICDATA/I.GGA_PBE-JTH.xml
- pspatm: opening atomic psp file    ../../../Psps_for_tests/ATOMICDATA/I.GGA_PBE-JTH.xml
- pspatm : Reading pseudopotential header in XML form from ../../../Psps_for_tests/ATOMICDATA/I.GGA_PBE-JTH.xml
 Pseudopotential format is: paw10
 basis_size (lnmax)=  4 (lmn_size=  8), orbitals=   0   0   1   1
 Spheres core radius: rc_sph= 2.30022271
 1 radial meshes are used:
  - mesh 1: r(i)=AA*[exp(BB*(i-1))-1], size=2000 , AA= 0.12610E-03 BB= 0.66836E-02
 Shapefunction is SIN type: shapef(r)=[sin(pi*r/rshp)/(pi*r/rshp)]**2
 Radius for shape functions =  2.10879093
 mmax= 2000
 Radial grid used for partial waves is grid 1
 Radial grid used for projectors is grid 1
 Radial grid used for (t)core density is grid 1
 Radial grid used for Vloc is grid 1
 Radial grid used for pseudo valence density is grid 1
 Mesh size for Vloc has been set to 1792 to avoid numerical noise.
 Compensation charge density is not taken into account in XC energy/potential
 pspatm: atomic psp has been read  and splines computed

- pspini: atom type   3  psp file is ../../../Psps_for_tests/ATOMICDATA/Hf.GGA_PBE-JTH.xml
- pspatm: opening atomic psp file    ../../../Psps_for_tests/ATOMICDATA/Hf.GGA_PBE-JTH.xml
- pspatm : Reading pseudopotential header in XML form from ../../../Psps_for_tests/ATOMICDATA/Hf.GGA_PBE-JTH.xml
 Pseudopotential format is: paw10
 basis_size (lnmax)=  6 (lmn_size= 18), orbitals=   0   0   1   1   2   2
 Spheres core radius: rc_sph= 2.41000000
 1 radial meshes are used:
  - mesh 1: r(i)=AA*[exp(BB*(i-1))-1], size= 972 , AA= 0.19796E-03 BB= 0.14253E-01
 Shapefunction is SIN type: shapef(r)=[sin(pi*r/rshp)/(pi*r/rshp)]**2
 Radius for shape functions =  2.41000000
 mmax=  972
 Radial grid used for partial waves is grid 1
 Radial grid used for projectors is grid 1
 Radial grid used for (t)core density is grid 1
 Radial grid used for Vloc is grid 1
 Radial grid used for pseudo valence density is grid 1
 Mesh size for Vloc has been set to  809 to avoid numerical noise.
 Compensation charge density is not taken into account in XC energy/potential
 pspatm: atomic psp has been read  and splines computed

- pspini: atom type   4  psp file is ../../../Psps_for_tests/ATOMICDATA/Cl.GGA_PBE-JTH.xml
- pspatm: opening atomic psp file    ../../../Psps_for_tests/ATOMICDATA/Cl.GGA_PBE-JTH.xml
- pspatm : Reading pseudopotential header in XML form from ../../../Psps_for_tests/ATOMICDATA/Cl.GGA_PBE-JTH.xml
 Pseudopotential format is: paw10
 basis_size (lnmax)=  4 (lmn_size=  8), orbitals=   0   0   1   1
 Spheres core radius: rc_sph= 1.80315674
 1 radial meshes are used:
  - mesh 1: r(i)=AA*[exp(BB*(i-1))-1], size=1400 , AA= 0.50355E-03 BB= 0.85603E-02
 Shapefunction is SIN type: shapef(r)=[sin(pi*r/rshp)/(pi*r/rshp)]**2
 Radius for shape functions =  1.61320365
 mmax= 1400
 Radial grid used for partial waves is grid 1
 Radial grid used for projectors is grid 1
 Radial grid used for (t)core density is grid 1
 Radial grid used for Vloc is grid 1
 Radial grid used for pseudo valence density is grid 1
 Mesh size for Vloc has been set to 1238 to avoid numerical noise.
 Compensation charge density is not taken into account in XC energy/potential
 pspatm: atomic psp has been read  and splines computed

   3.28895151E+04                                ecore*ucvol(ha*bohr**3)
--------------------------------------------------------------------------------

_setup2: Arith. and geom. avg. npw (full set) are    7718.567    7718.559

================================================================================

--- !BeginCycle
iteration_state: {dtset: 1, }
solver: {iscf: 17, nstep: 2500, nline: 4, wfoptalg: 10, }
tolerances: {toldfe: 1.00E-08, }
...

     iter   Etot(hartree)      deltaE(h)  residm     nres2
 ETOT  1  -169.58602289276    -1.696E+02 9.537E+00 5.391E+00
 ETOT  2  -171.88094882573    -2.295E+00 4.463E-02 5.821E+00
 ETOT  3  -171.85182790520     2.912E-02 1.947E-02 1.071E+00
 ETOT  4  -171.84921971011     2.608E-03 7.076E-03 1.524E-01
 ETOT  5  -171.84941439263    -1.947E-04 9.118E-03 3.717E-02
 ETOT  6  -171.84950096818    -8.658E-05 3.097E-03 2.917E-03
 ETOT  7  -171.84951596037    -1.499E-05 2.400E-03 1.266E-03
 ETOT  8  -171.84952196490    -6.005E-06 1.336E-03 4.103E-04
 ETOT  9  -171.84952349548    -1.531E-06 1.365E-03 1.302E-04
 ETOT 10  -171.84952344615     4.933E-08 1.367E-03 1.074E-05
 ETOT 11  -171.84952354914    -1.030E-07 1.606E-03 9.451E-06
 ETOT 12  -171.84952353634     1.281E-08 1.018E-03 1.700E-06
 ETOT 13  -171.84952354472    -8.380E-09 9.254E-04 8.277E-07
 ETOT 14  -171.84952354404     6.773E-10 5.047E-04 6.054E-07

 At SCF step   14, etot is converged : 
  for the second time, diff in etot=  6.773E-10 < toldfe=  1.000E-08

 Cartesian components of stress tensor (hartree/bohr^3)
  sigma(1 1)= -3.04329893E-06  sigma(3 2)=  1.31085613E-13
  sigma(2 2)= -2.94144419E-06  sigma(3 1)=  1.29751157E-13
  sigma(3 3)= -2.96169197E-06  sigma(2 1)= -2.68066555E-13


--- !ResultsGS
iteration_state: {dtset: 1, }
comment   : Summary of ground state results
lattice_vectors:
- [  0.0000000,  10.5794997,  11.0066863, ]
- [ 10.8419773,   0.0000000,  11.0066863, ]
- [ 10.8419773,  10.5794997,   0.0000000, ]
lattice_lengths: [  15.26673,   15.44978,   15.14841, ]
lattice_angles: [ 59.850,  61.055,  59.094, ] # degrees, (23, 13, 12)
lattice_volume:   2.5249932E+03
convergence: {deltae:  6.773E-10, res2:  6.054E-07, residm:  5.047E-04, diffor: null, }
etotal    :  -1.71849524E+02
entropy   :   0.00000000E+00
fermie    :  -8.08630736E-02
cartesian_stress_tensor: # hartree/bohr^3
- [ -3.04329893E-06,  -2.68066555E-13,   1.29751157E-13, ]
- [ -2.68066555E-13,  -2.94144419E-06,   1.31085613E-13, ]
- [  1.29751157E-13,   1.31085613E-13,  -2.96169197E-06, ]
pressure_GPa:   8.7738E-02
xred      :
- [  2.5089E-01,   2.5089E-01,   2.4911E-01, Cs]
- [  7.5089E-01,   7.5089E-01,   7.4911E-01, Cs]
- [  7.8759E-01,   2.2316E-01,   7.7684E-01, Cl]
- [  2.1781E-01,   2.1781E-01,   7.8219E-01, Cl]
- [  7.5915E-01,   7.5915E-01,   2.4085E-01,  I]
- [  2.2316E-01,   7.8759E-01,   2.1241E-01, Cl]
- [  2.5237E-01,   7.4949E-01,   7.4763E-01,  I]
- [  7.4949E-01,   2.5237E-01,   2.5051E-01,  I]
- [  8.6550E-03,   8.6550E-03,  -8.6550E-03, Hf]
cartesian_forces: # hartree/bohr
- [ -5.27266706E-17,   5.40372353E-17,   1.65595407E-05, ]
- [ -5.27266706E-17,   5.40372353E-17,   1.65595407E-05, ]
- [ -1.76321540E-15,   8.20490281E-05,  -2.60044978E-05, ]
- [ -1.34858484E-16,   1.38210217E-16,   4.23548605E-05, ]
- [ -2.67029605E-18,   2.73837283E-18,   8.38681262E-07, ]
- [  1.92881077E-15,  -8.20490281E-05,  -2.60044978E-05, ]
- [  2.68713662E-05,  -7.74530271E-16,   5.53374607E-06, ]
- [ -2.68713662E-05,   8.10648267E-16,   5.53374607E-06, ]
- [  1.12623482E-16,  -1.15418754E-16,  -3.53711198E-05, ]
force_length_stats: {min:   8.38681262E-07, max:   8.60713479E-05, mean:   3.76329921E-05, }
...

 Integrated electronic density in atomic spheres:
 ------------------------------------------------
 Atom  Sphere_radius  Integrated_density
    1        2.20660          5.36433246
    2        2.20660          5.36433246
    3        1.80316          4.35860677
    4        1.80316          4.37084109
    5        2.30022          4.01929361
    6        1.80316          4.35860677
    7        2.30022          4.01407935
    8        2.30022          4.01407935
    9        2.41000          9.29057405

 PAW TEST:
 ==== Compensation charge inside spheres ============
 The following values must be close to each other ...
 Compensation charge over spherical meshes =     -1.019070433375432
 Compensation charge over fine fft grid    =     -1.019066237999998

 ==== Results concerning PAW augmentation regions ====

 Total pseudopotential strength Dij (hartree):
 Atom #  1
   0.43905  -0.14539   0.00000   0.00000   0.00000   0.00000  -0.00001   0.00000   0.00000   0.00000  -0.00000   0.00000 ...
  -0.14539   0.04381   0.00000  -0.00000   0.00000   0.00000   0.00000   0.00000  -0.00000   0.00000   0.00000   0.00000 ...
   0.00000   0.00000  -0.09344   0.00000   0.00000  -0.16663   0.00000  -0.00000   0.00000   0.00000   0.00000  -0.00000 ...
   0.00000  -0.00000   0.00000  -0.09344   0.00000   0.00000  -0.16663   0.00000  -0.00000   0.00000   0.00000   0.00000 ...
   0.00000   0.00000   0.00000   0.00000  -0.09344  -0.00000   0.00000  -0.16663   0.00000  -0.00000   0.00000   0.00000 ...
   0.00000   0.00000  -0.16663   0.00000  -0.00000   0.40362   0.00000   0.00002   0.00000  -0.00000   0.00000   0.00000 ...
  -0.00001   0.00000   0.00000  -0.16663   0.00000   0.00000   0.40362   0.00000   0.00000   0.00000  -0.00000   0.00000 ...
   0.00000   0.00000  -0.00000   0.00000  -0.16663   0.00002   0.00000   0.40363   0.00000   0.00000   0.00000  -0.00000 ...
   0.00000  -0.00000   0.00000  -0.00000   0.00000   0.00000   0.00000   0.00000   0.00524   0.00000  -0.00000   0.00000 ...
   0.00000   0.00000   0.00000   0.00000  -0.00000  -0.00000   0.00000   0.00000   0.00000   0.00524   0.00000   0.00000 ...
  -0.00000   0.00000   0.00000   0.00000   0.00000   0.00000  -0.00000   0.00000  -0.00000   0.00000   0.00524   0.00000 ...
   0.00000   0.00000  -0.00000   0.00000   0.00000   0.00000   0.00000  -0.00000   0.00000   0.00000   0.00000   0.00524 ...
   ...  only 12  components have been written...
 Atom #  9
  -3.51580   0.42736   0.00000   0.00032   0.00000   0.00000  -0.00005   0.00000   0.00000   0.00000  -0.00007   0.00000 ...
   0.42736   0.00301   0.00000  -0.00001   0.00000   0.00000   0.00000   0.00000   0.00000   0.00000   0.00001   0.00000 ...
   0.00000   0.00000  -1.45092   0.00000   0.00000   0.12241   0.00000   0.00000   0.00000   0.00017   0.00000   0.00000 ...
   0.00032  -0.00001   0.00000  -1.45197   0.00000   0.00000   0.12259   0.00000   0.00000   0.00000   0.00018   0.00000 ...
   0.00000   0.00000   0.00000   0.00000  -1.45249   0.00000   0.00000   0.12268   0.00000   0.00000   0.00000   0.00016 ...
   0.00000   0.00000   0.12241   0.00000   0.00000   0.01354   0.00000   0.00000   0.00000  -0.00003   0.00000   0.00000 ...
  -0.00005   0.00000   0.00000   0.12259   0.00000   0.00000   0.01351   0.00000   0.00000   0.00000  -0.00002   0.00000 ...
   0.00000   0.00000   0.00000   0.00000   0.12268   0.00000   0.00000   0.01350   0.00000   0.00000   0.00000  -0.00003 ...
   0.00000   0.00000   0.00000   0.00000   0.00000   0.00000   0.00000   0.00000  -0.39316   0.00000   0.00000   0.00000 ...
   0.00000   0.00000   0.00017   0.00000   0.00000  -0.00003   0.00000   0.00000   0.00000  -0.39306   0.00000   0.00000 ...
  -0.00007   0.00001   0.00000   0.00018   0.00000   0.00000  -0.00002   0.00000   0.00000   0.00000  -0.39256   0.00000 ...
   0.00000   0.00000   0.00000   0.00000   0.00016   0.00000   0.00000  -0.00003   0.00000   0.00000   0.00000  -0.39335 ...
   ...  only 12  components have been written...


 Augmentation waves occupancies Rhoij:
 Atom #  1
   1.99724  -0.01577   0.00000  -0.00000   0.00000   0.00000   0.00003   0.00000   0.00413   0.00000  -0.00052   0.00000 ...
  -0.01577   0.12882   0.00000   0.00253   0.00000   0.00000  -0.00006   0.00000  -0.02299   0.00000  -0.00000   0.00000 ...
   0.00000   0.00000   2.01043   0.00000  -0.00277  -0.00521   0.00000   0.00041   0.00000   0.00120   0.00000   0.00052 ...
  -0.00000   0.00253   0.00000   2.00951   0.00000   0.00000  -0.00501   0.00000   0.00033   0.00000   0.00073   0.00000 ...
   0.00000   0.00000  -0.00277   0.00000   2.00704   0.00041   0.00000  -0.00464   0.00000   0.00023   0.00000   0.00263 ...
   0.00000   0.00000  -0.00521   0.00000   0.00041   0.00011   0.00000  -0.00002   0.00000  -0.00002   0.00000  -0.00003 ...
   0.00003  -0.00006   0.00000  -0.00501   0.00000   0.00000   0.00009   0.00000  -0.00002   0.00000  -0.00000   0.00000 ...
   0.00000   0.00000   0.00041   0.00000  -0.00464  -0.00002   0.00000   0.00007   0.00000  -0.00001   0.00000  -0.00007 ...
   0.00413  -0.02299   0.00000   0.00033   0.00000   0.00000  -0.00002   0.00000   0.04084   0.00000   0.01503   0.00000 ...
   0.00000   0.00000   0.00120   0.00000   0.00023  -0.00002   0.00000  -0.00001   0.00000   0.05762   0.00000  -0.00023 ...
  -0.00052  -0.00000   0.00000   0.00073   0.00000   0.00000  -0.00000   0.00000   0.01503   0.00000   0.02698   0.00000 ...
   0.00000   0.00000   0.00052   0.00000   0.00263  -0.00003   0.00000  -0.00007   0.00000  -0.00023   0.00000   0.01570 ...
   ...  only 12  components have been written...
 Atom #  9
   1.99778  -0.02290   0.00000  -0.00013   0.00000   0.00000  -0.00110   0.00000   0.00000   0.00000  -0.00067   0.00000 ...
  -0.02290   0.99978   0.00000  -0.00376   0.00000   0.00000   0.05708   0.00000   0.00000   0.00000  -0.00627   0.00000 ...
   0.00000   0.00000   1.99148   0.00000   0.00000  -0.07669   0.00000   0.00000   0.00000   0.00075   0.00000   0.00000 ...
  -0.00013  -0.00376   0.00000   1.99198   0.00000   0.00000  -0.07033   0.00000   0.00000   0.00000   0.00015   0.00000 ...
   0.00000   0.00000   0.00000   0.00000   1.99234   0.00000   0.00000  -0.06539   0.00000   0.00000   0.00000   0.00090 ...
   0.00000   0.00000  -0.07669   0.00000   0.00000   1.51857   0.00000   0.00000   0.00000  -0.01633   0.00000   0.00000 ...
  -0.00110   0.05708   0.00000  -0.07033   0.00000   0.00000   1.29130   0.00000   0.00000   0.00000   0.20458   0.00000 ...
   0.00000   0.00000   0.00000   0.00000  -0.06539   0.00000   0.00000   1.11210   0.00000   0.00000   0.00000  -0.02780 ...
   0.00000   0.00000   0.00000   0.00000   0.00000   0.00000   0.00000   0.00000   0.49151   0.00000   0.00000   0.00000 ...
   0.00000   0.00000   0.00075   0.00000   0.00000  -0.01633   0.00000   0.00000   0.00000   0.52828   0.00000   0.00000 ...
  -0.00067  -0.00627   0.00000   0.00015   0.00000   0.00000   0.20458   0.00000   0.00000   0.00000   1.49732   0.00000 ...
   0.00000   0.00000   0.00000   0.00000   0.00090   0.00000   0.00000  -0.02780   0.00000   0.00000   0.00000   0.44394 ...
   ...  only 12  components have been written...


================================================================================

 ----iterations are completed or convergence reached----

 Mean square residual over all n,k,spin=   97.845E-08; max=  50.470E-05
 reduced coordinates (array xred) for    9 atoms
       0.250891569490      0.250891569490      0.249108430510
       0.750891569490      0.750891569490      0.749108430510
       0.787585236050      0.223161493100      0.776838506900
       0.217807430850      0.217807430850      0.782192569150
       0.759145261540      0.759145261540      0.240854738460
       0.223161493100      0.787585236050      0.212414763950
       0.252374382370      0.749488037850      0.747625617630
       0.749488037850      0.252374382370      0.250511962150
       0.008655019259      0.008655019259     -0.008655019259
 rms dE/dt=  4.1217E-04; max dE/dt=  1.1209E-03; dE/dt below (all hartree)
    1      -0.000215602063     -0.000215602063      0.000000000000
    2      -0.000215602063     -0.000215602063      0.000000000000
    3      -0.000615150710      0.000252886956     -0.000868037666
    4      -0.000499523055     -0.000499523055      0.000000000000
    5      -0.000042567495     -0.000042567495      0.000000000000
    6       0.001120924621      0.000252886956      0.000868037666
    7      -0.000094244600     -0.000385583343     -0.000291338743
    8      -0.000094244600      0.000197094143      0.000291338743
    9       0.000355982425      0.000355982425      0.000000000000

 cartesian coordinates (angstrom) at end:
    1      2.86866364810808     2.79921505006485     2.92262963138373
    2      8.60599094432484     8.39764515019503     8.74711715267570
    3      5.73732729630819     8.75831697188820     5.88708171111054
    4      5.73732729630995     5.59843010020302     2.53723332606098
    5      5.73732729613117     5.59843010006327     8.84326420537533
    6      5.73732729612178     2.43854322836937     5.88708171113117
    7      8.58943104112395     5.59843010019410     5.83533516463185
    8      2.88522355130895     5.59843010006576     5.83533516461369
    9     -0.00000000000286    -0.00000000000223     0.10082210334350

 cartesian forces (hartree/bohr) at end:
    1     -0.00000000000000     0.00000000000000     0.00001655954074
    2     -0.00000000000000     0.00000000000000     0.00001655954074
    3     -0.00000000000000     0.00008204902814    -0.00002600449779
    4     -0.00000000000000     0.00000000000000     0.00004235486045
    5     -0.00000000000000     0.00000000000000     0.00000083868126
    6      0.00000000000000    -0.00008204902814    -0.00002600449779
    7      0.00002687136619    -0.00000000000000     0.00000553374607
    8     -0.00002687136619     0.00000000000000     0.00000553374607
    9      0.00000000000000    -0.00000000000000    -0.00003537111975
 frms,max,avg= 2.7159426E-05 8.2049028E-05   0.000E+00  0.000E+00  3.029E-06 h/b

 cartesian forces (eV/Angstrom) at end:
    1     -0.00000000000000     0.00000000000000     0.00085152575027
    2     -0.00000000000000     0.00000000000000     0.00085152575027
    3     -0.00000000000009     0.00421913030992    -0.00133720492856
    4     -0.00000000000001     0.00000000000001     0.00217797431057
    5     -0.00000000000000     0.00000000000000     0.00004312672085
    6      0.00000000000010    -0.00421913030992    -0.00133720492875
    7      0.00138178109033    -0.00000000000004     0.00028455664026
    8     -0.00138178109033     0.00000000000004     0.00028455664018
    9      0.00000000000001    -0.00000000000001    -0.00181885595509
 frms,max,avg= 1.3965937E-03 4.2191303E-03   0.000E+00  0.000E+00  1.557E-04 e/A
 length scales= 15.266727088000 15.449777188000 15.148408677000 bohr
              =  8.078804024733  8.175669965683  8.016192618275 angstroms
 prteigrs : about to open file Cs2TiI6o_DS1_EIG
 Fermi (or HOMO) energy (hartree) =  -0.08086   Average Vxc (hartree)=  -0.28024
 Eigenvalues (hartree) for nkpt= 280  k points:
 kpt#   1, nband= 42, wtk=  0.00058, kpt=  0.0000  0.0000  0.0000 (reduced coord)
  -2.38019   -1.22490   -1.22462   -1.22436   -0.83491   -0.83474   -0.61198   -0.60309
  -0.59670   -0.49980   -0.49186   -0.48664   -0.35333   -0.35206   -0.35201   -0.35033
  -0.35030   -0.35026   -0.23890   -0.20521   -0.19797   -0.18742   -0.18733   -0.18291
  -0.17971   -0.17445   -0.16078   -0.14529   -0.14162   -0.13508   -0.11015   -0.10900
  -0.10256   -0.10144   -0.09813   -0.08086    0.00730    0.01533    0.02126    0.06829
   0.08111    0.08978
 prteigrs : prtvol=0 or 1, do not print more k-points.


--- !EnergyTerms
iteration_state     : {dtset: 1, }
comment             : Components of total free energy in Hartree
kinetic             :  4.53702940210144E+01
hartree             :  4.37389946452792E+01
xc                  : -5.70759422836002E+01
Ewald energy        : -1.14615806168600E+02
psp_core            :  1.30255857673252E+01
local_psp           : -1.04958446151440E+02
spherical_terms     :  2.66568698714789E+00
total_energy        : -1.71849633182874E+02
total_energy_eV     : -4.67626633473937E+03
...


--- !EnergyTermsDC
iteration_state     : {dtset: 1, }
comment             : '"Double-counting" decomposition of free energy'
band_energy         : -3.18310250002553E+01
Ewald energy        : -1.14615806168600E+02
psp_core            :  1.30255857673252E+01
xc_dc               : -6.13851879160686E+01
spherical_terms     :  2.29569097735579E+01
total_energy_dc     : -1.71849523544040E+02
total_energy_dc_eV  : -4.67626335131499E+03
...


 Cartesian components of stress tensor (hartree/bohr^3)
  sigma(1 1)= -3.04329893E-06  sigma(3 2)=  1.31085613E-13
  sigma(2 2)= -2.94144419E-06  sigma(3 1)=  1.29751157E-13
  sigma(3 3)= -2.96169197E-06  sigma(2 1)= -2.68066555E-13

-Cartesian components of stress tensor (GPa)         [Pressure=  8.7738E-02 GPa]
- sigma(1 1)= -8.95369307E-02  sigma(3 2)=  3.85667122E-09
- sigma(2 2)= -8.65402612E-02  sigma(3 1)=  3.81741018E-09
- sigma(3 3)= -8.71359716E-02  sigma(2 1)= -7.88678901E-09

================================================================================
== DATASET  2 ==================================================================
-   mpi_nproc: 6, omp_nthreads: -1 (-1 if OMP is not activated)


--- !DatasetInfo
iteration_state: {dtset: 2, }
dimensions: {natom: 9, nkpt: 280, mband: 42, nsppol: 1, nspinor: 1, nspden: 1, mpw: 7521, }
cutoff_energies: {ecut:  16.0, pawecutdg:  40.0, }
electrons: {nelect:   7.20000000E+01, charge:   0.00000000E+00, occopt:   1.00000000E+00, tsmear:   1.00000000E-02, }
meta: {optdriver: 0, ionmov: 0, optcell: 0, iscf: 17, paral_kgb: 0, }
...

 Real(R)+Recip(G) space primitive vectors, cartesian coordinates (Bohr,Bohr^-1):
 R(1)=  0.0000000 10.4732305 10.9155140  G(1)= -0.0466758  0.0477408  0.0458064
 R(2)= 10.7121834  0.0000000 10.9155140  G(2)=  0.0466758 -0.0477408  0.0458064
 R(3)= 10.7121834 10.4732305  0.0000000  G(3)=  0.0466758  0.0477408 -0.0458064
 Unit cell volume ucvol=  2.4492485E+03 bohr^3
 Angles (23,13,12)=  5.99449500E+01  6.10527863E+01  5.90022636E+01 degrees

 Coarse grid specifications (used for wave-functions):

 getcut: wavevector=  0.0000  0.0000  0.0000  ngfft=  60  60  60
         ecut(hartree)=     16.000   => boxcut(ratio)=   2.17916

 Fine grid specifications (used for densities):

 getcut: wavevector=  0.0000  0.0000  0.0000  ngfft=  90  90  90
         ecut(hartree)=     40.000   => boxcut(ratio)=   2.06698

--- Pseudopotential description ------------------------------------------------
- pspini: atom type   1  psp file is ../../../Psps_for_tests/ATOMICDATA/Cs.GGA_PBE-JTH.xml
- pspatm: opening atomic psp file    ../../../Psps_for_tests/ATOMICDATA/Cs.GGA_PBE-JTH.xml
- pspatm : Reading pseudopotential header in XML form from ../../../Psps_for_tests/ATOMICDATA/Cs.GGA_PBE-JTH.xml
 Pseudopotential format is: paw10
 basis_size (lnmax)=  6 (lmn_size= 18), orbitals=   0   0   1   1   2   2
 Spheres core radius: rc_sph= 2.20660278
 1 radial meshes are used:
  - mesh 1: r(i)=AA*[exp(BB*(i-1))-1], size=1500 , AA= 0.15922E-03 BB= 0.87573E-02
 Shapefunction is SIN type: shapef(r)=[sin(pi*r/rshp)/(pi*r/rshp)]**2
 Radius for shape functions =  2.00394208
 mmax= 1500
 Radial grid used for partial waves is grid 1
 Radial grid used for projectors is grid 1
 Radial grid used for (t)core density is grid 1
 Radial grid used for Vloc is grid 1
 Radial grid used for pseudo valence density is grid 1
 Mesh size for Vloc has been set to 1341 to avoid numerical noise.
 Compensation charge density is not taken into account in XC energy/potential
 pspatm: atomic psp has been read  and splines computed

- pspini: atom type   2  psp file is ../../../Psps_for_tests/ATOMICDATA/I.GGA_PBE-JTH.xml
- pspatm: opening atomic psp file    ../../../Psps_for_tests/ATOMICDATA/I.GGA_PBE-JTH.xml
- pspatm : Reading pseudopotential header in XML form from ../../../Psps_for_tests/ATOMICDATA/I.GGA_PBE-JTH.xml
 Pseudopotential format is: paw10
 basis_size (lnmax)=  4 (lmn_size=  8), orbitals=   0   0   1   1
 Spheres core radius: rc_sph= 2.30022271
 1 radial meshes are used:
  - mesh 1: r(i)=AA*[exp(BB*(i-1))-1], size=2000 , AA= 0.12610E-03 BB= 0.66836E-02
 Shapefunction is SIN type: shapef(r)=[sin(pi*r/rshp)/(pi*r/rshp)]**2
 Radius for shape functions =  2.10879093
 mmax= 2000
 Radial grid used for partial waves is grid 1
 Radial grid used for projectors is grid 1
 Radial grid used for (t)core density is grid 1
 Radial grid used for Vloc is grid 1
 Radial grid used for pseudo valence density is grid 1
 Mesh size for Vloc has been set to 1792 to avoid numerical noise.
 Compensation charge density is not taken into account in XC energy/potential
 pspatm: atomic psp has been read  and splines computed

- pspini: atom type   3  psp file is ../../../Psps_for_tests/ATOMICDATA/Hf.GGA_PBE-JTH.xml
- pspatm: opening atomic psp file    ../../../Psps_for_tests/ATOMICDATA/Hf.GGA_PBE-JTH.xml
- pspatm : Reading pseudopotential header in XML form from ../../../Psps_for_tests/ATOMICDATA/Hf.GGA_PBE-JTH.xml
 Pseudopotential format is: paw10
 basis_size (lnmax)=  6 (lmn_size= 18), orbitals=   0   0   1   1   2   2
 Spheres core radius: rc_sph= 2.41000000
 1 radial meshes are used:
  - mesh 1: r(i)=AA*[exp(BB*(i-1))-1], size= 972 , AA= 0.19796E-03 BB= 0.14253E-01
 Shapefunction is SIN type: shapef(r)=[sin(pi*r/rshp)/(pi*r/rshp)]**2
 Radius for shape functions =  2.41000000
 mmax=  972
 Radial grid used for partial waves is grid 1
 Radial grid used for projectors is grid 1
 Radial grid used for (t)core density is grid 1
 Radial grid used for Vloc is grid 1
 Radial grid used for pseudo valence density is grid 1
 Mesh size for Vloc has been set to  809 to avoid numerical noise.
 Compensation charge density is not taken into account in XC energy/potential
 pspatm: atomic psp has been read  and splines computed

- pspini: atom type   4  psp file is ../../../Psps_for_tests/ATOMICDATA/Cl.GGA_PBE-JTH.xml
- pspatm: opening atomic psp file    ../../../Psps_for_tests/ATOMICDATA/Cl.GGA_PBE-JTH.xml
- pspatm : Reading pseudopotential header in XML form from ../../../Psps_for_tests/ATOMICDATA/Cl.GGA_PBE-JTH.xml
 Pseudopotential format is: paw10
 basis_size (lnmax)=  4 (lmn_size=  8), orbitals=   0   0   1   1
 Spheres core radius: rc_sph= 1.80315674
 1 radial meshes are used:
  - mesh 1: r(i)=AA*[exp(BB*(i-1))-1], size=1400 , AA= 0.50355E-03 BB= 0.85603E-02
 Shapefunction is SIN type: shapef(r)=[sin(pi*r/rshp)/(pi*r/rshp)]**2
 Radius for shape functions =  1.61320365
 mmax= 1400
 Radial grid used for partial waves is grid 1
 Radial grid used for projectors is grid 1
 Radial grid used for (t)core density is grid 1
 Radial grid used for Vloc is grid 1
 Radial grid used for pseudo valence density is grid 1
 Mesh size for Vloc has been set to 1238 to avoid numerical noise.
 Compensation charge density is not taken into account in XC energy/potential
 pspatm: atomic psp has been read  and splines computed

--------------------------------------------------------------------------------

_setup2: Arith. and geom. avg. npw (full set) are    7487.212    7487.204

================================================================================

--- !BeginCycle
iteration_state: {dtset: 2, }
solver: {iscf: 17, nstep: 2500, nline: 4, wfoptalg: 10, }
tolerances: {toldfe: 1.00E-08, }
...

     iter   Etot(hartree)      deltaE(h)  residm     nres2
 ETOT  1  -170.14419548316    -1.701E+02 6.966E+00 6.150E+00
 ETOT  2  -171.86435913500    -1.720E+00 3.199E-02 3.420E+00
 ETOT  3  -171.84744006130     1.692E-02 2.005E-02 5.028E-01
 ETOT  4  -171.84846213472    -1.022E-03 6.347E-03 1.284E-01
 ETOT  5  -171.84854510564    -8.297E-05 7.230E-03 2.148E-02
 ETOT  6  -171.84860897095    -6.387E-05 2.994E-03 2.172E-03
 ETOT  7  -171.84862630025    -1.733E-05 2.817E-03 6.975E-04
 ETOT  8  -171.84863260188    -6.302E-06 1.677E-03 1.455E-04
 ETOT  9  -171.84863295483    -3.530E-07 1.672E-03 6.140E-05
 ETOT 10  -171.84863297196    -1.713E-08 1.265E-03 7.846E-06
 ETOT 11  -171.84863299609    -2.413E-08 1.127E-03 4.592E-06
 ETOT 12  -171.84863299112     4.971E-09 5.800E-04 3.367E-07
 ETOT 13  -171.84863299550    -4.384E-09 4.402E-04 3.342E-07

 At SCF step   13, etot is converged : 
  for the second time, diff in etot=  4.384E-09 < toldfe=  1.000E-08

 Cartesian components of stress tensor (hartree/bohr^3)
  sigma(1 1)= -1.19524524E-05  sigma(3 2)=  1.23066517E-13
  sigma(2 2)= -1.17427922E-05  sigma(3 1)=  2.01294905E-13
  sigma(3 3)= -1.18381244E-05  sigma(2 1)= -3.35199468E-13


--- !ResultsGS
iteration_state: {dtset: 2, }
comment   : Summary of ground state results
lattice_vectors:
- [  0.0000000,  10.4732305,  10.9155140, ]
- [ 10.7121834,   0.0000000,  10.9155140, ]
- [ 10.7121834,  10.4732305,   0.0000000, ]
lattice_lengths: [  15.12736,   15.29377,   14.98130, ]
lattice_angles: [ 59.945,  61.053,  59.002, ] # degrees, (23, 13, 12)
lattice_volume:   2.4492485E+03
convergence: {deltae: -4.384E-09, res2:  3.342E-07, residm:  4.402E-04, diffor: null, }
etotal    :  -1.71848633E+02
entropy   :   0.00000000E+00
fermie    :  -7.60040793E-02
cartesian_stress_tensor: # hartree/bohr^3
- [ -1.19524524E-05,  -3.35199468E-13,   2.01294905E-13, ]
- [ -3.35199468E-13,  -1.17427922E-05,   1.23066517E-13, ]
- [  2.01294905E-13,   1.23066517E-13,  -1.18381244E-05, ]
pressure_GPa:   3.4848E-01
xred      :
- [  2.5091E-01,   2.5091E-01,   2.4909E-01, Cs]
- [  7.5091E-01,   7.5091E-01,   7.4909E-01, Cs]
- [  7.8552E-01,   2.2550E-01,   7.7450E-01, Cl]
- [  2.1972E-01,   2.1972E-01,   7.8028E-01, Cl]
- [  7.5775E-01,   7.5775E-01,   2.4225E-01,  I]
- [  2.2550E-01,   7.8552E-01,   2.1448E-01, Cl]
- [  2.5439E-01,   7.4651E-01,   7.4561E-01,  I]
- [  7.4651E-01,   2.5439E-01,   2.5349E-01,  I]
- [  8.7979E-03,   8.7979E-03,  -8.7979E-03, Hf]
cartesian_forces: # hartree/bohr
- [  7.61686177E-17,  -7.79073304E-17,   1.44671897E-05, ]
- [  7.61681996E-17,  -7.79077305E-17,   1.44671897E-05, ]
- [ -2.23558793E-15,   7.91913733E-05,   2.68968888E-06, ]
- [  3.50227978E-16,  -3.58218588E-16,   6.65225430E-05, ]
- [ -1.00017026E-16,   1.02297963E-16,  -1.89970057E-05, ]
- [  2.26390767E-15,  -7.91913733E-05,   2.68968887E-06, ]
- [ -1.70419403E-05,   5.96738530E-16,  -6.81878516E-06, ]
- [  1.70419403E-05,  -5.23305755E-16,  -6.81878516E-06, ]
- [ -3.59071090E-16,   3.67265110E-16,  -6.82017242E-05, ]
force_length_stats: {min:   1.44671897E-05, max:   7.92370370E-05, mean:   4.19822979E-05, }
...

 Integrated electronic density in atomic spheres:
 ------------------------------------------------
 Atom  Sphere_radius  Integrated_density
    1        2.20660          5.36806838
    2        2.20660          5.36806838
    3        1.80316          4.36567264
    4        1.80316          4.37035678
    5        2.30022          4.02815864
    6        1.80316          4.36567264
    7        2.30022          4.02191464
    8        2.30022          4.02191464
    9        2.41000          9.30245649

 PAW TEST:
 ==== Compensation charge inside spheres ============
 The following values must be close to each other ...
 Compensation charge over spherical meshes =     -1.020269799482806
 Compensation charge over fine fft grid    =     -1.020269708166778

 ==== Results concerning PAW augmentation regions ====

 Total pseudopotential strength Dij (hartree):
 Atom #  1
   0.43761  -0.14493   0.00000   0.00000   0.00000   0.00000  -0.00001   0.00000   0.00000   0.00000  -0.00000   0.00000 ...
  -0.14493   0.04365   0.00000  -0.00000   0.00000   0.00000   0.00000   0.00000  -0.00000   0.00000   0.00000   0.00000 ...
   0.00000   0.00000  -0.09326   0.00000   0.00000  -0.16674   0.00000  -0.00000   0.00000   0.00000   0.00000  -0.00000 ...
   0.00000  -0.00000   0.00000  -0.09326   0.00000   0.00000  -0.16674   0.00000  -0.00000   0.00000   0.00000   0.00000 ...
   0.00000   0.00000   0.00000   0.00000  -0.09326  -0.00000   0.00000  -0.16675   0.00000  -0.00000   0.00000   0.00000 ...
[...]
                       7.6636757182E+00  5.1414523400E+00  5.3549496059E+00
                       2.8109379898E+00  5.1414523399E+00  5.3549496060E+00
                      -3.5137841200E-12 -2.2118755623E-12  1.1819383018E-01
           xangst10    2.5926758132E+00  2.5396177736E+00  2.6592301911E+00
                       7.7780274397E+00  7.6188533209E+00  7.9960063084E+00
                       5.1853516266E+00  7.7383346716E+00  5.4030638775E+00
                       5.1853516266E+00  5.0792355473E+00  2.5488023298E+00
                       5.1853516264E+00  5.0792355472E+00  7.9798297262E+00
                       5.1853516264E+00  2.4201364229E+00  5.4030638774E+00
                       7.5738514124E+00  5.0792355473E+00  5.2910993070E+00
                       2.7968518406E+00  5.0792355472E+00  5.2910993071E+00
                      -4.0037817965E-12 -2.2465484548E-12  1.2201401381E-01
            xcart1     5.4209886623E+00  5.2897498317E+00  5.5229695912E+00
                       1.6262965987E+01  1.5869249495E+01  1.6529655871E+01
                       1.0841977325E+01  1.6550820462E+01  1.1124972156E+01
                       1.0841977325E+01  1.0579499663E+01  4.7946761215E+00
                       1.0841977324E+01  1.0579499663E+01  1.6711347469E+01
                       1.0841977324E+01  4.6081788648E+00  1.1124972156E+01
                       1.6231672305E+01  1.0579499663E+01  1.1027185355E+01
                       5.4522823441E+00  1.0579499663E+01  1.1027185355E+01
                      -5.4015926328E-12 -4.2224868346E-12  1.9052616346E-01
            xcart2     5.3560916899E+00  5.2366152726E+00  5.4775297165E+00
                       1.6068275070E+01  1.5709845818E+01  1.6393043761E+01
                       1.0712183380E+01  1.6338517115E+01  1.1035825732E+01
                       1.0712183380E+01  1.0473230545E+01  4.7967460336E+00
                       1.0712183380E+01  1.0473230545E+01  1.6542406035E+01
                       1.0712183380E+01  4.6079439759E+00  1.1035825732E+01
                       1.5983899503E+01  1.0473230545E+01  1.0925333740E+01
                       5.4404672565E+00  1.0473230545E+01  1.0925333740E+01
                      -6.0558889874E-12 -5.3548039095E-12  1.9206786501E-01
            xcart3     5.2858965153E+00  5.1927064055E+00  5.4151488216E+00
                       1.5857689546E+01  1.5578119216E+01  1.6231167152E+01
                       1.0571793031E+01  1.6163798188E+01  1.0950546987E+01
                       1.0571793031E+01  1.0385412811E+01  4.8040347866E+00
                       1.0571793030E+01  1.0385412811E+01  1.6363401023E+01
                       1.0571793030E+01  4.6070274341E+00  1.0950546987E+01
                       1.5716912358E+01  1.0385412811E+01  1.0807448313E+01
                       5.4266737032E+00  1.0385412811E+01  1.0807448313E+01
                      -6.3474068947E-12 -3.6037739455E-12  1.9840425937E-01
            xcart4     5.2245521462E+00  5.1373420116E+00  5.3695126538E+00
                       1.5673656439E+01  1.5412026035E+01  1.6091882625E+01
                       1.0449104293E+01  1.5943915968E+01  1.0857549874E+01
                       1.0449104293E+01  1.0274684023E+01  4.8052121044E+00
                       1.0449104292E+01  1.0274684023E+01  1.6193019901E+01
                       1.0449104292E+01  4.6054520782E+00  1.0857549874E+01
                       1.5485707877E+01  1.0274684023E+01  1.0702451498E+01
                       5.4125007081E+00  1.0274684023E+01  1.0702451498E+01
                      -8.8426979757E-12 -5.5494707506E-12  1.9932974160E-01
            xcart5     5.1645976534E+00  5.0852670209E+00  5.3156221675E+00
                       1.5493792960E+01  1.5255801063E+01  1.5934660704E+01
                       1.0329195307E+01  1.5738106194E+01  1.0755404433E+01
                       1.0329195307E+01  1.0170534042E+01  4.8085802463E+00
                       1.0329195307E+01  1.0170534042E+01  1.6007346157E+01
                       1.0329195307E+01  4.6029618897E+00  1.0755404433E+01
                       1.5262060101E+01  1.0170534042E+01  1.0586181971E+01
                       5.3963305131E+00  1.0170534042E+01  1.0586181971E+01
                      -1.1285820273E-11 -7.3936192743E-12  2.0292620951E-01
            xcart6     5.1051057899E+00  5.0306895222E+00  5.2580321001E+00
                       1.5315317370E+01  1.5092068567E+01  1.5778036863E+01
                       1.0210211580E+01  1.5522887298E+01  1.0663241761E+01
                       1.0210211580E+01  1.0061379044E+01  4.8121300782E+00
                       1.0210211579E+01  1.0061379044E+01  1.5833418347E+01
                       1.0210211579E+01  4.5998707912E+00  1.0663241760E+01
                       1.5042308651E+01  1.0061379044E+01  1.0472006954E+01
                       5.3781145080E+00  1.0061379044E+01  1.0472006954E+01
                      -8.1279068541E-12 -2.6705483459E-12  2.0792328979E-01
            xcart7     5.0487964414E+00  4.9745318119E+00  5.2029957839E+00
                       1.5146389324E+01  1.4923595436E+01  1.5620733251E+01
                       1.0097592883E+01  1.5302775573E+01  1.0559988815E+01
                       1.0097592883E+01  9.9490636239E+00  4.8141966794E+00
                       1.0097592883E+01  9.9490636239E+00  1.5654295216E+01
                       1.0097592883E+01  4.5953516743E+00  1.0559988815E+01
                       1.4837124159E+01  9.9490636239E+00  1.0358527288E+01
                       5.3580616062E+00  9.9490636239E+00  1.0358527288E+01
                      -1.6298570510E-12  2.3695116346E-14  2.1264660224E-01
            xcart8     4.9974579470E+00  4.9160647625E+00  5.1471235752E+00
                       1.4992373841E+01  1.4748194288E+01  1.5457187902E+01
                       9.9949158941E+00  1.5074715366E+01  1.0447499647E+01
                       9.9949158941E+00  9.8321295251E+00  4.8151369202E+00
                       9.9949158939E+00  9.8321295250E+00  1.5466322501E+01
                       9.9949158939E+00  4.5895436836E+00  1.0447499647E+01
                       1.4653635584E+01  9.8321295251E+00  1.0241279431E+01
                       5.3361962036E+00  9.8321295250E+00  1.0241279431E+01
                      -3.1673562933E-12 -3.4307838561E-12  2.1718555918E-01
            xcart9     4.9485378140E+00  4.8579684239E+00  5.0866161658E+00
                       1.4845613442E+01  1.4573905272E+01  1.5283259601E+01
                       9.8970756281E+00  1.4849533524E+01  1.0327216100E+01
                       9.8970756281E+00  9.7159368480E+00  4.8166491276E+00
                       9.8970756278E+00  9.7159368478E+00  1.5270059994E+01
                       9.8970756278E+00  4.5823401718E+00  1.0327216100E+01
                       1.4482248279E+01  9.7159368480E+00  1.0119388211E+01
                       5.3119029772E+00  9.7159368478E+00  1.0119388211E+01
                      -6.6400896769E-12 -4.1798390527E-12  2.2335396963E-01
            xcart10    4.8994472384E+00  4.7991820744E+00  5.0252167855E+00
                       1.4698341715E+01  1.4397546223E+01  1.5110262080E+01
                       9.7988944769E+00  1.4623333254E+01  1.0210311007E+01
                       9.7988944769E+00  9.5983641488E+00  4.8165383702E+00
                       9.7988944766E+00  9.5983641486E+00  1.5079692770E+01
                       9.7988944766E+00  4.5733950434E+00  1.0210311007E+01
                       1.4312504941E+01  9.5983641488E+00  9.9987286322E+00
                       5.2852840129E+00  9.5983641486E+00  9.9987286324E+00
                      -7.5660510913E-12 -4.2453613238E-12  2.3057307047E-01
             xred1     2.5089156949E-01  2.5089156949E-01  2.4910843051E-01
                       7.5089156949E-01  7.5089156949E-01  7.4910843051E-01
                       7.8758523605E-01  2.2316149310E-01  7.7683850690E-01
                       2.1780743085E-01  2.1780743085E-01  7.8219256915E-01
                       7.5914526154E-01  7.5914526154E-01  2.4085473846E-01
                       2.2316149310E-01  7.8758523605E-01  2.1241476395E-01
                       2.5237438237E-01  7.4948803785E-01  7.4762561763E-01
                       7.4948803785E-01  2.5237438237E-01  2.5051196215E-01
                       8.6550192592E-03  8.6550192592E-03 -8.6550192592E-03
             xred2     2.5090571522E-01  2.5090571522E-01  2.4909428478E-01
                       7.5090571522E-01  7.5090571522E-01  7.4909428478E-01
                       7.8552428719E-01  2.2549779450E-01  7.7450220550E-01
                       2.1972149063E-01  2.1972149063E-01  7.8027850937E-01
                       7.5774745780E-01  7.5774745780E-01  2.4225254220E-01
                       2.2549779450E-01  7.8552428719E-01  2.1447571281E-01
                       2.5438810374E-01  7.4651150532E-01  7.4561189626E-01
                       7.4651150532E-01  2.5438810374E-01  2.5348849468E-01
                       8.7979303691E-03  8.7979303691E-03 -8.7979303691E-03
             xred3     2.5033005012E-01  2.5033005012E-01  2.4966994988E-01
                       7.5033005012E-01  7.5033005012E-01  7.4966994988E-01
                       7.8441614737E-01  2.2802176209E-01  7.7197823791E-01
                       2.2207963410E-01  2.2207963410E-01  7.7792036590E-01
                       7.5644292212E-01  7.5644292212E-01  2.4355707788E-01
                       2.2802176209E-01  7.8441614737E-01  2.1558385263E-01
                       2.5626197850E-01  7.4294567657E-01  7.4373802150E-01
                       7.4294567657E-01  2.5626197850E-01  2.5705432343E-01
                       9.1717789904E-03  9.1717789904E-03 -9.1717789904E-03
             xred4     2.5038833151E-01  2.5038833151E-01  2.4961166849E-01
                       7.5038833151E-01  7.5038833151E-01  7.4961166849E-01
                       7.8218715696E-01  2.3042012138E-01  7.6957987862E-01
                       2.2407416072E-01  2.2407416072E-01  7.7592583928E-01
                       7.5510451255E-01  7.5510451255E-01  2.4489548745E-01
                       2.3042012138E-01  7.8218715696E-01  2.1781284304E-01
                       2.5806469710E-01  7.4007764705E-01  7.4193530290E-01
                       7.4007764705E-01  2.5806469710E-01  2.5992235295E-01
                       9.2950412145E-03  9.2950412145E-03 -9.2950412145E-03
             xred5     2.5028735649E-01  2.5028735649E-01  2.4971264351E-01
                       7.5028735649E-01  7.5028735649E-01  7.4971264351E-01
                       7.8013172615E-01  2.3270991632E-01  7.6729008368E-01
                       2.2641316489E-01  2.2641316489E-01  7.7358683511E-01
                       7.5370976865E-01  7.5370976865E-01  2.4629023135E-01
                       2.3270991632E-01  7.8013172615E-01  2.1986827385E-01
                       2.5967031301E-01  7.3723556831E-01  7.4032968699E-01
                       7.3723556831E-01  2.5967031301E-01  2.6276443169E-01
                       9.5548296965E-03  9.5548296965E-03 -9.5548296965E-03
             xred6     2.4990635548E-01  2.4990635548E-01  2.5009364452E-01
                       7.4990635548E-01  7.4990635548E-01  7.5009364452E-01
                       7.7821736590E-01  2.3539831206E-01  7.6460168794E-01
                       2.2871330320E-01  2.2871330320E-01  7.7128669680E-01
                       7.5253855407E-01  7.5253855407E-01  2.4746144593E-01
                       2.3539831206E-01  7.7821736590E-01  2.2178263410E-01
                       2.6108813205E-01  7.3434934059E-01  7.3891186795E-01
                       7.3434934059E-01  2.6108813205E-01  2.6565065941E-01
                       9.8822811616E-03  9.8822811616E-03 -9.8822811616E-03
             xred7     2.4971812738E-01  2.4971812738E-01  2.5028187262E-01
                       7.4971812738E-01  7.4971812738E-01  7.5028187262E-01
                       7.7588343446E-01  2.3777129125E-01  7.6222870875E-01
                       2.3105768860E-01  2.3105768860E-01  7.6894231140E-01
                       7.5132893609E-01  7.5132893609E-01  2.4867106391E-01
                       2.3777129125E-01  7.7588343446E-01  2.2411656554E-01
                       2.6247200992E-01  7.3184439714E-01  7.3752799008E-01
                       7.3184439714E-01  2.6247200992E-01  2.6815560286E-01
                       1.0205987764E-02  1.0205987764E-02 -1.0205987764E-02
             xred8     2.4961646272E-01  2.4961646272E-01  2.5038353728E-01
                       7.4961646272E-01  7.4961646272E-01  7.5038353728E-01
                       7.7326990438E-01  2.4006030537E-01  7.5993969463E-01
                       2.3351633742E-01  2.3351633742E-01  7.6648366258E-01
                       7.5005945699E-01  7.5005945699E-01  2.4994054301E-01
                       2.4006030537E-01  7.7326990438E-01  2.2673009562E-01
                       2.6360971500E-01  7.2971865877E-01  7.3639028500E-01
                       7.2971865877E-01  2.6360971500E-01  2.7028134123E-01
                       1.0532696611E-02  1.0532696611E-02 -1.0532696611E-02
             xred9     2.4942600956E-01  2.4942600956E-01  2.5057399044E-01
                       7.4942600956E-01  7.4942600956E-01  7.5057399044E-01
                       7.7058706518E-01  2.4221839045E-01  7.5778160955E-01
                       2.3618797491E-01  2.3618797491E-01  7.6381202509E-01
                       7.4877875704E-01  7.4877875704E-01  2.5122124296E-01
                       2.4221839045E-01  7.7058706518E-01  2.2941293482E-01
                       2.6456893105E-01  7.2785453410E-01  7.3543106895E-01
                       7.2785453410E-01  2.6456893105E-01  2.7214546590E-01
                       1.0952328139E-02  1.0952328139E-02 -1.0952328139E-02
             xred10    2.4914200377E-01  2.4914200377E-01  2.5085799623E-01
                       7.4914200377E-01  7.4914200377E-01  7.5085799623E-01
                       7.6797221393E-01  2.4444872311E-01  7.5555127689E-01
                       2.3879607030E-01  2.3879607030E-01  7.6120392970E-01
                       7.4762642752E-01  7.4762642752E-01  2.5237357248E-01
                       2.4444872311E-01  7.6797221393E-01  2.3202778607E-01
                       2.6540833218E-01  7.2603279084E-01  7.3459166782E-01
                       7.2603279084E-01  2.6540833218E-01  2.7396720916E-01
                       1.1431434552E-02  1.1431434552E-02 -1.1431434552E-02
            znucl       55.00000   53.00000   72.00000   17.00000

================================================================================


- Timing analysis has been suppressed with timopt=0



================================================================================

 Suggested references for the acknowledgment of ABINIT usage.

 The users of ABINIT have little formal obligations with respect to the ABINIT group
 (those specified in the GNU General Public License, http://www.gnu.org/copyleft/gpl.txt).
 However, it is common practice in the scientific literature,
 to acknowledge the efforts of people that have made the research possible.
 In this spirit, please find below suggested citations of work written by ABINIT developers,
 corresponding to implementations inside of ABINIT that you have used in the present run.
 Note also that it will be of great value to readers of publications presenting these results,
 to read papers enabling them to understand the theoretical formalism and details
 of the ABINIT implementation.
 For information on why they are suggested, see also https://docs.abinit.org/theory/acknowledgments.
-
- [1] Implementation of the Projector Augmented-Wave Method in the ABINIT code.
- M. Torrent, F. Jollet, F. Bottin, G. Zerah, and X. Gonze Comput. Mat. Science 42, 337, (2008).
- Comment: PAW calculations. Strong suggestion to cite this paper.
- DOI and bibtex: see https://docs.abinit.org/theory/bibliography/#torrent2008
-
- [2] Libxc: A library of exchange and correlation functionals for density functional theory.
- M.A.L. Marques, M.J.T. Oliveira, T. Burnus, Computer Physics Communications 183, 2227 (2012).
- Comment: to be cited when LibXC is used (negative value of ixc)
- Strong suggestion to cite this paper.
- DOI and bibtex: see https://docs.abinit.org/theory/bibliography/#marques2012
-
- [3] The Abinit project: Impact, environment and recent developments.
- Computer Phys. Comm. 248, 107042 (2020).
- X.Gonze, B. Amadon, G. Antonius, F.Arnardi, L.Baguet, J.-M.Beuken,
- J.Bieder, F.Bottin, J.Bouchet, E.Bousquet, N.Brouwer, F.Bruneval,
- G.Brunin, T.Cavignac, J.-B. Charraud, Wei Chen, M.Cote, S.Cottenier,
- J.Denier, G.Geneste, Ph.Ghosez, M.Giantomassi, Y.Gillet, O.Gingras,
- D.R.Hamann, G.Hautier, Xu He, N.Helbig, N.Holzwarth, Y.Jia, F.Jollet,
- W.Lafargue-Dit-Hauret, K.Lejaeghere, M.A.L.Marques, A.Martin, C.Martins,
- H.P.C. Miranda, F.Naccarato, K. Persson, G.Petretto, V.Planes, Y.Pouillon,
- S.Prokhorenko, F.Ricci, G.-M.Rignanese, A.H.Romero, M.M.Schmitt, M.Torrent,
- M.J.van Setten, B.Van Troeye, M.J.Verstraete, G.Zerah and J.W.Zwanzig
- Comment: the fifth generic paper describing the ABINIT project.
- Note that a version of this paper, that is not formatted for Computer Phys. Comm. 
- is available at https://www.abinit.org/sites/default/files/ABINIT20.pdf .
- The licence allows the authors to put it on the Web.
- DOI and bibtex: see https://docs.abinit.org/theory/bibliography/#gonze2020
-
- [4] ABINIT: Overview, and focus on selected capabilities
- J. Chem. Phys. 152, 124102 (2020).
- A. Romero, D.C. Allan, B. Amadon, G. Antonius, T. Applencourt, L.Baguet,
- J.Bieder, F.Bottin, J.Bouchet, E.Bousquet, F.Bruneval,
- G.Brunin, D.Caliste, M.Cote,
- J.Denier, C. Dreyer, Ph.Ghosez, M.Giantomassi, Y.Gillet, O.Gingras,
- D.R.Hamann, G.Hautier, F.Jollet, G. Jomard,
- A.Martin, 
- H.P.C. Miranda, F.Naccarato, G.Petretto, N.A. Pike, V.Planes,
- S.Prokhorenko, T. Rangel, F.Ricci, G.-M.Rignanese, M.Royo, M.Stengel, M.Torrent,
- M.J.van Setten, B.Van Troeye, M.J.Verstraete, J.Wiktor, J.W.Zwanziger, and X.Gonze.
- Comment: a global overview of ABINIT, with focus on selected capabilities .
- Note that a version of this paper, that is not formatted for J. Chem. Phys 
- is available at https://www.abinit.org/sites/default/files/ABINIT20_JPC.pdf .
- The licence allows the authors to put it on the Web.
- DOI and bibtex: see https://docs.abinit.org/theory/bibliography/#romero2020
-
- [5] Recent developments in the ABINIT software package.
- Computer Phys. Comm. 205, 106 (2016).
- X.Gonze, F.Jollet, F.Abreu Araujo, D.Adams, B.Amadon, T.Applencourt,
- C.Audouze, J.-M.Beuken, J.Bieder, A.Bokhanchuk, E.Bousquet, F.Bruneval
- D.Caliste, M.Cote, F.Dahm, F.Da Pieve, M.Delaveau, M.Di Gennaro,
- B.Dorado, C.Espejo, G.Geneste, L.Genovese, A.Gerossier, M.Giantomassi,
- Y.Gillet, D.R.Hamann, L.He, G.Jomard, J.Laflamme Janssen, S.Le Roux,
- A.Levitt, A.Lherbier, F.Liu, I.Lukacevic, A.Martin, C.Martins,
- M.J.T.Oliveira, S.Ponce, Y.Pouillon, T.Rangel, G.-M.Rignanese,
- A.H.Romero, B.Rousseau, O.Rubel, A.A.Shukri, M.Stankovski, M.Torrent,
- M.J.Van Setten, B.Van Troeye, M.J.Verstraete, D.Waroquier, J.Wiktor,
- B.Xu, A.Zhou, J.W.Zwanziger.
- Comment: the fourth generic paper describing the ABINIT project.
- Note that a version of this paper, that is not formatted for Computer Phys. Comm. 
- is available at https://www.abinit.org/sites/default/files/ABINIT16.pdf .
- The licence allows the authors to put it on the Web.
- DOI and bibtex: see https://docs.abinit.org/theory/bibliography/#gonze2016
-
- Proc.   0 individual time (sec): cpu=      12243.3  wall=      12243.6

================================================================================

 Calculation completed.
.Delivered   0 WARNINGs and   7 COMMENTs to log file.
+Overall time at end (sec) : cpu=      73459.3  wall=      73461.5
