
.Version 9.2.2 of ABINIT 
.(MPI version, prepared for a x86_64_linux_gnu9.3 computer) 

.Copyright (C) 1998-2020 ABINIT group . 
 ABINIT comes with ABSOLUTELY NO WARRANTY.
 It is free software, and you are welcome to redistribute it
 under certain conditions (GNU General Public License,
 see ~abinit/COPYING or http://www.gnu.org/copyleft/gpl.txt).

 ABINIT is a project of the Universite Catholique de Louvain,
 Corning Inc. and other collaborators, see ~abinit/doc/developers/contributors.txt .
 Please read https://docs.abinit.org/theory/acknowledgments for suggested
 acknowledgments of the ABINIT effort.
 For more information, see https://www.abinit.org .

.Starting date : Fri 11 Nov 2022.
- ( at 23h27 )
  
- input  file    -> Cs2TiI6.in
- output file    -> Cs2TiI6.out
- root for input  files -> Cs2TiI6i
- root for output files -> Cs2TiI6o

- inpspheads : Reading pseudopotential header in XML form from 
-   ../../../Psps_for_tests/ATOMICDATA/Cs.GGA_PBE-JTH.xml
- inpspheads : Reading pseudopotential header in XML form from 
-   ../../../Psps_for_tests/ATOMICDATA/Br.GGA_PBE-JTH.xml
- inpspheads : Reading pseudopotential header in XML form from 
-   ../../../Psps_for_tests/ATOMICDATA/Hf.GGA_PBE-JTH.xml

 DATASET    1 : space group Fm -3 m (#225); Bravais cF (face-center cubic)
================================================================================
 Values of the parameters that define the memory need for DATASET  1.
     intxc =       0    ionmov =       2      iscf =      17    lmnmax =      18
     lnmax =       6     mgfft =      60  mpssoang =       3    mqgrid =    3765
     natom =       9  nloc_mem =       2    nspden =       1   nspinor =       1
    nsppol =       1      nsym =      48    n1xccc =       1    ntypat =       3
    occopt =       1   xclevel =       2
-    mband =          42        mffmem =           1         mkmem =           2
       mpw =        9216          nfft =      216000          nkpt =          10
Pmy_natom=         2
 PAW method is used; the additional fine FFT grid is defined by:
   mgfftf=        96    nfftf =    884736
================================================================================
P This job should need less than                     279.330 Mbytes of memory.
  Rough estimation (10% accuracy) of disk space for files :
_ WF disk file :     59.065 Mbytes ; DEN or POT disk file :      6.752 Mbytes.
================================================================================


 DATASET    2 : space group Fm -3 m (#225); Bravais cF (face-center cubic)
================================================================================
 Values of the parameters that define the memory need for DATASET  2.
     intxc =       0    ionmov =       2      iscf =      17    lmnmax =      18
     lnmax =       6     mgfft =      60  mpssoang =       3    mqgrid =    3761
     natom =       9  nloc_mem =       2    nspden =       1   nspinor =       1
    nsppol =       1      nsym =      48    n1xccc =       1    ntypat =       3
    occopt =       1   xclevel =       2
-    mband =          42        mffmem =           1         mkmem =           2
       mpw =        9183          nfft =      216000          nkpt =          10
Pmy_natom=         2
 PAW method is used; the additional fine FFT grid is defined by:
   mgfftf=        96    nfftf =    884736
================================================================================
P This job should need less than                     279.355 Mbytes of memory.
  Rough estimation (10% accuracy) of disk space for files :
_ WF disk file :     58.853 Mbytes ; DEN or POT disk file :      6.752 Mbytes.
================================================================================


 DATASET    3 : space group Fm -3 m (#225); Bravais cF (face-center cubic)
================================================================================
 Values of the parameters that define the memory need for DATASET  3.
     intxc =       0    ionmov =       2      iscf =      17    lmnmax =      18
     lnmax =       6     mgfft =      60  mpssoang =       3    mqgrid =    3757
     natom =       9  nloc_mem =       2    nspden =       1   nspinor =       1
    nsppol =       1      nsym =      48    n1xccc =       1    ntypat =       3
    occopt =       1   xclevel =       2
-    mband =          42        mffmem =           1         mkmem =           2
       mpw =        9153          nfft =      216000          nkpt =          10
Pmy_natom=         2
 PAW method is used; the additional fine FFT grid is defined by:
   mgfftf=        96    nfftf =    884736
================================================================================
P This job should need less than                     279.382 Mbytes of memory.
  Rough estimation (10% accuracy) of disk space for files :
_ WF disk file :     58.661 Mbytes ; DEN or POT disk file :      6.752 Mbytes.
================================================================================


 DATASET    4 : space group Fm -3 m (#225); Bravais cF (face-center cubic)
================================================================================
 Values of the parameters that define the memory need for DATASET  4.
     intxc =       0    ionmov =       2      iscf =      17    lmnmax =      18
     lnmax =       6     mgfft =      60  mpssoang =       3    mqgrid =    3753
     natom =       9  nloc_mem =       2    nspden =       1   nspinor =       1
    nsppol =       1      nsym =      48    n1xccc =       1    ntypat =       3
    occopt =       1   xclevel =       2
-    mband =          42        mffmem =           1         mkmem =           2
       mpw =        9125          nfft =      216000          nkpt =          10
Pmy_natom=         2
 PAW method is used; the additional fine FFT grid is defined by:
   mgfftf=        96    nfftf =    884736
================================================================================
P This job should need less than                     279.414 Mbytes of memory.
  Rough estimation (10% accuracy) of disk space for files :
_ WF disk file :     58.481 Mbytes ; DEN or POT disk file :      6.752 Mbytes.
================================================================================


 DATASET    5 : space group Fm -3 m (#225); Bravais cF (face-center cubic)
================================================================================
 Values of the parameters that define the memory need for DATASET  5.
     intxc =       0    ionmov =       2      iscf =      17    lmnmax =      18
     lnmax =       6     mgfft =      60  mpssoang =       3    mqgrid =    3750
     natom =       9  nloc_mem =       2    nspden =       1   nspinor =       1
    nsppol =       1      nsym =      48    n1xccc =       1    ntypat =       3
    occopt =       1   xclevel =       2
-    mband =          42        mffmem =           1         mkmem =           2
       mpw =        9104          nfft =      216000          nkpt =          10
Pmy_natom=         2
 PAW method is used; the additional fine FFT grid is defined by:
   mgfftf=        96    nfftf =    884736
================================================================================
P This job should need less than                     279.456 Mbytes of memory.
  Rough estimation (10% accuracy) of disk space for files :
_ WF disk file :     58.347 Mbytes ; DEN or POT disk file :      6.752 Mbytes.
================================================================================


 DATASET    6 : space group Fm -3 m (#225); Bravais cF (face-center cubic)
================================================================================
 Values of the parameters that define the memory need for DATASET  6.
     intxc =       0    ionmov =       2      iscf =      17    lmnmax =      18
     lnmax =       6     mgfft =      60  mpssoang =       3    mqgrid =    3746
     natom =       9  nloc_mem =       2    nspden =       1   nspinor =       1
    nsppol =       1      nsym =      48    n1xccc =       1    ntypat =       3
    occopt =       1   xclevel =       2
-    mband =          42        mffmem =           1         mkmem =           2
       mpw =        9080          nfft =      216000          nkpt =          10
Pmy_natom=         2
 PAW method is used; the additional fine FFT grid is defined by:
   mgfftf=        96    nfftf =    884736
================================================================================
P This job should need less than                     279.493 Mbytes of memory.
  Rough estimation (10% accuracy) of disk space for files :
_ WF disk file :     58.193 Mbytes ; DEN or POT disk file :      6.752 Mbytes.
================================================================================


 DATASET    7 : space group Fm -3 m (#225); Bravais cF (face-center cubic)
================================================================================
 Values of the parameters that define the memory need for DATASET  7.
     intxc =       0    ionmov =       2      iscf =      17    lmnmax =      18
     lnmax =       6     mgfft =      60  mpssoang =       3    mqgrid =    3742
     natom =       9  nloc_mem =       2    nspden =       1   nspinor =       1
    nsppol =       1      nsym =      48    n1xccc =       1    ntypat =       3
    occopt =       1   xclevel =       2
-    mband =          42        mffmem =           1         mkmem =           2
       mpw =        9050          nfft =      216000          nkpt =          10
Pmy_natom=         2
 PAW method is used; the additional fine FFT grid is defined by:
   mgfftf=        96    nfftf =    884736
================================================================================
P This job should need less than                     279.524 Mbytes of memory.
  Rough estimation (10% accuracy) of disk space for files :
_ WF disk file :     58.001 Mbytes ; DEN or POT disk file :      6.752 Mbytes.
================================================================================


 DATASET    8 : space group Fm -3 m (#225); Bravais cF (face-center cubic)
================================================================================
 Values of the parameters that define the memory need for DATASET  8.
     intxc =       0    ionmov =       2      iscf =      17    lmnmax =      18
     lnmax =       6     mgfft =      60  mpssoang =       3    mqgrid =    3738
     natom =       9  nloc_mem =       2    nspden =       1   nspinor =       1
    nsppol =       1      nsym =      48    n1xccc =       1    ntypat =       3
    occopt =       1   xclevel =       2
-    mband =          42        mffmem =           1         mkmem =           2
       mpw =        9020          nfft =      216000          nkpt =          10
Pmy_natom=         2
 PAW method is used; the additional fine FFT grid is defined by:
   mgfftf=        96    nfftf =    884736
================================================================================
P This job should need less than                     279.552 Mbytes of memory.
  Rough estimation (10% accuracy) of disk space for files :
_ WF disk file :     57.808 Mbytes ; DEN or POT disk file :      6.752 Mbytes.
================================================================================


 DATASET    9 : space group Fm -3 m (#225); Bravais cF (face-center cubic)
================================================================================
 Values of the parameters that define the memory need for DATASET  9.
     intxc =       0    ionmov =       2      iscf =      17    lmnmax =      18
     lnmax =       6     mgfft =      60  mpssoang =       3    mqgrid =    3735
     natom =       9  nloc_mem =       2    nspden =       1   nspinor =       1
    nsppol =       1      nsym =      48    n1xccc =       1    ntypat =       3
    occopt =       1   xclevel =       2
-    mband =          42        mffmem =           1         mkmem =           2
       mpw =        9008          nfft =      216000          nkpt =          10
Pmy_natom=         2
 PAW method is used; the additional fine FFT grid is defined by:
   mgfftf=        96    nfftf =    884736
================================================================================
P This job should need less than                     279.609 Mbytes of memory.
  Rough estimation (10% accuracy) of disk space for files :
_ WF disk file :     57.731 Mbytes ; DEN or POT disk file :      6.752 Mbytes.
================================================================================


 DATASET   10 : space group Fm -3 m (#225); Bravais cF (face-center cubic)
================================================================================
 Values of the parameters that define the memory need for DATASET 10.
     intxc =       0    ionmov =       2      iscf =      17    lmnmax =      18
     lnmax =       6     mgfft =      60  mpssoang =       3    mqgrid =    3731
     natom =       9  nloc_mem =       2    nspden =       1   nspinor =       1
    nsppol =       1      nsym =      48    n1xccc =       1    ntypat =       3
    occopt =       1   xclevel =       2
-    mband =          42        mffmem =           1         mkmem =           2
       mpw =        8963          nfft =      216000          nkpt =          10
Pmy_natom=         2
 PAW method is used; the additional fine FFT grid is defined by:
   mgfftf=        96    nfftf =    884736
================================================================================
P This job should need less than                     279.618 Mbytes of memory.
  Rough estimation (10% accuracy) of disk space for files :
_ WF disk file :     57.443 Mbytes ; DEN or POT disk file :      6.752 Mbytes.
================================================================================

--------------------------------------------------------------------------------
------------- Echo of variables that govern the present computation ------------
--------------------------------------------------------------------------------
-
- outvars: echo of selected default values                                      
-   iomode0 =  0 , fftalg0 =112 , wfoptalg0 = 10
-
- outvars: echo of global parameters not present in the input file              
-  max_nthreads =    0
-
 -outvars: echo values of preprocessed input variables --------
            acell1     1.4081070920E+01  1.4081070920E+01  1.4081070920E+01 Bohr
            acell2     1.4066975754E+01  1.4066975754E+01  1.4066975754E+01 Bohr
            acell3     1.4052880588E+01  1.4052880588E+01  1.4052880588E+01 Bohr
            acell4     1.4038785422E+01  1.4038785422E+01  1.4038785422E+01 Bohr
            acell5     1.4024690256E+01  1.4024690256E+01  1.4024690256E+01 Bohr
            acell6     1.4010595089E+01  1.4010595089E+01  1.4010595089E+01 Bohr
            acell7     1.3996499923E+01  1.3996499923E+01  1.3996499923E+01 Bohr
            acell8     1.3982404757E+01  1.3982404757E+01  1.3982404757E+01 Bohr
            acell9     1.3968309591E+01  1.3968309591E+01  1.3968309591E+01 Bohr
            acell10    1.3954214425E+01  1.3954214425E+01  1.3954214425E+01 Bohr
              amu      1.32905430E+02  7.99040000E+01  1.78490000E+02
           diemac      1.20000000E+01
          dilatmx      1.15000000E+00
             ecut      1.60000000E+01 Hartree
           ecutsm      5.00000000E-01 Hartree
-          fftalg         112
          getxred1          0
          getxred2         -1
          getxred3         -1
          getxred4         -1
          getxred5         -1
          getxred6         -1
          getxred7         -1
          getxred8         -1
          getxred9         -1
          getxred10        -1
           ionmov           2
              ixc     -101130
           jdtset        1    2    3    4    5    6    7    8    9   10
              kpt     -1.25000000E-01 -2.50000000E-01  0.00000000E+00
                      -1.25000000E-01  5.00000000E-01  0.00000000E+00
                      -2.50000000E-01 -3.75000000E-01  0.00000000E+00
                      -1.25000000E-01 -3.75000000E-01  1.25000000E-01
                      -1.25000000E-01  2.50000000E-01  0.00000000E+00
                      -2.50000000E-01  3.75000000E-01  0.00000000E+00
                      -3.75000000E-01  5.00000000E-01  0.00000000E+00
                      -2.50000000E-01  5.00000000E-01  1.25000000E-01
                      -1.25000000E-01  0.00000000E+00  0.00000000E+00
                      -3.75000000E-01  0.00000000E+00  0.00000000E+00
         kptrlatt        4   -4    4     -4    4    4     -4   -4    4
          kptrlen1     7.96545659E+01
          kptrlen2     7.95748316E+01
          kptrlen3     7.94950973E+01
          kptrlen4     7.94153630E+01
          kptrlen5     7.93356287E+01
          kptrlen6     7.92558944E+01
          kptrlen7     7.91761601E+01
          kptrlen8     7.90964258E+01
          kptrlen9     7.90166915E+01
          kptrlen10    7.89369572E+01
P           mkmem           2
            natom           9
            nband          42
           ndtset          10
            ngfft          60      60      60
          ngfftdg          96      96      96
             nkpt          10
            nstep        2500
             nsym          48
            ntime        1000
           ntypat           3
              occ      2.000000  2.000000  2.000000  2.000000  2.000000  2.000000
                       2.000000  2.000000  2.000000  2.000000  2.000000  2.000000
                       2.000000  2.000000  2.000000  2.000000  2.000000  2.000000
                       2.000000  2.000000  2.000000  2.000000  2.000000  2.000000
                       2.000000  2.000000  2.000000  2.000000  2.000000  2.000000
                       2.000000  2.000000  2.000000  2.000000  2.000000  2.000000
                       0.000000  0.000000  0.000000  0.000000  0.000000  0.000000
          optcell           3
        optforces           1
        pawecutdg      4.00000000E+01 Hartree
            prtwf           0
            rprim      0.0000000000E+00  7.0710678119E-01  7.0710678119E-01
                       7.0710678119E-01  0.0000000000E+00  7.0710678119E-01
                       7.0710678119E-01  7.0710678119E-01  0.0000000000E+00
           shiftk      5.00000000E-01  5.00000000E-01  5.00000000E-01
          spgroup         225
           symrel      1  0  0   0  1  0   0  0  1      -1  0  0   0 -1  0   0  0 -1
                       0 -1  1   0 -1  0   1 -1  0       0  1 -1   0  1  0  -1  1  0
                      -1  0  0  -1  0  1  -1  1  0       1  0  0   1  0 -1   1 -1  0
                       0  1 -1   1  0 -1   0  0 -1       0 -1  1  -1  0  1   0  0  1
                      -1  0  0  -1  1  0  -1  0  1       1  0  0   1 -1  0   1  0 -1
                       0 -1  1   1 -1  0   0 -1  0       0  1 -1  -1  1  0   0  1  0
                       1  0  0   0  0  1   0  1  0      -1  0  0   0  0 -1   0 -1  0
                       0  1 -1   0  0 -1   1  0 -1       0 -1  1   0  0  1  -1  0  1
                      -1  0  1  -1  1  0  -1  0  0       1  0 -1   1 -1  0   1  0  0
                       0 -1  0   1 -1  0   0 -1  1       0  1  0  -1  1  0   0  1 -1
                       1  0 -1   0  0 -1   0  1 -1      -1  0  1   0  0  1   0 -1  1
                       0  1  0   0  0  1   1  0  0       0 -1  0   0  0 -1  -1  0  0
                       1  0 -1   0  1 -1   0  0 -1      -1  0  1   0 -1  1   0  0  1
                       0 -1  0   0 -1  1   1 -1  0       0  1  0   0  1 -1  -1  1  0
                      -1  0  1  -1  0  0  -1  1  0       1  0 -1   1  0  0   1 -1  0
                       0  1  0   1  0  0   0  0  1       0 -1  0  -1  0  0   0  0 -1
                       0  0 -1   0  1 -1   1  0 -1       0  0  1   0 -1  1  -1  0  1
                       1 -1  0   0 -1  1   0 -1  0      -1  1  0   0  1 -1   0  1  0
                       0  0  1   1  0  0   0  1  0       0  0 -1  -1  0  0   0 -1  0
                      -1  1  0  -1  0  0  -1  0  1       1 -1  0   1  0  0   1  0 -1
                       0  0  1   0  1  0   1  0  0       0  0 -1   0 -1  0  -1  0  0
                       1 -1  0   0 -1  0   0 -1  1      -1  1  0   0  1  0   0  1 -1
                       0  0 -1   1  0 -1   0  1 -1       0  0  1  -1  0  1   0 -1  1
                      -1  1  0  -1  0  1  -1  0  0       1 -1  0   1  0 -1   1  0  0
           toldff      1.00000000E-08
           tolmxf      1.00000000E-05
            typat      1  1  2  2  2  2  2  2  3
           useylm           1
              wtk        0.09375    0.09375    0.09375    0.18750    0.09375    0.09375
                         0.09375    0.18750    0.03125    0.03125
           xangst1     2.6344613012E+00  2.6344613012E+00  2.6344613012E+00
                       7.9033839036E+00  7.9033839036E+00  7.9033839036E+00
                       5.2689226024E+00  7.9349259078E+00  5.2689226024E+00
                       5.2689226024E+00  5.2689226024E+00  2.6029192970E+00
                       5.2689226024E+00  5.2689226024E+00  7.9349259078E+00
                       5.2689226024E+00  2.6029192970E+00  5.2689226024E+00
                       7.9349259078E+00  5.2689226024E+00  5.2689226024E+00
                       2.6029192970E+00  5.2689226024E+00  5.2689226024E+00
                       1.5085794873E-18 -6.2529705094E-19  1.6896927576E-18
           xangst2     2.6318242028E+00  2.6318242028E+00  2.6318242028E+00
                       7.8954726084E+00  7.8954726084E+00  7.8954726084E+00
                       5.2636484056E+00  7.9269830390E+00  5.2636484056E+00
                       5.2636484056E+00  5.2636484056E+00  2.6003137722E+00
                       5.2636484056E+00  5.2636484056E+00  7.9269830390E+00
                       5.2636484056E+00  2.6003137722E+00  5.2636484056E+00
                       7.9269830390E+00  5.2636484056E+00  5.2636484056E+00
                       2.6003137722E+00  5.2636484056E+00  5.2636484056E+00
                       1.5070693977E-18 -6.2467112796E-19  1.6880013735E-18
           xangst3     2.6291871044E+00  2.6291871044E+00  2.6291871044E+00
                       7.8875613132E+00  7.8875613132E+00  7.8875613132E+00
                       5.2583742088E+00  7.9190401702E+00  5.2583742088E+00
                       5.2583742088E+00  5.2583742088E+00  2.5977082474E+00
                       5.2583742088E+00  5.2583742088E+00  7.9190401702E+00
                       5.2583742088E+00  2.5977082474E+00  5.2583742088E+00
                       7.9190401702E+00  5.2583742088E+00  5.2583742088E+00
                       2.5977082474E+00  5.2583742088E+00  5.2583742088E+00
                       1.5055593081E-18 -6.2404520499E-19  1.6863099893E-18
           xangst4     2.6265500060E+00  2.6265500060E+00  2.6265500060E+00
                       7.8796500180E+00  7.8796500180E+00  7.8796500180E+00
                       5.2531000120E+00  7.9110973014E+00  5.2531000120E+00
                       5.2531000120E+00  5.2531000120E+00  2.5951027225E+00
                       5.2531000120E+00  5.2531000120E+00  7.9110973014E+00
                       5.2531000120E+00  2.5951027225E+00  5.2531000120E+00
                       7.9110973014E+00  5.2531000120E+00  5.2531000120E+00
                       2.5951027225E+00  5.2531000120E+00  5.2531000120E+00
                       1.5040492186E-18 -6.2341928201E-19  1.6846186052E-18
           xangst5     2.6239129076E+00  2.6239129076E+00  2.6239129076E+00
                       7.8717387228E+00  7.8717387228E+00  7.8717387228E+00
                       5.2478258152E+00  7.9031544327E+00  5.2478258152E+00
                       5.2478258152E+00  5.2478258152E+00  2.5924971977E+00
                       5.2478258152E+00  5.2478258152E+00  7.9031544327E+00
                       5.2478258152E+00  2.5924971977E+00  5.2478258152E+00
                       7.9031544327E+00  5.2478258152E+00  5.2478258152E+00
                       2.5924971977E+00  5.2478258152E+00  5.2478258152E+00
                       1.5025391290E-18 -6.2279335904E-19  1.6829272210E-18
           xangst6     2.6212758092E+00  2.6212758092E+00  2.6212758092E+00
                       7.8638274276E+00  7.8638274276E+00  7.8638274276E+00
                       5.2425516184E+00  7.8952115639E+00  5.2425516184E+00
                       5.2425516184E+00  5.2425516184E+00  2.5898916729E+00
                       5.2425516184E+00  5.2425516184E+00  7.8952115639E+00
                       5.2425516184E+00  2.5898916729E+00  5.2425516184E+00
                       7.8952115639E+00  5.2425516184E+00  5.2425516184E+00
                       2.5898916729E+00  5.2425516184E+00  5.2425516184E+00
                       1.5010290394E-18 -6.2216743607E-19  1.6812358369E-18
           xangst7     2.6186387108E+00  2.6186387108E+00  2.6186387108E+00
                       7.8559161324E+00  7.8559161324E+00  7.8559161324E+00
                       5.2372774216E+00  7.8872686951E+00  5.2372774216E+00
                       5.2372774216E+00  5.2372774216E+00  2.5872861481E+00
                       5.2372774216E+00  5.2372774216E+00  7.8872686951E+00
                       5.2372774216E+00  2.5872861481E+00  5.2372774216E+00
                       7.8872686951E+00  5.2372774216E+00  5.2372774216E+00
                       2.5872861481E+00  5.2372774216E+00  5.2372774216E+00
                       1.4995189498E-18 -6.2154151309E-19  1.6795444528E-18
           xangst8     2.6160016124E+00  2.6160016124E+00  2.6160016124E+00
                       7.8480048372E+00  7.8480048372E+00  7.8480048372E+00
                       5.2320032248E+00  7.8793258263E+00  5.2320032248E+00
                       5.2320032248E+00  5.2320032248E+00  2.5846806232E+00
                       5.2320032248E+00  5.2320032248E+00  7.8793258263E+00
                       5.2320032248E+00  2.5846806232E+00  5.2320032248E+00
                       7.8793258263E+00  5.2320032248E+00  5.2320032248E+00
                       2.5846806232E+00  5.2320032248E+00  5.2320032248E+00
                       1.4980088602E-18 -6.2091559012E-19  1.6778530686E-18
           xangst9     2.6133645140E+00  2.6133645140E+00  2.6133645140E+00
                       7.8400935420E+00  7.8400935420E+00  7.8400935420E+00
                       5.2267290280E+00  7.8713829576E+00  5.2267290280E+00
                       5.2267290280E+00  5.2267290280E+00  2.5820750984E+00
                       5.2267290280E+00  5.2267290280E+00  7.8713829576E+00
                       5.2267290280E+00  2.5820750984E+00  5.2267290280E+00
                       7.8713829576E+00  5.2267290280E+00  5.2267290280E+00
                       2.5820750984E+00  5.2267290280E+00  5.2267290280E+00
                       1.4964987707E-18 -6.2028966715E-19  1.6761616845E-18
           xangst10    2.6107274156E+00  2.6107274156E+00  2.6107274156E+00
                       7.8321822468E+00  7.8321822468E+00  7.8321822468E+00
                       5.2214548312E+00  7.8634400888E+00  5.2214548312E+00
                       5.2214548312E+00  5.2214548312E+00  2.5794695736E+00
                       5.2214548312E+00  5.2214548312E+00  7.8634400888E+00
                       5.2214548312E+00  2.5794695736E+00  5.2214548312E+00
                       7.8634400888E+00  5.2214548312E+00  5.2214548312E+00
                       2.5794695736E+00  5.2214548312E+00  5.2214548312E+00
                       1.4949886811E-18 -6.1966374417E-19  1.6744703003E-18
            xcart1     4.9784103669E+00  4.9784103669E+00  4.9784103669E+00
                       1.4935231101E+01  1.4935231101E+01  1.4935231101E+01
                       9.9568207339E+00  1.4994836850E+01  9.9568207339E+00
                       9.9568207339E+00  9.9568207339E+00  4.9188046173E+00
                       9.9568207339E+00  9.9568207339E+00  1.4994836850E+01
                       9.9568207339E+00  4.9188046173E+00  9.9568207339E+00
                       1.4994836850E+01  9.9568207339E+00  9.9568207339E+00
                       4.9188046173E+00  9.9568207339E+00  9.9568207339E+00
                       2.8508020807E-18 -1.1816401780E-18  3.1930565606E-18
            xcart2     4.9734269732E+00  4.9734269732E+00  4.9734269732E+00
                       1.4920280920E+01  1.4920280920E+01  1.4920280920E+01
                       9.9468539464E+00  1.4979827004E+01  9.9468539464E+00
                       9.9468539464E+00  9.9468539464E+00  4.9138808890E+00
                       9.9468539464E+00  9.9468539464E+00  1.4979827004E+01
                       9.9468539464E+00  4.9138808890E+00  9.9468539464E+00
                       1.4979827004E+01  9.9468539464E+00  9.9468539464E+00
                       4.9138808890E+00  9.9468539464E+00  9.9468539464E+00
                       2.8479484249E-18 -1.1804573550E-18  3.1898603078E-18
            xcart3     4.9684435794E+00  4.9684435794E+00  4.9684435794E+00
                       1.4905330738E+01  1.4905330738E+01  1.4905330738E+01
                       9.9368871588E+00  1.4964817157E+01  9.9368871588E+00
                       9.9368871588E+00  9.9368871588E+00  4.9089571606E+00
                       9.9368871588E+00  9.9368871588E+00  1.4964817157E+01
                       9.9368871588E+00  4.9089571606E+00  9.9368871588E+00
                       1.4964817157E+01  9.9368871588E+00  9.9368871588E+00
                       4.9089571606E+00  9.9368871588E+00  9.9368871588E+00
                       2.8450947692E-18 -1.1792745320E-18  3.1866640550E-18
            xcart4     4.9634601857E+00  4.9634601857E+00  4.9634601857E+00
                       1.4890380557E+01  1.4890380557E+01  1.4890380557E+01
                       9.9269203713E+00  1.4949807310E+01  9.9269203713E+00
                       9.9269203713E+00  9.9269203713E+00  4.9040334323E+00
                       9.9269203713E+00  9.9269203713E+00  1.4949807310E+01
                       9.9269203713E+00  4.9040334323E+00  9.9269203713E+00
                       1.4949807310E+01  9.9269203713E+00  9.9269203713E+00
                       4.9040334323E+00  9.9269203713E+00  9.9269203713E+00
                       2.8422411134E-18 -1.1780917090E-18  3.1834678022E-18
            xcart5     4.9584767919E+00  4.9584767919E+00  4.9584767919E+00
                       1.4875430376E+01  1.4875430376E+01  1.4875430376E+01
                       9.9169535838E+00  1.4934797464E+01  9.9169535838E+00
                       9.9169535838E+00  9.9169535838E+00  4.8991097040E+00
                       9.9169535838E+00  9.9169535838E+00  1.4934797464E+01
                       9.9169535838E+00  4.8991097040E+00  9.9169535838E+00
                       1.4934797464E+01  9.9169535838E+00  9.9169535838E+00
                       4.8991097040E+00  9.9169535838E+00  9.9169535838E+00
                       2.8393874577E-18 -1.1769088860E-18  3.1802715493E-18
            xcart6     4.9534933981E+00  4.9534933981E+00  4.9534933981E+00
                       1.4860480194E+01  1.4860480194E+01  1.4860480194E+01
                       9.9069867963E+00  1.4919787617E+01  9.9069867963E+00
                       9.9069867963E+00  9.9069867963E+00  4.8941859756E+00
                       9.9069867963E+00  9.9069867963E+00  1.4919787617E+01
                       9.9069867963E+00  4.8941859756E+00  9.9069867963E+00
                       1.4919787617E+01  9.9069867963E+00  9.9069867963E+00
                       4.8941859756E+00  9.9069867963E+00  9.9069867963E+00
                       2.8365338020E-18 -1.1757260630E-18  3.1770752965E-18
            xcart7     4.9485100044E+00  4.9485100044E+00  4.9485100044E+00
                       1.4845530013E+01  1.4845530013E+01  1.4845530013E+01
                       9.8970200088E+00  1.4904777770E+01  9.8970200088E+00
                       9.8970200088E+00  9.8970200088E+00  4.8892622473E+00
                       9.8970200088E+00  9.8970200088E+00  1.4904777770E+01
                       9.8970200088E+00  4.8892622473E+00  9.8970200088E+00
                       1.4904777770E+01  9.8970200088E+00  9.8970200088E+00
                       4.8892622473E+00  9.8970200088E+00  9.8970200088E+00
                       2.8336801462E-18 -1.1745432400E-18  3.1738790437E-18
            xcart8     4.9435266106E+00  4.9435266106E+00  4.9435266106E+00
                       1.4830579832E+01  1.4830579832E+01  1.4830579832E+01
                       9.8870532212E+00  1.4889767924E+01  9.8870532212E+00
                       9.8870532212E+00  9.8870532212E+00  4.8843385189E+00
                       9.8870532212E+00  9.8870532212E+00  1.4889767924E+01
                       9.8870532212E+00  4.8843385189E+00  9.8870532212E+00
                       1.4889767924E+01  9.8870532212E+00  9.8870532212E+00
                       4.8843385189E+00  9.8870532212E+00  9.8870532212E+00
                       2.8308264905E-18 -1.1733604170E-18  3.1706827909E-18
            xcart9     4.9385432169E+00  4.9385432169E+00  4.9385432169E+00
                       1.4815629651E+01  1.4815629651E+01  1.4815629651E+01
                       9.8770864337E+00  1.4874758077E+01  9.8770864337E+00
                       9.8770864337E+00  9.8770864337E+00  4.8794147906E+00
                       9.8770864337E+00  9.8770864337E+00  1.4874758077E+01
                       9.8770864337E+00  4.8794147906E+00  9.8770864337E+00
                       1.4874758077E+01  9.8770864337E+00  9.8770864337E+00
                       4.8794147906E+00  9.8770864337E+00  9.8770864337E+00
                       2.8279728348E-18 -1.1721775940E-18  3.1674865381E-18
            xcart10    4.9335598231E+00  4.9335598231E+00  4.9335598231E+00
                       1.4800679469E+01  1.4800679469E+01  1.4800679469E+01
                       9.8671196462E+00  1.4859748230E+01  9.8671196462E+00
                       9.8671196462E+00  9.8671196462E+00  4.8744910622E+00
                       9.8671196462E+00  9.8671196462E+00  1.4859748230E+01
                       9.8671196462E+00  4.8744910622E+00  9.8671196462E+00
                       1.4859748230E+01  9.8671196462E+00  9.8671196462E+00
                       4.8744910622E+00  9.8671196462E+00  9.8671196462E+00
                       2.8251191790E-18 -1.1709947710E-18  3.1642902853E-18
             xred      2.5000000000E-01  2.5000000000E-01  2.5000000000E-01
                       7.5000000000E-01  7.5000000000E-01  7.5000000000E-01
                       7.5299321195E-01  2.4700678805E-01  7.5299321195E-01
                       2.4700678805E-01  2.4700678805E-01  7.5299321195E-01
                       7.5299321195E-01  7.5299321195E-01  2.4700678805E-01
                       2.4700678805E-01  7.5299321195E-01  2.4700678805E-01
                       2.4700678805E-01  7.5299321195E-01  7.5299321195E-01
                       7.5299321195E-01  2.4700678805E-01  2.4700678805E-01
                      -4.2151291083E-20  3.6284166464E-19 -7.6525162933E-20
            znucl       55.00000   35.00000   72.00000

================================================================================

 chkinp: Checking input parameters for consistency, jdtset=   1.

 chkinp: Checking input parameters for consistency, jdtset=   2.

 chkinp: Checking input parameters for consistency, jdtset=   3.

 chkinp: Checking input parameters for consistency, jdtset=   4.

 chkinp: Checking input parameters for consistency, jdtset=   5.

 chkinp: Checking input parameters for consistency, jdtset=   6.

 chkinp: Checking input parameters for consistency, jdtset=   7.

 chkinp: Checking input parameters for consistency, jdtset=   8.

 chkinp: Checking input parameters for consistency, jdtset=   9.

 chkinp: Checking input parameters for consistency, jdtset=  10.

================================================================================
== DATASET  1 ==================================================================
-   mpi_nproc: 6, omp_nthreads: -1 (-1 if OMP is not activated)


--- !DatasetInfo
iteration_state: {dtset: 1, }
dimensions: {natom: 9, nkpt: 10, mband: 42, nsppol: 1, nspinor: 1, nspden: 1, mpw: 9216, }
cutoff_energies: {ecut:  16.0, pawecutdg:  40.0, }
electrons: {nelect:   7.20000000E+01, charge:   0.00000000E+00, occopt:   1.00000000E+00, tsmear:   1.00000000E-02, }
meta: {optdriver: 0, ionmov: 2, optcell: 3, iscf: 17, paral_kgb: 0, }
...

 Real(R)+Recip(G) space primitive vectors, cartesian coordinates (Bohr,Bohr^-1):
 R(1)=  0.0000000  9.9568207  9.9568207  G(1)= -0.0502168  0.0502168  0.0502168
 R(2)=  9.9568207  0.0000000  9.9568207  G(2)=  0.0502168 -0.0502168  0.0502168
 R(3)=  9.9568207  9.9568207  0.0000000  G(3)=  0.0502168  0.0502168 -0.0502168
 Unit cell volume ucvol=  1.9742041E+03 bohr^3
 Angles (23,13,12)=  6.00000000E+01  6.00000000E+01  6.00000000E+01 degrees

 Coarse grid specifications (used for wave-functions):

 getcut: wavevector=  0.0000  0.0000  0.0000  ngfft=  60  60  60
         ecut(hartree)=     21.160   => boxcut(ratio)=   2.05775

 Fine grid specifications (used for densities):

 getcut: wavevector=  0.0000  0.0000  0.0000  ngfft=  96  96  96
         ecut(hartree)=     52.900   => boxcut(ratio)=   2.08230

--- Pseudopotential description ------------------------------------------------
- pspini: atom type   1  psp file is ../../../Psps_for_tests/ATOMICDATA/Cs.GGA_PBE-JTH.xml
- pspatm: opening atomic psp file    ../../../Psps_for_tests/ATOMICDATA/Cs.GGA_PBE-JTH.xml
- pspatm : Reading pseudopotential header in XML form from ../../../Psps_for_tests/ATOMICDATA/Cs.GGA_PBE-JTH.xml
 Pseudopotential format is: paw10
 basis_size (lnmax)=  6 (lmn_size= 18), orbitals=   0   0   1   1   2   2
 Spheres core radius: rc_sph= 2.20660278
 1 radial meshes are used:
  - mesh 1: r(i)=AA*[exp(BB*(i-1))-1], size=1500 , AA= 0.15922E-03 BB= 0.87573E-02
 Shapefunction is SIN type: shapef(r)=[sin(pi*r/rshp)/(pi*r/rshp)]**2
 Radius for shape functions =  2.00394208
 mmax= 1500
 Radial grid used for partial waves is grid 1
 Radial grid used for projectors is grid 1
 Radial grid used for (t)core density is grid 1
 Radial grid used for Vloc is grid 1
 Radial grid used for pseudo valence density is grid 1
 Mesh size for Vloc has been set to 1341 to avoid numerical noise.
 Compensation charge density is not taken into account in XC energy/potential
 pspatm: atomic psp has been read  and splines computed

- pspini: atom type   2  psp file is ../../../Psps_for_tests/ATOMICDATA/Br.GGA_PBE-JTH.xml
- pspatm: opening atomic psp file    ../../../Psps_for_tests/ATOMICDATA/Br.GGA_PBE-JTH.xml
- pspatm : Reading pseudopotential header in XML form from ../../../Psps_for_tests/ATOMICDATA/Br.GGA_PBE-JTH.xml
 Pseudopotential format is: paw10
 basis_size (lnmax)=  4 (lmn_size=  8), orbitals=   0   0   1   1
 Spheres core radius: rc_sph= 2.20000000
 1 radial meshes are used:
  - mesh 1: r(i)=AA*[exp(BB*(i-1))-1], size= 927 , AA= 0.40483E-03 BB= 0.14169E-01
 Shapefunction is BESSEL type: shapef(r,l)=aa(1,l)*jl(q(1,l)*r)+aa(2,l)*jl(q(2,l)*r)
 Radius for shape functions =  2.02066386
 mmax=  927
 Radial grid used for partial waves is grid 1
 Radial grid used for projectors is grid 1
 Radial grid used for (t)core density is grid 1
 Radial grid used for Vloc is grid 1
 Radial grid used for pseudo valence density is grid 1
 Mesh size for Vloc has been set to  763 to avoid numerical noise.
 Compensation charge density is not taken into account in XC energy/potential
 pspatm: atomic psp has been read  and splines computed

- pspini: atom type   3  psp file is ../../../Psps_for_tests/ATOMICDATA/Hf.GGA_PBE-JTH.xml
- pspatm: opening atomic psp file    ../../../Psps_for_tests/ATOMICDATA/Hf.GGA_PBE-JTH.xml
- pspatm : Reading pseudopotential header in XML form from ../../../Psps_for_tests/ATOMICDATA/Hf.GGA_PBE-JTH.xml
 Pseudopotential format is: paw10
 basis_size (lnmax)=  6 (lmn_size= 18), orbitals=   0   0   1   1   2   2
 Spheres core radius: rc_sph= 2.41000000
 1 radial meshes are used:
  - mesh 1: r(i)=AA*[exp(BB*(i-1))-1], size= 972 , AA= 0.19796E-03 BB= 0.14253E-01
 Shapefunction is SIN type: shapef(r)=[sin(pi*r/rshp)/(pi*r/rshp)]**2
 Radius for shape functions =  2.41000000
 mmax=  972
 Radial grid used for partial waves is grid 1
 Radial grid used for projectors is grid 1
 Radial grid used for (t)core density is grid 1
 Radial grid used for Vloc is grid 1
 Radial grid used for pseudo valence density is grid 1
 Mesh size for Vloc has been set to  809 to avoid numerical noise.
 Compensation charge density is not taken into account in XC energy/potential
 pspatm: atomic psp has been read  and splines computed

   2.70510764E+04                                ecore*ucvol(ha*bohr**3)
--------------------------------------------------------------------------------

_setup2: Arith. and geom. avg. npw (full set) are    9178.031    9178.023

================================================================================

=== [ionmov= 2] Broyden-Fletcher-Goldfard-Shanno method (forces)            
================================================================================

--- Iteration: (   1/1000) Internal Cycle: (1/1)
--------------------------------------------------------------------------------

---SELF-CONSISTENT-FIELD CONVERGENCE--------------------------------------------

--- !BeginCycle
iteration_state: {dtset: 1, itime: 1, icycle: 1, }
solver: {iscf: 17, nstep: 2500, nline: 4, wfoptalg: 10, }
tolerances: {toldff: 1.00E-08, }
...

     iter   Etot(hartree)      deltaE(h)  residm     nres2    diffor    maxfor
 ETOT  1  -171.33747464899    -1.713E+02 7.105E+00 7.436E+00 1.005E-02 1.005E-02
 ETOT  2  -173.10637263679    -1.769E+00 2.401E-02 4.216E+00 2.435E-02 1.430E-02
 ETOT  3  -173.09215769426     1.421E-02 1.333E-02 6.294E-01 4.644E-02 3.214E-02
 ETOT  4  -173.09318090924    -1.023E-03 3.597E-03 1.095E-01 3.530E-02 3.156E-03
 ETOT  5  -173.09337031485    -1.894E-04 2.390E-03 8.425E-03 5.775E-03 2.619E-03
 ETOT  6  -173.09342795238    -5.764E-05 1.589E-03 7.867E-04 2.609E-03 1.047E-05
 ETOT  7  -173.09343727967    -9.327E-06 1.311E-03 1.658E-04 5.474E-04 5.369E-04
 ETOT  8  -173.09343964316    -2.363E-06 8.728E-04 4.091E-06 4.747E-05 4.894E-04
 ETOT  9  -173.09343973043    -8.727E-08 5.399E-04 5.895E-07 9.814E-06 4.992E-04
 ETOT 10  -173.09343974330    -1.287E-08 4.217E-04 7.901E-08 7.538E-06 4.917E-04
 ETOT 11  -173.09343974370    -3.948E-10 2.333E-04 6.884E-09 5.980E-06 4.977E-04
 ETOT 12  -173.09343974355     1.425E-10 2.787E-04 1.209E-09 2.985E-06 5.007E-04
 ETOT 13  -173.09343974357    -1.523E-11 1.529E-04 1.511E-10 4.592E-07 5.002E-04
 ETOT 14  -173.09343974360    -2.655E-11 1.556E-04 1.996E-11 3.918E-07 5.006E-04
 ETOT 15  -173.09343974361    -1.026E-11 1.065E-04 1.505E-12 1.740E-09 5.006E-04
 ETOT 16  -173.09343974361    -1.080E-12 1.064E-04 1.247E-13 5.804E-08 5.007E-04
 ETOT 17  -173.09343974360     5.144E-12 7.173E-05 1.800E-14 5.491E-09 5.007E-04
 ETOT 18  -173.09343974360    -4.832E-13 7.118E-05 1.255E-15 5.782E-09 5.007E-04

 At SCF step   18, forces are converged : 
  for the second time, max diff in force=  5.782E-09 < toldff=  1.000E-08

 Cartesian components of stress tensor (hartree/bohr^3)
  sigma(1 1)= -9.60461175E-05  sigma(3 2)=  0.00000000E+00
  sigma(2 2)= -9.60461175E-05  sigma(3 1)=  0.00000000E+00
  sigma(3 3)= -9.60461175E-05  sigma(2 1)=  0.00000000E+00


--- !ResultsGS
iteration_state: {dtset: 1, itime: 1, icycle: 1, }
comment   : Summary of ground state results
lattice_vectors:
- [  0.0000000,   9.9568207,   9.9568207, ]
- [  9.9568207,   0.0000000,   9.9568207, ]
- [  9.9568207,   9.9568207,   0.0000000, ]
lattice_lengths: [  14.08107,   14.08107,   14.08107, ]
lattice_angles: [ 60.000,  60.000,  60.000, ] # degrees, (23, 13, 12)
lattice_volume:   1.9742041E+03
convergence: {deltae: -4.832E-13, res2:  1.255E-15, residm:  7.118E-05, diffor:  5.782E-09, }
etotal    :  -1.73093440E+02
entropy   :   0.00000000E+00
fermie    :  -4.97180114E-02
cartesian_stress_tensor: # hartree/bohr^3
- [ -9.60461175E-05,   0.00000000E+00,   0.00000000E+00, ]
- [  0.00000000E+00,  -9.60461175E-05,   0.00000000E+00, ]
- [  0.00000000E+00,   0.00000000E+00,  -9.60461175E-05, ]
pressure_GPa:   2.8258E+00
xred      :
- [  2.5000E-01,   2.5000E-01,   2.5000E-01, Cs]
- [  7.5000E-01,   7.5000E-01,   7.5000E-01, Cs]
- [  7.5299E-01,   2.4701E-01,   7.5299E-01, Br]
- [  2.4701E-01,   2.4701E-01,   7.5299E-01, Br]
- [  7.5299E-01,   7.5299E-01,   2.4701E-01, Br]
- [  2.4701E-01,   7.5299E-01,   2.4701E-01, Br]
- [  2.4701E-01,   7.5299E-01,   7.5299E-01, Br]
- [  7.5299E-01,   2.4701E-01,   2.4701E-01, Br]
- [ -4.2151E-20,   3.6284E-19,  -7.6525E-20, Hf]
cartesian_forces: # hartree/bohr
- [  1.05637589E-31,   6.02334540E-21,   1.16951833E-20, ]
- [ -1.98070480E-32,   6.02334540E-21,   1.16951833E-20, ]
- [  3.16356772E-21,  -5.00663440E-04,   8.53161556E-21, ]
- [  1.38175171E-20,  -7.79417174E-21,   5.00663440E-04, ]
- [ -1.38175171E-20,   1.98408625E-20,  -5.00663440E-04, ]
- [  5.10465409E-20,   5.00663440E-04,  -3.93513576E-20, ]
- [ -5.00663440E-04,   5.27430723E-20,  -3.50245436E-20, ]
- [  5.00663440E-04,   1.35137271E-20,   4.20480157E-21, ]
- [ -0.00000000E+00,   6.02334540E-21,   1.16951833E-20, ]
force_length_stats: {min:   1.31551512E-20, max:   5.00663440E-04, mean:   3.33775627E-04, }
...

 Integrated electronic density in atomic spheres:
 ------------------------------------------------
 Atom  Sphere_radius  Integrated_density
    1        2.20660          5.37785829
    2        2.20660          5.37785829
    3        2.20000          4.95296759
    4        2.20000          4.95296759
    5        2.20000          4.95296759
    6        2.20000          4.95296759
    7        2.20000          4.95296759
    8        2.20000          4.95296759
    9        2.41000          9.32853731

 PAW TEST:
 ==== Compensation charge inside spheres ============
 The following values must be close to each other ...
 Compensation charge over spherical meshes =     -0.274784696847861
 Compensation charge over fine fft grid    =     -0.274780859775701

 ==== Results concerning PAW augmentation regions ====

 Total pseudopotential strength Dij (hartree):
 Atom #  1
   0.42097  -0.13951   0.00000   0.00000   0.00000   0.00000   0.00000   0.00000   0.00000   0.00000   0.00000   0.00000 ...
  -0.13951   0.04190   0.00000   0.00000   0.00000   0.00000   0.00000   0.00000   0.00000   0.00000   0.00000   0.00000 ...
   0.00000   0.00000  -0.09119   0.00000   0.00000  -0.16800   0.00000   0.00000   0.00000   0.00000   0.00000  -0.00000 ...
   0.00000   0.00000   0.00000  -0.09119   0.00000   0.00000  -0.16800   0.00000  -0.00000   0.00000   0.00000   0.00000 ...
   0.00000   0.00000   0.00000   0.00000  -0.09119   0.00000   0.00000  -0.16800   0.00000  -0.00000   0.00000   0.00000 ...
   0.00000   0.00000  -0.16800   0.00000   0.00000   0.39820   0.00000   0.00000   0.00000   0.00000   0.00000   0.00000 ...
   0.00000   0.00000   0.00000  -0.16800   0.00000   0.00000   0.39820   0.00000   0.00000   0.00000   0.00000   0.00000 ...
   0.00000   0.00000   0.00000   0.00000  -0.16800   0.00000   0.00000   0.39820   0.00000   0.00000   0.00000   0.00000 ...
   0.00000   0.00000   0.00000  -0.00000   0.00000   0.00000   0.00000   0.00000   0.00556   0.00000   0.00000   0.00000 ...
   0.00000   0.00000   0.00000   0.00000  -0.00000   0.00000   0.00000   0.00000   0.00000   0.00556   0.00000   0.00000 ...
   0.00000   0.00000   0.00000   0.00000   0.00000   0.00000   0.00000   0.00000   0.00000   0.00000   0.00556   0.00000 ...
   0.00000   0.00000  -0.00000   0.00000   0.00000   0.00000   0.00000   0.00000   0.00000   0.00000   0.00000   0.00556 ...
   ...  only 12  components have been written...
 Atom #  9
  -3.49259   0.41897   0.00000   0.00000   0.00000   0.00000   0.00000   0.00000   0.00000   0.00000   0.00000   0.00000 ...
   0.41897   0.00467   0.00000   0.00000   0.00000   0.00000   0.00000   0.00000   0.00000   0.00000   0.00000   0.00000 ...
   0.00000   0.00000  -1.41360   0.00000   0.00000   0.11485   0.00000   0.00000   0.00000   0.00000   0.00000   0.00000 ...
   0.00000   0.00000   0.00000  -1.41360   0.00000   0.00000   0.11485   0.00000   0.00000   0.00000   0.00000   0.00000 ...
   0.00000   0.00000   0.00000   0.00000  -1.41360   0.00000   0.00000   0.11485   0.00000   0.00000   0.00000   0.00000 ...
   0.00000   0.00000   0.11485   0.00000   0.00000   0.01480   0.00000   0.00000   0.00000   0.00000   0.00000   0.00000 ...
   0.00000   0.00000   0.00000   0.11485   0.00000   0.00000   0.01480   0.00000   0.00000   0.00000   0.00000   0.00000 ...
   0.00000   0.00000   0.00000   0.00000   0.11485   0.00000   0.00000   0.01480   0.00000   0.00000   0.00000   0.00000 ...
   0.00000   0.00000   0.00000   0.00000   0.00000   0.00000   0.00000   0.00000  -0.38587   0.00000   0.00000   0.00000 ...
   0.00000   0.00000   0.00000   0.00000   0.00000   0.00000   0.00000   0.00000   0.00000  -0.38587   0.00000   0.00000 ...
   0.00000   0.00000   0.00000   0.00000   0.00000   0.00000   0.00000   0.00000   0.00000   0.00000  -0.38523   0.00000 ...
   0.00000   0.00000   0.00000   0.00000   0.00000   0.00000   0.00000   0.00000   0.00000   0.00000   0.00000  -0.38587 ...
   ...  only 12  components have been written...


 Augmentation waves occupancies Rhoij:
 Atom #  1
   1.99891  -0.01215   0.00000   0.00000   0.00000   0.00000   0.00000   0.00000   0.00000   0.00000   0.00000   0.00000 ...
  -0.01215   0.18297   0.00000   0.00000   0.00000   0.00000   0.00000   0.00000   0.00000   0.00000   0.00000   0.00000 ...
   0.00000   0.00000   2.00972   0.00000   0.00000  -0.00493   0.00000   0.00000   0.00000   0.00000   0.00000  -0.00091 ...
   0.00000   0.00000   0.00000   2.00972   0.00000   0.00000  -0.00493   0.00000  -0.00091   0.00000   0.00000   0.00000 ...
   0.00000   0.00000   0.00000   0.00000   2.00972   0.00000   0.00000  -0.00493   0.00000  -0.00091   0.00000   0.00000 ...
   0.00000   0.00000  -0.00493   0.00000   0.00000   0.00014   0.00000   0.00000   0.00000   0.00000   0.00000  -0.00005 ...
   0.00000   0.00000   0.00000  -0.00493   0.00000   0.00000   0.00014   0.00000  -0.00005   0.00000   0.00000   0.00000 ...
   0.00000   0.00000   0.00000   0.00000  -0.00493   0.00000   0.00000   0.00014   0.00000  -0.00005   0.00000   0.00000 ...
   0.00000   0.00000   0.00000  -0.00091   0.00000   0.00000  -0.00005   0.00000   0.06625   0.00000   0.00000   0.00000 ...
   0.00000   0.00000   0.00000   0.00000  -0.00091   0.00000   0.00000  -0.00005   0.00000   0.06625   0.00000   0.00000 ...
   0.00000   0.00000   0.00000   0.00000   0.00000   0.00000   0.00000   0.00000   0.00000   0.00000   0.04268   0.00000 ...
   0.00000   0.00000  -0.00091   0.00000   0.00000  -0.00005   0.00000   0.00000   0.00000   0.00000   0.00000   0.06625 ...
   ...  only 12  components have been written...
 Atom #  9
   1.99791  -0.02146   0.00000   0.00000   0.00000   0.00000   0.00000   0.00000   0.00000   0.00000   0.00000   0.00000 ...
  -0.02146   1.01603   0.00000   0.00000   0.00000   0.00000   0.00000   0.00000   0.00000   0.00000   0.00000   0.00000 ...
   0.00000   0.00000   1.99267   0.00000   0.00000  -0.06395   0.00000   0.00000   0.00000   0.00000   0.00000   0.00000 ...
   0.00000   0.00000   0.00000   1.99267   0.00000   0.00000  -0.06395   0.00000   0.00000   0.00000   0.00000   0.00000 ...
   0.00000   0.00000   0.00000   0.00000   1.99267   0.00000   0.00000  -0.06395   0.00000   0.00000   0.00000   0.00000 ...
   0.00000   0.00000  -0.06395   0.00000   0.00000   1.36234   0.00000   0.00000   0.00000   0.00000   0.00000   0.00000 ...
   0.00000   0.00000   0.00000  -0.06395   0.00000   0.00000   1.36234   0.00000   0.00000   0.00000   0.00000   0.00000 ...
   0.00000   0.00000   0.00000   0.00000  -0.06395   0.00000   0.00000   1.36234   0.00000   0.00000   0.00000   0.00000 ...
   0.00000   0.00000   0.00000   0.00000   0.00000   0.00000   0.00000   0.00000   0.51739   0.00000   0.00000   0.00000 ...
   0.00000   0.00000   0.00000   0.00000   0.00000   0.00000   0.00000   0.00000   0.00000   0.51739   0.00000   0.00000 ...
   0.00000   0.00000   0.00000   0.00000   0.00000   0.00000   0.00000   0.00000   0.00000   0.00000   1.55740   0.00000 ...
   0.00000   0.00000   0.00000   0.00000   0.00000   0.00000   0.00000   0.00000   0.00000   0.00000   0.00000   0.51739 ...
   ...  only 12  components have been written...



---OUTPUT-----------------------------------------------------------------------

 Cartesian coordinates (xcart) [bohr]
  4.97841036694425E+00  4.97841036694425E+00  4.97841036694425E+00
  1.49352311008328E+01  1.49352311008328E+01  1.49352311008328E+01
  9.95682073388850E+00  1.49948368504421E+01  9.95682073388850E+00
  9.95682073388850E+00  9.95682073388850E+00  4.91880461733489E+00
  9.95682073388850E+00  9.95682073388850E+00  1.49948368504421E+01
  9.95682073388850E+00  4.91880461733489E+00  9.95682073388850E+00
  1.49948368504421E+01  9.95682073388850E+00  9.95682073388850E+00
  4.91880461733489E+00  9.95682073388850E+00  9.95682073388850E+00
  2.85080208065068E-18 -1.18164017797087E-18  3.19305656059079E-18
 Reduced coordinates (xred)
  2.50000000000000E-01  2.50000000000000E-01  2.50000000000000E-01
  7.50000000000000E-01  7.50000000000000E-01  7.50000000000000E-01
  7.52993211950000E-01  2.47006788050000E-01  7.52993211950000E-01
  2.47006788050000E-01  2.47006788050000E-01  7.52993211950000E-01
  7.52993211950000E-01  7.52993211950000E-01  2.47006788050000E-01
  2.47006788050000E-01  7.52993211950000E-01  2.47006788050000E-01
  2.47006788050000E-01  7.52993211950000E-01  7.52993211950000E-01
  7.52993211950000E-01  2.47006788050000E-01  2.47006788050000E-01
 -4.21512910830000E-20  3.62841664640000E-19 -7.65251629330000E-20
 Cartesian forces (fcart) [Ha/bohr]; max,rms= 5.00663E-04 2.36015E-04 (free atoms)
  1.05637589387824E-31  6.02334540280288E-21  1.16951832809565E-20
 -1.98070480102169E-32  6.02334540247277E-21  1.16951832814979E-20
  3.16356771709000E-21 -5.00663440451640E-04  8.53161556418338E-21
  1.38175171430632E-20 -7.79417174036597E-21  5.00663440451640E-04
 -1.38175171430632E-20  1.98408625457605E-20 -5.00663440451640E-04
  5.10465409071852E-20  5.00663440451640E-04 -3.93513576259118E-20
 -5.00663440451640E-04  5.27430723180893E-20 -3.50245436341186E-20
  5.00663440451640E-04  1.35137271115805E-20  4.20480157239018E-21
 -0.00000000000000E+00  6.02334540269725E-21  1.16951832812734E-20
 Reduced forces (fred)
 -1.76420213772453E-19 -1.16446843379505E-19 -5.99733703950515E-20
 -1.76420213774557E-19 -1.16446843383647E-19 -5.99733703905156E-20
  4.98501612458884E-03 -1.16446843381609E-19  4.98501612458884E-03
 -4.98501612458884E-03 -4.98501612458884E-03 -5.99733703929479E-20
  4.98501612458884E-03  4.98501612458884E-03 -5.99733703929479E-20
 -4.98501612458884E-03 -1.16446843381609E-19 -4.98501612458884E-03
 -1.76420213774557E-19  4.98501612458884E-03  4.98501612458884E-03
 -1.76420213774557E-19 -4.98501612458884E-03 -4.98501612458884E-03
 -1.76420213774557E-19 -1.16446843381609E-19 -5.99733703929479E-20
 Scale of Primitive Cell (acell) [bohr]
  1.40810709199140E+01  1.40810709199140E+01  1.40810709199140E+01
 Real space primitive translations (rprimd) [bohr]
  0.00000000000000E+00  9.95682073388850E+00  9.95682073388850E+00
  9.95682073388850E+00  0.00000000000000E+00  9.95682073388850E+00
  9.95682073388850E+00  9.95682073388850E+00  0.00000000000000E+00
 Unitary Cell Volume (ucvol) [Bohr^3]=  1.97420414626334E+03
 Angles (23,13,12)= [degrees]
  6.00000000000000E+01  6.00000000000000E+01  6.00000000000000E+01
 Lengths [Bohr]
  1.40810709199828E+01  1.40810709199828E+01  1.40810709199828E+01
 Stress tensor in cartesian coordinates (strten) [Ha/bohr^3]
 -9.60461175260885E-05  0.00000000000000E+00  0.00000000000000E+00
  0.00000000000000E+00 -9.60461175260911E-05  0.00000000000000E+00
  0.00000000000000E+00  0.00000000000000E+00 -9.60461175260876E-05
 Total energy (etotal) [Ha]= -1.73093439743603E+02

--- Iteration: (   2/1000) Internal Cycle: (1/1)
--------------------------------------------------------------------------------

---SELF-CONSISTENT-FIELD CONVERGENCE--------------------------------------------

--- !BeginCycle
iteration_state: {dtset: 1, itime: 2, icycle: 1, }
solver: {iscf: 17, nstep: 2500, nline: 4, wfoptalg: 10, }
tolerances: {toldff: 1.00E-08, }
...

     iter   Etot(hartree)      deltaE(h)  residm     nres2    diffor    maxfor
 ETOT  1  -173.09344495303    -1.731E+02 4.539E-05 6.298E-04 2.407E-03 2.907E-03
 ETOT  2  -173.09344135806     3.595E-06 3.352E-05 5.794E-05 2.504E-03 4.029E-04
 ETOT  3  -173.09344113428     2.238E-07 2.257E-05 4.275E-06 2.409E-04 6.438E-04
 ETOT  4  -173.09344112368     1.060E-08 3.040E-05 1.045E-06 1.777E-04 4.661E-04
 ETOT  5  -173.09344112936    -5.685E-09 2.435E-05 4.024E-07 2.361E-06 4.637E-04
 ETOT  6  -173.09344113594    -6.576E-09 3.271E-05 2.611E-08 2.442E-05 4.393E-04
 ETOT  7  -173.09344113666    -7.196E-10 2.591E-05 1.309E-08 8.463E-07 4.385E-04
 ETOT  8  -173.09344113816    -1.505E-09 3.447E-05 7.834E-10 2.202E-06 4.363E-04
 ETOT  9  -173.09344113826    -1.015E-10 2.694E-05 1.337E-10 8.875E-07 4.354E-04
 ETOT 10  -173.09344113818     8.481E-11 3.547E-05 2.442E-11 2.624E-07 4.357E-04
 ETOT 11  -173.09344113817     3.723E-12 2.734E-05 1.107E-12 1.235E-07 4.355E-04
 ETOT 12  -173.09344113818    -4.917E-12 3.559E-05 1.838E-13 7.037E-09 4.355E-04
 ETOT 13  -173.09344113820    -2.041E-11 2.705E-05 1.519E-14 6.931E-10 4.355E-04

 At SCF step   13, forces are converged : 
  for the second time, max diff in force=  6.931E-10 < toldff=  1.000E-08

 Cartesian components of stress tensor (hartree/bohr^3)
  sigma(1 1)= -9.57932480E-05  sigma(3 2)=  0.00000000E+00
  sigma(2 2)= -9.57932480E-05  sigma(3 1)=  0.00000000E+00
  sigma(3 3)= -9.57932480E-05  sigma(2 1)=  0.00000000E+00


--- !ResultsGS
iteration_state: {dtset: 1, itime: 2, icycle: 1, }
comment   : Summary of ground state results
lattice_vectors:
- [  0.0000000,   9.9568207,   9.9568207, ]
- [  9.9568207,   0.0000000,   9.9568207, ]
- [  9.9568207,   9.9568207,   0.0000000, ]
lattice_lengths: [  14.08107,   14.08107,   14.08107, ]
lattice_angles: [ 60.000,  60.000,  60.000, ] # degrees, (23, 13, 12)
lattice_volume:   1.9742041E+03
convergence: {deltae: -2.041E-11, res2:  1.519E-14, residm:  2.705E-05, diffor:  6.931E-10, }
etotal    :  -1.73093441E+02
entropy   :   0.00000000E+00
fermie    :  -4.97142418E-02
cartesian_stress_tensor: # hartree/bohr^3
- [ -9.57932480E-05,   0.00000000E+00,   0.00000000E+00, ]
- [  0.00000000E+00,  -9.57932480E-05,   0.00000000E+00, ]
- [  0.00000000E+00,   0.00000000E+00,  -9.57932480E-05, ]
pressure_GPa:   2.8183E+00
xred      :
- [  2.5000E-01,   2.5000E-01,   2.5000E-01, Cs]
- [  7.5000E-01,   7.5000E-01,   7.5000E-01, Cs]
- [  7.5297E-01,   2.4703E-01,   7.5297E-01, Br]
- [  2.4703E-01,   2.4703E-01,   7.5297E-01, Br]
- [  7.5297E-01,   7.5297E-01,   2.4703E-01, Br]
- [  2.4703E-01,   7.5297E-01,   2.4703E-01, Br]
- [  2.4703E-01,   7.5297E-01,   7.5297E-01, Br]
- [  7.5297E-01,   2.4703E-01,   2.4703E-01, Br]
- [ -4.1171E-20,   3.6368E-19,  -7.6193E-20, Hf]
cartesian_forces: # hartree/bohr
- [ -3.04614863E-25,  -2.76922602E-26,   8.03943707E-23, ]
- [  1.38461301E-25,  -1.38461301E-25,   8.01728326E-23, ]
- [ -7.20807803E-22,  -4.35524118E-04,   8.00897559E-22, ]
- [  1.08735031E-20,  -1.08735031E-20,   4.35524118E-04, ]
- [ -1.08735031E-20,   1.08735031E-20,  -4.35524118E-04, ]
- [  7.20807803E-22,   4.35524118E-04,  -6.40718047E-22, ]
- [ -4.35524118E-04,  -7.20807803E-22,   8.00897559E-22, ]
- [  4.35524118E-04,   7.20807803E-22,  -6.40718047E-22, ]
- [ -0.00000000E+00,  -0.00000000E+00,   8.00897559E-23, ]
force_length_stats: {min:   8.00897559E-23, max:   4.35524118E-04, mean:   2.90349412E-04, }
...

 Integrated electronic density in atomic spheres:
 ------------------------------------------------
 Atom  Sphere_radius  Integrated_density
    1        2.20660          5.37785970
    2        2.20660          5.37785970
    3        2.20000          4.95298311
    4        2.20000          4.95298311
    5        2.20000          4.95298311
    6        2.20000          4.95298311
    7        2.20000          4.95298311
    8        2.20000          4.95298311
    9        2.41000          9.32810872

 PAW TEST:
 ==== Compensation charge inside spheres ============
 The following values must be close to each other ...
 Compensation charge over spherical meshes =     -0.274816394834282
 Compensation charge over fine fft grid    =     -0.274812551394848

 ==== Results concerning PAW augmentation regions ====

 Total pseudopotential strength Dij (hartree):
 Atom #  1
   0.42097  -0.13951   0.00000   0.00000   0.00000   0.00000   0.00000   0.00000   0.00000   0.00000   0.00000   0.00000 ...
  -0.13951   0.04190   0.00000   0.00000   0.00000   0.00000   0.00000   0.00000   0.00000   0.00000   0.00000   0.00000 ...
   0.00000   0.00000  -0.09119   0.00000   0.00000  -0.16800   0.00000   0.00000   0.00000   0.00000   0.00000  -0.00000 ...
   0.00000   0.00000   0.00000  -0.09119   0.00000   0.00000  -0.16800   0.00000  -0.00000   0.00000   0.00000   0.00000 ...
   0.00000   0.00000   0.00000   0.00000  -0.09119   0.00000   0.00000  -0.16800   0.00000  -0.00000   0.00000   0.00000 ...
   0.00000   0.00000  -0.16800   0.00000   0.00000   0.39820   0.00000   0.00000   0.00000   0.00000   0.00000   0.00000 ...
   0.00000   0.00000   0.00000  -0.16800   0.00000   0.00000   0.39820   0.00000   0.00000   0.00000   0.00000   0.00000 ...
   0.00000   0.00000   0.00000   0.00000  -0.16800   0.00000   0.00000   0.39820   0.00000   0.00000   0.00000   0.00000 ...
   0.00000   0.00000   0.00000  -0.00000   0.00000   0.00000   0.00000   0.00000   0.00556   0.00000   0.00000   0.00000 ...
   0.00000   0.00000   0.00000   0.00000  -0.00000   0.00000   0.00000   0.00000   0.00000   0.00556   0.00000   0.00000 ...
   0.00000   0.00000   0.00000   0.00000   0.00000   0.00000   0.00000   0.00000   0.00000   0.00000   0.00556   0.00000 ...
   0.00000   0.00000  -0.00000   0.00000   0.00000   0.00000   0.00000   0.00000   0.00000   0.00000   0.00000   0.00556 ...
   ...  only 12  components have been written...
 Atom #  9
  -3.49262   0.41897   0.00000   0.00000   0.00000   0.00000   0.00000   0.00000   0.00000   0.00000   0.00000   0.00000 ...
   0.41897   0.00466   0.00000   0.00000   0.00000   0.00000   0.00000   0.00000   0.00000   0.00000   0.00000   0.00000 ...
   0.00000   0.00000  -1.41364   0.00000   0.00000   0.11485   0.00000   0.00000   0.00000   0.00000   0.00000   0.00000 ...
   0.00000   0.00000   0.00000  -1.41364   0.00000   0.00000   0.11485   0.00000   0.00000   0.00000   0.00000   0.00000 ...
   0.00000   0.00000   0.00000   0.00000  -1.41364   0.00000   0.00000   0.11485   0.00000   0.00000   0.00000   0.00000 ...
   0.00000   0.00000   0.11485   0.00000   0.00000   0.01480   0.00000   0.00000   0.00000   0.00000   0.00000   0.00000 ...
   0.00000   0.00000   0.00000   0.11485   0.00000   0.00000   0.01480   0.00000   0.00000   0.00000   0.00000   0.00000 ...
   0.00000   0.00000   0.00000   0.00000   0.11485   0.00000   0.00000   0.01480   0.00000   0.00000   0.00000   0.00000 ...
   0.00000   0.00000   0.00000   0.00000   0.00000   0.00000   0.00000   0.00000  -0.38588   0.00000   0.00000   0.00000 ...
   0.00000   0.00000   0.00000   0.00000   0.00000   0.00000   0.00000   0.00000   0.00000  -0.38588   0.00000   0.00000 ...
   0.00000   0.00000   0.00000   0.00000   0.00000   0.00000   0.00000   0.00000   0.00000   0.00000  -0.38524   0.00000 ...
   0.00000   0.00000   0.00000   0.00000   0.00000   0.00000   0.00000   0.00000   0.00000   0.00000   0.00000  -0.38588 ...
   ...  only 12  components have been written...


 Augmentation waves occupancies Rhoij:
 Atom #  1
   1.99891  -0.01215   0.00000   0.00000   0.00000   0.00000   0.00000   0.00000   0.00000   0.00000   0.00000   0.00000 ...
  -0.01215   0.18298   0.00000   0.00000   0.00000   0.00000   0.00000   0.00000   0.00000   0.00000   0.00000   0.00000 ...
   0.00000   0.00000   2.00972   0.00000   0.00000  -0.00493   0.00000   0.00000   0.00000   0.00000   0.00000  -0.00092 ...
   0.00000   0.00000   0.00000   2.00972   0.00000   0.00000  -0.00493   0.00000  -0.00092   0.00000   0.00000   0.00000 ...
   0.00000   0.00000   0.00000   0.00000   2.00972   0.00000   0.00000  -0.00493   0.00000  -0.00092   0.00000   0.00000 ...
   0.00000   0.00000  -0.00493   0.00000   0.00000   0.00014   0.00000   0.00000   0.00000   0.00000   0.00000  -0.00005 ...
   0.00000   0.00000   0.00000  -0.00493   0.00000   0.00000   0.00014   0.00000  -0.00005   0.00000   0.00000   0.00000 ...
   0.00000   0.00000   0.00000   0.00000  -0.00493   0.00000   0.00000   0.00014   0.00000  -0.00005   0.00000   0.00000 ...
   0.00000   0.00000   0.00000  -0.00092   0.00000   0.00000  -0.00005   0.00000   0.06625   0.00000   0.00000   0.00000 ...
   0.00000   0.00000   0.00000   0.00000  -0.00092   0.00000   0.00000  -0.00005   0.00000   0.06625   0.00000   0.00000 ...
   0.00000   0.00000   0.00000   0.00000   0.00000   0.00000   0.00000   0.00000   0.00000   0.00000   0.04268   0.00000 ...
   0.00000   0.00000  -0.00092   0.00000   0.00000  -0.00005   0.00000   0.00000   0.00000   0.00000   0.00000   0.06625 ...
   ...  only 12  components have been written...
 Atom #  9
   1.99791  -0.02147   0.00000   0.00000   0.00000   0.00000   0.00000   0.00000   0.00000   0.00000   0.00000   0.00000 ...
  -0.02147   1.01584   0.00000   0.00000   0.00000   0.00000   0.00000   0.00000   0.00000   0.00000   0.00000   0.00000 ...
   0.00000   0.00000   1.99266   0.00000   0.00000  -0.06401   0.00000   0.00000   0.00000   0.00000   0.00000   0.00000 ...
   0.00000   0.00000   0.00000   1.99266   0.00000   0.00000  -0.06401   0.00000   0.00000   0.00000   0.00000   0.00000 ...
   0.00000   0.00000   0.00000   0.00000   1.99266   0.00000   0.00000  -0.06401   0.00000   0.00000   0.00000   0.00000 ...
   0.00000   0.00000  -0.06401   0.00000   0.00000   1.36168   0.00000   0.00000   0.00000   0.00000   0.00000   0.00000 ...
   0.00000   0.00000   0.00000  -0.06401   0.00000   0.00000   1.36168   0.00000   0.00000   0.00000   0.00000   0.00000 ...
   0.00000   0.00000   0.00000   0.00000  -0.06401   0.00000   0.00000   1.36168   0.00000   0.00000   0.00000   0.00000 ...
   0.00000   0.00000   0.00000   0.00000   0.00000   0.00000   0.00000   0.00000   0.51710   0.00000   0.00000   0.00000 ...
   0.00000   0.00000   0.00000   0.00000   0.00000   0.00000   0.00000   0.00000   0.00000   0.51710   0.00000   0.00000 ...
   0.00000   0.00000   0.00000   0.00000   0.00000   0.00000   0.00000   0.00000   0.00000   0.00000   1.55654   0.00000 ...
   0.00000   0.00000   0.00000   0.00000   0.00000   0.00000   0.00000   0.00000   0.00000   0.00000   0.00000   0.51710 ...
   ...  only 12  components have been written...



---OUTPUT-----------------------------------------------------------------------

 Cartesian coordinates (xcart) [bohr]
  4.97841036694425E+00  4.97841036694425E+00  4.97841036694425E+00
  1.49352311008328E+01  1.49352311008328E+01  1.49352311008328E+01
  9.95682073388850E+00  1.49943361870017E+01  9.95682073388850E+00
  9.95682073388850E+00  9.95682073388850E+00  4.91930528077534E+00
  9.95682073388850E+00  9.95682073388850E+00  1.49943361870017E+01
  9.95682073388850E+00  4.91930528077534E+00  9.95682073388850E+00
  1.49943361870017E+01  9.95682073388850E+00  9.95682073388850E+00
  4.91930528077534E+00  9.95682073388850E+00  9.95682073388850E+00
  2.86244995254852E-18 -1.16857567208929E-18  3.21116270014221E-18
 Reduced coordinates (xred)
  2.50000000000000E-01  2.50000000000000E-01  2.50000000000000E-01
  7.50000000000000E-01  7.50000000000000E-01  7.50000000000000E-01
  7.52968070217823E-01  2.47031929782177E-01  7.52968070217823E-01
  2.47031929782177E-01  2.47031929782177E-01  7.52968070217823E-01
  7.52968070217823E-01  7.52968070217823E-01  2.47031929782177E-01
  2.47031929782177E-01  7.52968070217823E-01  2.47031929782177E-01
  2.47031929782177E-01  7.52968070217823E-01  7.52968070217823E-01
  7.52968070217823E-01  2.47031929782177E-01  2.47031929782177E-01
 -4.11709192325400E-20  3.63679758747233E-19 -7.61934185738035E-20
 Cartesian forces (fcart) [Ha/bohr]; max,rms= 4.35524E-04 2.05308E-04 (free atoms)
 -3.04614862557298E-25 -2.76922602324816E-26  8.03943707239660E-23
  1.38461301162408E-25 -1.38461301162408E-25  8.01728326421062E-23
 -7.20807802752679E-22 -4.35524118175269E-04  8.00897558614087E-22
  1.08735031176297E-20 -1.08735031176297E-20  4.35524118175269E-04
 -1.08735031176297E-20  1.08735031176297E-20 -4.35524118175269E-04
  7.20807802752679E-22  4.35524118175269E-04 -6.40718046891270E-22
 -4.35524118175269E-04 -7.20807802752679E-22  8.00897558614087E-22
  4.35524118175269E-04  7.20807802752679E-22 -6.40718046891270E-22
 -0.00000000000000E+00 -0.00000000000000E+00  8.00897558614087E-23
 Reduced forces (fred)
 -8.00196610441453E-22 -7.97439341732943E-22  3.30872245021211E-24
 -7.96887887991241E-22 -7.99645156699751E-22 -8.68168502443645E-41
  4.33643556995602E-03 -7.97439341732942E-22  4.33643556995602E-03
 -4.33643556995602E-03 -4.33643556995602E-03  4.44662174424315E-36
  4.33643556995602E-03  4.33643556995602E-03 -4.44662174424315E-36
 -4.33643556995602E-03 -7.97439341732943E-22 -4.33643556995602E-03
 -7.97439341732942E-22  4.33643556995602E-03  4.33643556995602E-03
 -7.97439341732943E-22 -4.33643556995602E-03 -4.33643556995602E-03
 -7.97439341732943E-22 -7.97439341732943E-22 -0.00000000000000E+00
 Scale of Primitive Cell (acell) [bohr]
  1.40810709199140E+01  1.40810709199140E+01  1.40810709199140E+01
 Real space primitive translations (rprimd) [bohr]
  0.00000000000000E+00  9.95682073388850E+00  9.95682073388850E+00
  9.95682073388850E+00  0.00000000000000E+00  9.95682073388850E+00
  9.95682073388850E+00  9.95682073388850E+00  0.00000000000000E+00
 Unitary Cell Volume (ucvol) [Bohr^3]=  1.97420414626334E+03
 Angles (23,13,12)= [degrees]
  6.00000000000000E+01  6.00000000000000E+01  6.00000000000000E+01
 Lengths [Bohr]
  1.40810709199828E+01  1.40810709199828E+01  1.40810709199828E+01
 Stress tensor in cartesian coordinates (strten) [Ha/bohr^3]
 -9.57932480194091E-05  0.00000000000000E+00  0.00000000000000E+00
  0.00000000000000E+00 -9.57932480194152E-05  0.00000000000000E+00
  0.00000000000000E+00  0.00000000000000E+00 -9.57932480194143E-05
 Total energy (etotal) [Ha]= -1.73093441138200E+02

 Difference of energy with previous step (new-old):
           Absolute (Ha)=-1.39460E-06
           Relative     =-8.05690E-09

--- Iteration: (   3/1000) Internal Cycle: (1/1)
--------------------------------------------------------------------------------

---SELF-CONSISTENT-FIELD CONVERGENCE--------------------------------------------

--- !BeginCycle
iteration_state: {dtset: 1, itime: 3, icycle: 1, }
solver: {iscf: 17, nstep: 2500, nline: 4, wfoptalg: 10, }
tolerances: {toldff: 1.00E-08, }
...

     iter   Etot(hartree)      deltaE(h)  residm     nres2    diffor    maxfor
 ETOT  1  -173.09361158064    -1.731E+02 2.904E-05 2.810E-02 1.609E-02 1.652E-02
 ETOT  2  -173.09345560472     1.560E-04 2.575E-05 2.558E-03 1.672E-02 2.009E-04
 ETOT  3  -173.09344559592     1.001E-05 3.014E-05 1.902E-04 1.598E-03 1.397E-03
 ETOT  4  -173.09344524549     3.504E-07 2.375E-05 4.662E-05 1.193E-03 2.043E-04
 ETOT  5  -173.09344534453    -9.904E-08 2.734E-05 1.786E-05 1.454E-05 1.898E-04
 ETOT  6  -173.09344541980    -7.528E-08 2.142E-05 1.142E-06 1.635E-04 2.630E-05
 ETOT  7  -173.09344542931    -9.508E-09 2.441E-05 5.750E-07 5.729E-06 2.057E-05
 ETOT  8  -173.09344544358    -1.427E-08 1.895E-05 3.488E-08 1.418E-05 6.394E-06
 ETOT  9  -173.09344544466    -1.087E-09 2.142E-05 5.898E-09 5.959E-06 4.345E-07
 ETOT 10  -173.09344544408     5.828E-10 1.648E-05 1.099E-09 1.718E-06 2.153E-06
 ETOT 11  -173.09344544412    -3.587E-11 1.850E-05 5.051E-11 8.032E-07 1.349E-06
 ETOT 12  -173.09344544412    -1.990E-13 1.412E-05 8.140E-12 5.167E-08 1.298E-06
 ETOT 13  -173.09344544422    -9.760E-11 1.576E-05 6.952E-13 7.086E-09 1.305E-06
 ETOT 14  -173.09344544430    -8.333E-11 1.195E-05 8.888E-14 1.011E-08 1.295E-06
 ETOT 15  -173.09344544434    -4.442E-11 1.327E-05 3.505E-14 2.253E-09 1.297E-06
 ETOT 16  -173.09344544437    -3.106E-11 1.000E-05 1.369E-14 5.947E-10 1.296E-06

 At SCF step   16, forces are converged : 
  for the second time, max diff in force=  5.947E-10 < toldff=  1.000E-08

 Cartesian components of stress tensor (hartree/bohr^3)
  sigma(1 1)= -9.41091078E-05  sigma(3 2)=  0.00000000E+00
  sigma(2 2)= -9.41091078E-05  sigma(3 1)=  0.00000000E+00
  sigma(3 3)= -9.41091078E-05  sigma(2 1)=  0.00000000E+00


--- !ResultsGS
iteration_state: {dtset: 1, itime: 3, icycle: 1, }
comment   : Summary of ground state results
lattice_vectors:
- [  0.0000000,   9.9568207,   9.9568207, ]
- [  9.9568207,   0.0000000,   9.9568207, ]
- [  9.9568207,   9.9568207,   0.0000000, ]
lattice_lengths: [  14.08107,   14.08107,   14.08107, ]
lattice_angles: [ 60.000,  60.000,  60.000, ] # degrees, (23, 13, 12)
lattice_volume:   1.9742041E+03
convergence: {deltae: -3.106E-11, res2:  1.369E-14, residm:  1.000E-05, diffor:  5.947E-10, }
etotal    :  -1.73093445E+02
entropy   :   0.00000000E+00
fermie    :  -4.96886590E-02
cartesian_stress_tensor: # hartree/bohr^3
- [ -9.41091078E-05,   0.00000000E+00,   0.00000000E+00, ]
- [  0.00000000E+00,  -9.41091078E-05,   0.00000000E+00, ]
- [  0.00000000E+00,   0.00000000E+00,  -9.41091078E-05, ]
pressure_GPa:   2.7688E+00
xred      :
- [  2.5000E-01,   2.5000E-01,   2.5000E-01, Cs]
- [  7.5000E-01,   7.5000E-01,   7.5000E-01, Cs]
- [  7.5280E-01,   2.4720E-01,   7.5280E-01, Br]
- [  2.4720E-01,   2.4720E-01,   7.5280E-01, Br]
- [  7.5280E-01,   7.5280E-01,   2.4720E-01, Br]
- [  2.4720E-01,   7.5280E-01,   2.4720E-01, Br]
- [  2.4720E-01,   7.5280E-01,   7.5280E-01, Br]
- [  7.5280E-01,   2.4720E-01,   2.4720E-01, Br]
- [ -4.1154E-20,   3.6371E-19,  -7.6217E-20, Hf]
cartesian_forces: # hartree/bohr
- [ -2.36394620E-23,   2.36394620E-23,   9.70383829E-24, ]
- [ -2.34179239E-23,   2.34179239E-23,   9.92537637E-24, ]
- [  2.05777196E-22,  -1.29627392E-06,  -2.19491282E-22, ]
- [ -1.53477149E-22,   1.53477149E-22,   1.29627392E-06, ]
- [  1.06419763E-22,  -1.06419763E-22,  -1.29627392E-06, ]
- [ -1.46955464E-22,   1.29627392E-06,   1.33241378E-22, ]
- [ -1.29627392E-06,   1.48792107E-22,  -1.15448807E-22, ]
- [  1.29627392E-06,  -1.01734721E-22,   1.35078022E-22, ]
- [ -2.35286930E-23,   2.35286930E-23,   9.81460733E-24, ]
force_length_stats: {min:   3.45732761E-23, max:   1.29627392E-06, mean:   8.64182615E-07, }
...

 Integrated electronic density in atomic spheres:
 ------------------------------------------------
 Atom  Sphere_radius  Integrated_density
    1        2.20660          5.37786908
    2        2.20660          5.37786908
    3        2.20000          4.95203100
    4        2.20000          4.95203100
    5        2.20000          4.95203100
    6        2.20000          4.95203100
    7        2.20000          4.95203100
    8        2.20000          4.95203100
    9        2.41000          9.32525255

 PAW TEST:
 ==== Compensation charge inside spheres ============
 The following values must be close to each other ...
 Compensation charge over spherical meshes =     -0.275028516636765
 Compensation charge over fine fft grid    =     -0.275024593333130

 ==== Results concerning PAW augmentation regions ====

 Total pseudopotential strength Dij (hartree):
 Atom #  1
   0.42095  -0.13950   0.00000   0.00000   0.00000   0.00000   0.00000   0.00000   0.00000   0.00000   0.00000   0.00000 ...
  -0.13950   0.04190   0.00000   0.00000   0.00000   0.00000   0.00000   0.00000   0.00000   0.00000   0.00000   0.00000 ...
   0.00000   0.00000  -0.09119   0.00000   0.00000  -0.16800   0.00000   0.00000   0.00000   0.00000   0.00000  -0.00000 ...
   0.00000   0.00000   0.00000  -0.09119   0.00000   0.00000  -0.16800   0.00000  -0.00000   0.00000   0.00000   0.00000 ...
   0.00000   0.00000   0.00000   0.00000  -0.09119   0.00000   0.00000  -0.16800   0.00000  -0.00000   0.00000   0.00000 ...
   0.00000   0.00000  -0.16800   0.00000   0.00000   0.39820   0.00000   0.00000   0.00000   0.00000   0.00000   0.00000 ...
   0.00000   0.00000   0.00000  -0.16800   0.00000   0.00000   0.39820   0.00000   0.00000   0.00000   0.00000   0.00000 ...
   0.00000   0.00000   0.00000   0.00000  -0.16800   0.00000   0.00000   0.39820   0.00000   0.00000   0.00000   0.00000 ...
   0.00000   0.00000   0.00000  -0.00000   0.00000   0.00000   0.00000   0.00000   0.00556   0.00000   0.00000   0.00000 ...
   0.00000   0.00000   0.00000   0.00000  -0.00000   0.00000   0.00000   0.00000   0.00000   0.00556   0.00000   0.00000 ...
   0.00000   0.00000   0.00000   0.00000   0.00000   0.00000   0.00000   0.00000   0.00000   0.00000   0.00556   0.00000 ...
   0.00000   0.00000  -0.00000   0.00000   0.00000   0.00000   0.00000   0.00000   0.00000   0.00000   0.00000   0.00556 ...
   ...  only 12  components have been written...
 Atom #  9
  -3.49277   0.41903   0.00000   0.00000   0.00000   0.00000   0.00000   0.00000   0.00000   0.00000   0.00000   0.00000 ...
   0.41903   0.00465   0.00000   0.00000   0.00000   0.00000   0.00000   0.00000   0.00000   0.00000   0.00000   0.00000 ...
   0.00000   0.00000  -1.41387   0.00000   0.00000   0.11490   0.00000   0.00000   0.00000   0.00000   0.00000   0.00000 ...
   0.00000   0.00000   0.00000  -1.41387   0.00000   0.00000   0.11490   0.00000   0.00000   0.00000   0.00000   0.00000 ...
   0.00000   0.00000   0.00000   0.00000  -1.41387   0.00000   0.00000   0.11490   0.00000   0.00000   0.00000   0.00000 ...
   0.00000   0.00000   0.11490   0.00000   0.00000   0.01479   0.00000   0.00000   0.00000   0.00000   0.00000   0.00000 ...
   0.00000   0.00000   0.00000   0.11490   0.00000   0.00000   0.01479   0.00000   0.00000   0.00000   0.00000   0.00000 ...
   0.00000   0.00000   0.00000   0.00000   0.11490   0.00000   0.00000   0.01479   0.00000   0.00000   0.00000   0.00000 ...
   0.00000   0.00000   0.00000   0.00000   0.00000   0.00000   0.00000   0.00000  -0.38593   0.00000   0.00000   0.00000 ...
   0.00000   0.00000   0.00000   0.00000   0.00000   0.00000   0.00000   0.00000   0.00000  -0.38593   0.00000   0.00000 ...
   0.00000   0.00000   0.00000   0.00000   0.00000   0.00000   0.00000   0.00000   0.00000   0.00000  -0.38529   0.00000 ...
   0.00000   0.00000   0.00000   0.00000   0.00000   0.00000   0.00000   0.00000   0.00000   0.00000   0.00000  -0.38593 ...
   ...  only 12  components have been written...


 Augmentation waves occupancies Rhoij:
 Atom #  1
   1.99891  -0.01214   0.00000   0.00000   0.00000   0.00000   0.00000   0.00000   0.00000   0.00000   0.00000   0.00000 ...
  -0.01214   0.18305   0.00000   0.00000   0.00000   0.00000   0.00000   0.00000   0.00000   0.00000   0.00000   0.00000 ...
   0.00000   0.00000   2.00972   0.00000   0.00000  -0.00493   0.00000   0.00000   0.00000   0.00000   0.00000  -0.00095 ...
   0.00000   0.00000   0.00000   2.00972   0.00000   0.00000  -0.00493   0.00000  -0.00095   0.00000   0.00000   0.00000 ...
   0.00000   0.00000   0.00000   0.00000   2.00972   0.00000   0.00000  -0.00493   0.00000  -0.00095   0.00000   0.00000 ...
   0.00000   0.00000  -0.00493   0.00000   0.00000   0.00014   0.00000   0.00000   0.00000   0.00000   0.00000  -0.00005 ...
   0.00000   0.00000   0.00000  -0.00493   0.00000   0.00000   0.00014   0.00000  -0.00005   0.00000   0.00000   0.00000 ...
[...]
                       7.8534523327E+00  5.2267290280E+00  5.2267290280E+00
                       2.6000057233E+00  5.2267290280E+00  5.2267290280E+00
                       1.4964987707E-18 -6.2028966715E-19  1.6761616845E-18
           xangst10    2.6107274156E+00  2.6107274156E+00  2.6107274156E+00
                       7.8321822468E+00  7.8321822468E+00  7.8321822468E+00
                       5.2214548312E+00  7.8435723530E+00  5.2214548312E+00
                       5.2214548312E+00  5.2214548312E+00  2.5993373094E+00
                       5.2214548312E+00  5.2214548312E+00  7.8435723530E+00
                       5.2214548312E+00  2.5993373094E+00  5.2214548312E+00
                       7.8435723530E+00  5.2214548312E+00  5.2214548312E+00
                       2.5993373094E+00  5.2214548312E+00  5.2214548312E+00
                       1.4947175675E-18 -6.4010219980E-19  1.6777764326E-18
            xcart1     4.9784103669E+00  4.9784103669E+00  4.9784103669E+00
                       1.4935231101E+01  1.4935231101E+01  1.4935231101E+01
                       9.9568207339E+00  1.4990988731E+01  9.9568207339E+00
                       9.9568207339E+00  9.9568207339E+00  4.9226527366E+00
                       9.9568207339E+00  9.9568207339E+00  1.4990988731E+01
                       9.9568207339E+00  4.9226527366E+00  9.9568207339E+00
                       1.4990988731E+01  9.9568207339E+00  9.9568207339E+00
                       4.9226527366E+00  9.9568207339E+00  9.9568207339E+00
                       2.8625183496E-18 -1.1686440691E-18  3.2116414792E-18
            xcart2     4.9734269732E+00  4.9734269732E+00  4.9734269732E+00
                       1.4920280920E+01  1.4920280920E+01  1.4920280920E+01
                       9.9468539464E+00  1.4972201337E+01  9.9468539464E+00
                       9.9468539464E+00  9.9468539464E+00  4.9215065557E+00
                       9.9468539464E+00  9.9468539464E+00  1.4972201337E+01
                       9.9468539464E+00  4.9215065557E+00  9.9468539464E+00
                       1.4972201337E+01  9.9468539464E+00  9.9468539464E+00
                       4.9215065557E+00  9.9468539464E+00  9.9468539464E+00
                       2.6974640195E-18 -1.2972957555E-18  3.3345896771E-18
            xcart3     4.9684435794E+00  4.9684435794E+00  4.9684435794E+00
                       1.4905330738E+01  1.4905330738E+01  1.4905330738E+01
                       9.9368871588E+00  1.4953416953E+01  9.9368871588E+00
                       9.9368871588E+00  9.9368871588E+00  4.9203573648E+00
                       9.9368871588E+00  9.9368871588E+00  1.4953416953E+01
                       9.9368871588E+00  4.9203573648E+00  9.9368871588E+00
                       1.4953416953E+01  9.9368871588E+00  9.9368871588E+00
                       4.9203573648E+00  9.9368871588E+00  9.9368871588E+00
                       2.8450947692E-18 -1.1792745320E-18  3.1866640550E-18
            xcart4     4.9634601857E+00  4.9634601857E+00  4.9634601857E+00
                       1.4890380557E+01  1.4890380557E+01  1.4890380557E+01
                       9.9269203713E+00  1.4934674193E+01  9.9269203713E+00
                       9.9269203713E+00  9.9269203713E+00  4.9191665498E+00
                       9.9269203713E+00  9.9269203713E+00  1.4934674193E+01
                       9.9269203713E+00  4.9191665498E+00  9.9269203713E+00
                       1.4934674193E+01  9.9269203713E+00  9.9269203713E+00
                       4.9191665498E+00  9.9269203713E+00  9.9269203713E+00
                       2.9079336906E-18 -1.1109254265E-18  3.0499293156E-18
            xcart5     4.9584767919E+00  4.9584767919E+00  4.9584767919E+00
                       1.4875430376E+01  1.4875430376E+01  1.4875430376E+01
                       9.9169535838E+00  1.4915783064E+01  9.9169535838E+00
                       9.9169535838E+00  9.9169535838E+00  4.9181241041E+00
                       9.9169535838E+00  9.9169535838E+00  1.4915783064E+01
                       9.9169535838E+00  4.9181241041E+00  9.9169535838E+00
                       1.4915783064E+01  9.9169535838E+00  9.9169535838E+00
                       4.9181241041E+00  9.9169535838E+00  9.9169535838E+00
                       2.8393874577E-18 -1.1769088860E-18  3.1802715493E-18
            xcart6     4.9534933981E+00  4.9534933981E+00  4.9534933981E+00
                       1.4860480194E+01  1.4860480194E+01  1.4860480194E+01
                       9.9069867963E+00  1.4897094975E+01  9.9069867963E+00
                       9.9069867963E+00  9.9069867963E+00  4.9168786178E+00
                       9.9069867963E+00  9.9069867963E+00  1.4897094975E+01
                       9.9069867963E+00  4.9168786178E+00  9.9069867963E+00
                       1.4897094975E+01  9.9069867963E+00  9.9069867963E+00
                       4.9168786178E+00  9.9069867963E+00  9.9069867963E+00
                       2.8274559940E-18 -1.3131153195E-18  3.1963023037E-18
            xcart7     4.9485100044E+00  4.9485100044E+00  4.9485100044E+00
                       1.4845530013E+01  1.4845530013E+01  1.4845530013E+01
                       9.8970200088E+00  1.4878294683E+01  9.8970200088E+00
                       9.8970200088E+00  9.8970200088E+00  4.9157453346E+00
                       9.8970200088E+00  9.8970200088E+00  1.4878294683E+01
                       9.8970200088E+00  4.9157453346E+00  9.8970200088E+00
                       1.4878294683E+01  9.8970200088E+00  9.8970200088E+00
                       4.9157453346E+00  9.8970200088E+00  9.8970200088E+00
                       2.9387204183E-18 -1.3226166240E-18  3.2282511331E-18
            xcart8     4.9435266106E+00  4.9435266106E+00  4.9435266106E+00
                       1.4830579832E+01  1.4830579832E+01  1.4830579832E+01
                       9.8870532212E+00  1.4859582611E+01  9.8870532212E+00
                       9.8870532212E+00  9.8870532212E+00  4.9145238313E+00
                       9.8870532212E+00  9.8870532212E+00  1.4859582611E+01
                       9.8870532212E+00  4.9145238313E+00  9.8870532212E+00
                       1.4859582611E+01  9.8870532212E+00  9.8870532212E+00
                       4.9145238313E+00  9.8870532212E+00  9.8870532212E+00
                       2.9387400118E-18 -1.3242637138E-18  3.1971161001E-18
            xcart9     4.9385432169E+00  4.9385432169E+00  4.9385432169E+00
                       1.4815629651E+01  1.4815629651E+01  1.4815629651E+01
                       9.8770864337E+00  1.4840874106E+01  9.8770864337E+00
                       9.8770864337E+00  9.8770864337E+00  4.9132987610E+00
                       9.8770864337E+00  9.8770864337E+00  1.4840874106E+01
                       9.8770864337E+00  4.9132987610E+00  9.8770864337E+00
                       1.4840874106E+01  9.8770864337E+00  9.8770864337E+00
                       4.9132987610E+00  9.8770864337E+00  9.8770864337E+00
                       2.8279728348E-18 -1.1721775940E-18  3.1674865381E-18
            xcart10    4.9335598231E+00  4.9335598231E+00  4.9335598231E+00
                       1.4800679469E+01  1.4800679469E+01  1.4800679469E+01
                       9.8671196462E+00  1.4822203651E+01  9.8671196462E+00
                       9.8671196462E+00  9.8671196462E+00  4.9120356417E+00
                       9.8671196462E+00  9.8671196462E+00  1.4822203651E+01
                       9.8671196462E+00  4.9120356417E+00  9.8671196462E+00
                       1.4822203651E+01  9.8671196462E+00  9.8671196462E+00
                       4.9120356417E+00  9.8671196462E+00  9.8671196462E+00
                       2.8246068485E-18 -1.2096178547E-18  3.1705379698E-18
             xred1     2.5000000000E-01  2.5000000000E-01  2.5000000000E-01
                       7.5000000000E-01  7.5000000000E-01  7.5000000000E-01
                       7.5279997159E-01  2.4720002841E-01  7.5279997159E-01
                       2.4720002841E-01  2.4720002841E-01  7.5279997159E-01
                       7.5279997159E-01  7.5279997159E-01  2.4720002841E-01
                       2.4720002841E-01  7.5279997159E-01  2.4720002841E-01
                       2.4720002841E-01  7.5279997159E-01  7.5279997159E-01
                       7.5279997159E-01  2.4720002841E-01  2.4720002841E-01
                      -4.1153745827E-20  3.6371067088E-19 -7.6217461342E-20
             xred2     2.5000000000E-01  2.5000000000E-01  2.5000000000E-01
                       7.5000000000E-01  7.5000000000E-01  7.5000000000E-01
                       7.5260989142E-01  2.4739010858E-01  7.5260989142E-01
                       2.4739010858E-01  2.4739010858E-01  7.5260989142E-01
                       7.5260989142E-01  7.5260989142E-01  2.4739010858E-01
                       2.4739010858E-01  7.5260989142E-01  2.4739010858E-01
                       2.4739010858E-01  7.5260989142E-01  7.5260989142E-01
                       7.5260989142E-01  2.4739010858E-01  2.4739010858E-01
                      -3.3184869380E-20  3.6842550879E-19 -9.7237851461E-20
             xred3     2.5000000000E-01  2.5000000000E-01  2.5000000000E-01
                       7.5000000000E-01  7.5000000000E-01  7.5000000000E-01
                       7.5241958140E-01  2.4758041860E-01  7.5241958140E-01
                       2.4758041860E-01  2.4758041860E-01  7.5241958140E-01
                       7.5241958140E-01  7.5241958140E-01  2.4758041860E-01
                       2.4758041860E-01  7.5241958140E-01  2.4758041860E-01
                       2.4758041860E-01  7.5241958140E-01  7.5241958140E-01
                       7.5241958140E-01  2.4758041860E-01  2.4758041860E-01
                      -4.2151291083E-20  3.6284166464E-19 -7.6525162933E-20
             xred4     2.5000000000E-01  2.5000000000E-01  2.5000000000E-01
                       7.5000000000E-01  7.5000000000E-01  7.5000000000E-01
                       7.5223098575E-01  2.4776901425E-01  7.5223098575E-01
                       2.4776901425E-01  2.4776901425E-01  7.5223098575E-01
                       7.5223098575E-01  7.5223098575E-01  2.4776901425E-01
                       2.4776901425E-01  7.5223098575E-01  2.4776901425E-01
                       2.4776901425E-01  7.5223098575E-01  7.5223098575E-01
                       7.5223098575E-01  2.4776901425E-01  2.4776901425E-01
                      -4.8803141622E-20  3.5604135866E-19 -6.3107237926E-20
             xred5     2.5000000000E-01  2.5000000000E-01  2.5000000000E-01
                       7.5000000000E-01  7.5000000000E-01  7.5000000000E-01
                       7.5203453044E-01  2.4796546956E-01  7.5203453044E-01
                       2.4796546956E-01  2.4796546956E-01  7.5203453044E-01
                       7.5203453044E-01  7.5203453044E-01  2.4796546956E-01
                       2.4796546956E-01  7.5203453044E-01  2.4796546956E-01
                       2.4796546956E-01  7.5203453044E-01  7.5203453044E-01
                       7.5203453044E-01  2.4796546956E-01  2.4796546956E-01
                      -4.2151291083E-20  3.6284166464E-19 -7.6525162933E-20
             xred6     2.5000000000E-01  2.5000000000E-01  2.5000000000E-01
                       7.5000000000E-01  7.5000000000E-01  7.5000000000E-01
                       7.5184792718E-01  2.4815207282E-01  7.5184792718E-01
                       2.4815207282E-01  2.4815207282E-01  7.5184792718E-01
                       7.5184792718E-01  7.5184792718E-01  2.4815207282E-01
                       2.4815207282E-01  7.5184792718E-01  2.4815207282E-01
                       2.4815207282E-01  7.5184792718E-01  7.5184792718E-01
                       7.5184792718E-01  2.4815207282E-01  2.4815207282E-01
                      -4.7656720915E-20  3.7028784675E-19 -8.4887648676E-20
             xred7     2.5000000000E-01  2.5000000000E-01  2.5000000000E-01
                       7.5000000000E-01  7.5000000000E-01  7.5000000000E-01
                       7.5165527956E-01  2.4834472044E-01  7.5165527956E-01
                       2.4834472044E-01  2.4834472044E-01  7.5165527956E-01
                       7.5165527956E-01  7.5165527956E-01  2.4834472044E-01
                       2.4834472044E-01  7.5165527956E-01  2.4834472044E-01
                       2.4834472044E-01  7.5165527956E-01  7.5165527956E-01
                       7.5165527956E-01  2.4834472044E-01  2.4834472044E-01
                      -5.2191766228E-20  3.7837592370E-19 -8.1446098792E-20
             xred8     2.5000000000E-01  2.5000000000E-01  2.5000000000E-01
                       7.5000000000E-01  7.5000000000E-01  7.5000000000E-01
                       7.5146670493E-01  2.4853329507E-01  7.5146670493E-01
                       2.4853329507E-01  2.4853329507E-01  7.5146670493E-01
                       7.5146670493E-01  7.5146670493E-01  2.4853329507E-01
                       2.4853329507E-01  7.5146670493E-01  2.4853329507E-01
                       2.4853329507E-01  7.5146670493E-01  7.5146670493E-01
                       7.5146670493E-01  2.4853329507E-01  2.4853329507E-01
                      -5.3903200563E-20  3.7726710167E-19 -8.0035970610E-20
             xred9     2.5000000000E-01  2.5000000000E-01  2.5000000000E-01
                       7.5000000000E-01  7.5000000000E-01  7.5000000000E-01
                       7.5127793029E-01  2.4872206971E-01  7.5127793029E-01
                       2.4872206971E-01  2.4872206971E-01  7.5127793029E-01
                       7.5127793029E-01  7.5127793029E-01  2.4872206971E-01
                       2.4872206971E-01  7.5127793029E-01  2.4872206971E-01
                       2.4872206971E-01  7.5127793029E-01  7.5127793029E-01
                       7.5127793029E-01  2.4872206971E-01  2.4872206971E-01
                      -4.2151291083E-20  3.6284166464E-19 -7.6525162933E-20
             xred10    2.5000000000E-01  2.5000000000E-01  2.5000000000E-01
                       7.5000000000E-01  7.5000000000E-01  7.5000000000E-01
                       7.5109070236E-01  2.4890929764E-01  7.5109070236E-01
                       2.4890929764E-01  2.4890929764E-01  7.5109070236E-01
                       7.5109070236E-01  7.5109070236E-01  2.4890929764E-01
                       2.4890929764E-01  7.5109070236E-01  2.4890929764E-01
                       2.4890929764E-01  7.5109070236E-01  7.5109070236E-01
                       7.5109070236E-01  2.4890929764E-01  2.4890929764E-01
                      -4.3765899490E-20  3.6508945525E-19 -7.8824876548E-20
            znucl       55.00000   35.00000   72.00000

================================================================================


- Timing analysis has been suppressed with timopt=0



================================================================================

 Suggested references for the acknowledgment of ABINIT usage.

 The users of ABINIT have little formal obligations with respect to the ABINIT group
 (those specified in the GNU General Public License, http://www.gnu.org/copyleft/gpl.txt).
 However, it is common practice in the scientific literature,
 to acknowledge the efforts of people that have made the research possible.
 In this spirit, please find below suggested citations of work written by ABINIT developers,
 corresponding to implementations inside of ABINIT that you have used in the present run.
 Note also that it will be of great value to readers of publications presenting these results,
 to read papers enabling them to understand the theoretical formalism and details
 of the ABINIT implementation.
 For information on why they are suggested, see also https://docs.abinit.org/theory/acknowledgments.
-
- [1] Implementation of the Projector Augmented-Wave Method in the ABINIT code.
- M. Torrent, F. Jollet, F. Bottin, G. Zerah, and X. Gonze Comput. Mat. Science 42, 337, (2008).
- Comment: PAW calculations. Strong suggestion to cite this paper.
- DOI and bibtex: see https://docs.abinit.org/theory/bibliography/#torrent2008
-
- [2] Libxc: A library of exchange and correlation functionals for density functional theory.
- M.A.L. Marques, M.J.T. Oliveira, T. Burnus, Computer Physics Communications 183, 2227 (2012).
- Comment: to be cited when LibXC is used (negative value of ixc)
- Strong suggestion to cite this paper.
- DOI and bibtex: see https://docs.abinit.org/theory/bibliography/#marques2012
-
- [3] The Abinit project: Impact, environment and recent developments.
- Computer Phys. Comm. 248, 107042 (2020).
- X.Gonze, B. Amadon, G. Antonius, F.Arnardi, L.Baguet, J.-M.Beuken,
- J.Bieder, F.Bottin, J.Bouchet, E.Bousquet, N.Brouwer, F.Bruneval,
- G.Brunin, T.Cavignac, J.-B. Charraud, Wei Chen, M.Cote, S.Cottenier,
- J.Denier, G.Geneste, Ph.Ghosez, M.Giantomassi, Y.Gillet, O.Gingras,
- D.R.Hamann, G.Hautier, Xu He, N.Helbig, N.Holzwarth, Y.Jia, F.Jollet,
- W.Lafargue-Dit-Hauret, K.Lejaeghere, M.A.L.Marques, A.Martin, C.Martins,
- H.P.C. Miranda, F.Naccarato, K. Persson, G.Petretto, V.Planes, Y.Pouillon,
- S.Prokhorenko, F.Ricci, G.-M.Rignanese, A.H.Romero, M.M.Schmitt, M.Torrent,
- M.J.van Setten, B.Van Troeye, M.J.Verstraete, G.Zerah and J.W.Zwanzig
- Comment: the fifth generic paper describing the ABINIT project.
- Note that a version of this paper, that is not formatted for Computer Phys. Comm. 
- is available at https://www.abinit.org/sites/default/files/ABINIT20.pdf .
- The licence allows the authors to put it on the Web.
- DOI and bibtex: see https://docs.abinit.org/theory/bibliography/#gonze2020
-
- [4] ABINIT: Overview, and focus on selected capabilities
- J. Chem. Phys. 152, 124102 (2020).
- A. Romero, D.C. Allan, B. Amadon, G. Antonius, T. Applencourt, L.Baguet,
- J.Bieder, F.Bottin, J.Bouchet, E.Bousquet, F.Bruneval,
- G.Brunin, D.Caliste, M.Cote,
- J.Denier, C. Dreyer, Ph.Ghosez, M.Giantomassi, Y.Gillet, O.Gingras,
- D.R.Hamann, G.Hautier, F.Jollet, G. Jomard,
- A.Martin, 
- H.P.C. Miranda, F.Naccarato, G.Petretto, N.A. Pike, V.Planes,
- S.Prokhorenko, T. Rangel, F.Ricci, G.-M.Rignanese, M.Royo, M.Stengel, M.Torrent,
- M.J.van Setten, B.Van Troeye, M.J.Verstraete, J.Wiktor, J.W.Zwanziger, and X.Gonze.
- Comment: a global overview of ABINIT, with focus on selected capabilities .
- Note that a version of this paper, that is not formatted for J. Chem. Phys 
- is available at https://www.abinit.org/sites/default/files/ABINIT20_JPC.pdf .
- The licence allows the authors to put it on the Web.
- DOI and bibtex: see https://docs.abinit.org/theory/bibliography/#romero2020
-
- [5] Recent developments in the ABINIT software package.
- Computer Phys. Comm. 205, 106 (2016).
- X.Gonze, F.Jollet, F.Abreu Araujo, D.Adams, B.Amadon, T.Applencourt,
- C.Audouze, J.-M.Beuken, J.Bieder, A.Bokhanchuk, E.Bousquet, F.Bruneval
- D.Caliste, M.Cote, F.Dahm, F.Da Pieve, M.Delaveau, M.Di Gennaro,
- B.Dorado, C.Espejo, G.Geneste, L.Genovese, A.Gerossier, M.Giantomassi,
- Y.Gillet, D.R.Hamann, L.He, G.Jomard, J.Laflamme Janssen, S.Le Roux,
- A.Levitt, A.Lherbier, F.Liu, I.Lukacevic, A.Martin, C.Martins,
- M.J.T.Oliveira, S.Ponce, Y.Pouillon, T.Rangel, G.-M.Rignanese,
- A.H.Romero, B.Rousseau, O.Rubel, A.A.Shukri, M.Stankovski, M.Torrent,
- M.J.Van Setten, B.Van Troeye, M.J.Verstraete, D.Waroquier, J.Wiktor,
- B.Xu, A.Zhou, J.W.Zwanziger.
- Comment: the fourth generic paper describing the ABINIT project.
- Note that a version of this paper, that is not formatted for Computer Phys. Comm. 
- is available at https://www.abinit.org/sites/default/files/ABINIT16.pdf .
- The licence allows the authors to put it on the Web.
- DOI and bibtex: see https://docs.abinit.org/theory/bibliography/#gonze2016
-
- Proc.   0 individual time (sec): cpu=       2949.6  wall=       2949.7

================================================================================

 Calculation completed.
.Delivered   0 WARNINGs and  30 COMMENTs to log file.
+Overall time at end (sec) : cpu=      17697.5  wall=      17697.9
