
.Version 9.2.2 of ABINIT 
.(MPI version, prepared for a x86_64_linux_gnu9.3 computer) 

.Copyright (C) 1998-2020 ABINIT group . 
 ABINIT comes with ABSOLUTELY NO WARRANTY.
 It is free software, and you are welcome to redistribute it
 under certain conditions (GNU General Public License,
 see ~abinit/COPYING or http://www.gnu.org/copyleft/gpl.txt).

 ABINIT is a project of the Universite Catholique de Louvain,
 Corning Inc. and other collaborators, see ~abinit/doc/developers/contributors.txt .
 Please read https://docs.abinit.org/theory/acknowledgments for suggested
 acknowledgments of the ABINIT effort.
 For more information, see https://www.abinit.org .

.Starting date : Fri 14 Jul 2023.
- ( at 15h56 )
  
- The starting date is more than 2 years after the initial release
- of this version of ABINIT, namely Nov 2020.
- Note that the use beyond 3 years after the release will not be supported.
- Action: please, switch to a more recent version of ABINIT.

- input  file    -> Cs2TiI6.in
- output file    -> Cs2TiI6.out
- root for input  files -> Cs2TiI6i
- root for output files -> Cs2TiI6o


 Symmetries : space group Fm -3 m (#225); Bravais cF (face-center cubic)
================================================================================
 Values of the parameters that define the memory need of the present run
     intxc =       0    ionmov =       0      iscf =      17    lmnmax =       8
     lnmax =       8     mgfft =      72  mpssoang =       4    mqgrid =    3001
     natom =       9  nloc_mem =       1    nspden =       1   nspinor =       1
    nsppol =       1      nsym =      48    n1xccc =    2501    ntypat =       3
    occopt =       1   xclevel =       2
-    mband =          42        mffmem =           1         mkmem =          12
       mpw =       12506          nfft =      373248          nkpt =          72
================================================================================
P This job should need less than                     228.237 Mbytes of memory.
  Rough estimation (10% accuracy) of disk space for files :
_ WF disk file :    577.061 Mbytes ; DEN or POT disk file :      2.850 Mbytes.
================================================================================

--------------------------------------------------------------------------------
------------- Echo of variables that govern the present computation ------------
--------------------------------------------------------------------------------
-
- outvars: echo of selected default values                                      
-   iomode0 =  0 , fftalg0 =112 , wfoptalg0 =  0
-
- outvars: echo of global parameters not present in the input file              
-  max_nthreads =    0
-
 -outvars: echo values of preprocessed input variables --------
            acell      1.6045663836E+01  1.6045663836E+01  1.6045663836E+01 Bohr
              amu      1.32905430E+02  1.26904470E+02  1.78490000E+02
           diemac      1.20000000E+01
             ecut      2.00000000E+01 Hartree
-          fftalg         112
             iscf          17
           istwfk        2    0    0    0    0    0    3    0    0    0
                         0    0    0    0    0    0    0    0    0    0
                         0    0    0    0    0    0    0    0    0    0
                         0    0    0    0    0    0    0    0    0    0
                         0    0    7    0    0    0    0    0    0    0
                       outvar_i_n : Printing only first  50 k-points.
              ixc          32
              kpt      0.00000000E+00  0.00000000E+00  0.00000000E+00
                       8.33333333E-02  0.00000000E+00  0.00000000E+00
                       1.66666667E-01  0.00000000E+00  0.00000000E+00
                       2.50000000E-01  0.00000000E+00  0.00000000E+00
                       3.33333333E-01  0.00000000E+00  0.00000000E+00
                       4.16666667E-01  0.00000000E+00  0.00000000E+00
                       5.00000000E-01  0.00000000E+00  0.00000000E+00
                       8.33333333E-02  8.33333333E-02  0.00000000E+00
                       1.66666667E-01  8.33333333E-02  0.00000000E+00
                       2.50000000E-01  8.33333333E-02  0.00000000E+00
                       3.33333333E-01  8.33333333E-02  0.00000000E+00
                       4.16666667E-01  8.33333333E-02  0.00000000E+00
                       5.00000000E-01  8.33333333E-02  0.00000000E+00
                      -4.16666667E-01  8.33333333E-02  0.00000000E+00
                      -3.33333333E-01  8.33333333E-02  0.00000000E+00
                      -2.50000000E-01  8.33333333E-02  0.00000000E+00
                      -1.66666667E-01  8.33333333E-02  0.00000000E+00
                      -8.33333333E-02  8.33333333E-02  0.00000000E+00
                       1.66666667E-01  1.66666667E-01  0.00000000E+00
                       2.50000000E-01  1.66666667E-01  0.00000000E+00
                       3.33333333E-01  1.66666667E-01  0.00000000E+00
                       4.16666667E-01  1.66666667E-01  0.00000000E+00
                       5.00000000E-01  1.66666667E-01  0.00000000E+00
                      -4.16666667E-01  1.66666667E-01  0.00000000E+00
                      -3.33333333E-01  1.66666667E-01  0.00000000E+00
                      -2.50000000E-01  1.66666667E-01  0.00000000E+00
                      -1.66666667E-01  1.66666667E-01  0.00000000E+00
                       2.50000000E-01  2.50000000E-01  0.00000000E+00
                       3.33333333E-01  2.50000000E-01  0.00000000E+00
                       4.16666667E-01  2.50000000E-01  0.00000000E+00
                       5.00000000E-01  2.50000000E-01  0.00000000E+00
                      -4.16666667E-01  2.50000000E-01  0.00000000E+00
                      -3.33333333E-01  2.50000000E-01  0.00000000E+00
                      -2.50000000E-01  2.50000000E-01  0.00000000E+00
                       3.33333333E-01  3.33333333E-01  0.00000000E+00
                       4.16666667E-01  3.33333333E-01  0.00000000E+00
                       5.00000000E-01  3.33333333E-01  0.00000000E+00
                      -4.16666667E-01  3.33333333E-01  0.00000000E+00
                      -3.33333333E-01  3.33333333E-01  0.00000000E+00
                       4.16666667E-01  4.16666667E-01  0.00000000E+00
                       5.00000000E-01  4.16666667E-01  0.00000000E+00
                      -4.16666667E-01  4.16666667E-01  0.00000000E+00
                       5.00000000E-01  5.00000000E-01  0.00000000E+00
                       2.50000000E-01  1.66666667E-01  8.33333333E-02
                       3.33333333E-01  1.66666667E-01  8.33333333E-02
                       4.16666667E-01  1.66666667E-01  8.33333333E-02
                       5.00000000E-01  1.66666667E-01  8.33333333E-02
                      -4.16666667E-01  1.66666667E-01  8.33333333E-02
                       3.33333333E-01  2.50000000E-01  8.33333333E-02
                       4.16666667E-01  2.50000000E-01  8.33333333E-02
                       outvar_i_n : Printing only first  50 k-points.
         kptrlatt       12    0    0      0   12    0      0    0   12
          kptrlen      1.92547966E+02
P           mkmem          12
            natom           9
            nband          42
            ngfft          72      72      72
             nkpt          72
            nstep        2500
             nsym          48
           ntypat           3
              occ      2.000000  2.000000  2.000000  2.000000  2.000000  2.000000
                       2.000000  2.000000  2.000000  2.000000  2.000000  2.000000
                       2.000000  2.000000  2.000000  2.000000  2.000000  2.000000
                       2.000000  2.000000  2.000000  2.000000  2.000000  2.000000
                       2.000000  2.000000  2.000000  2.000000  2.000000  2.000000
                       2.000000  2.000000  2.000000  2.000000  2.000000  2.000000
                       0.000000  0.000000  0.000000  0.000000  0.000000  0.000000
            rprim      0.0000000000E+00  7.0710678119E-01  7.0710678119E-01
                       7.0710678119E-01  0.0000000000E+00  7.0710678119E-01
                       7.0710678119E-01  7.0710678119E-01  0.0000000000E+00
          spgroup         225
           symrel      1  0  0   0  1  0   0  0  1      -1  0  0   0 -1  0   0  0 -1
                       0 -1  1   0 -1  0   1 -1  0       0  1 -1   0  1  0  -1  1  0
                      -1  0  0  -1  0  1  -1  1  0       1  0  0   1  0 -1   1 -1  0
                       0  1 -1   1  0 -1   0  0 -1       0 -1  1  -1  0  1   0  0  1
                      -1  0  0  -1  1  0  -1  0  1       1  0  0   1 -1  0   1  0 -1
                       0 -1  1   1 -1  0   0 -1  0       0  1 -1  -1  1  0   0  1  0
                       1  0  0   0  0  1   0  1  0      -1  0  0   0  0 -1   0 -1  0
                       0  1 -1   0  0 -1   1  0 -1       0 -1  1   0  0  1  -1  0  1
                      -1  0  1  -1  1  0  -1  0  0       1  0 -1   1 -1  0   1  0  0
                       0 -1  0   1 -1  0   0 -1  1       0  1  0  -1  1  0   0  1 -1
                       1  0 -1   0  0 -1   0  1 -1      -1  0  1   0  0  1   0 -1  1
                       0  1  0   0  0  1   1  0  0       0 -1  0   0  0 -1  -1  0  0
                       1  0 -1   0  1 -1   0  0 -1      -1  0  1   0 -1  1   0  0  1
                       0 -1  0   0 -1  1   1 -1  0       0  1  0   0  1 -1  -1  1  0
                      -1  0  1  -1  0  0  -1  1  0       1  0 -1   1  0  0   1 -1  0
                       0  1  0   1  0  0   0  0  1       0 -1  0  -1  0  0   0  0 -1
                       0  0 -1   0  1 -1   1  0 -1       0  0  1   0 -1  1  -1  0  1
                       1 -1  0   0 -1  1   0 -1  0      -1  1  0   0  1 -1   0  1  0
                       0  0  1   1  0  0   0  1  0       0  0 -1  -1  0  0   0 -1  0
                      -1  1  0  -1  0  0  -1  0  1       1 -1  0   1  0  0   1  0 -1
                       0  0  1   0  1  0   1  0  0       0  0 -1   0 -1  0  -1  0  0
                       1 -1  0   0 -1  0   0 -1  1      -1  1  0   0  1  0   0  1 -1
                       0  0 -1   1  0 -1   0  1 -1       0  0  1  -1  0  1   0 -1  1
                      -1  1  0  -1  0  1  -1  0  0       1 -1  0   1  0 -1   1  0  0
           toldfe      1.00000000E-08 Hartree
            typat      1  1  2  2  2  2  2  2  3
              wtk        0.00058    0.00463    0.00463    0.00463    0.00463    0.00463
                         0.00231    0.00347    0.01389    0.01389    0.01389    0.01389
                         0.01389    0.01389    0.01389    0.01389    0.01389    0.00694
                         0.00347    0.01389    0.01389    0.01389    0.01389    0.01389
                         0.01389    0.01389    0.00694    0.00347    0.01389    0.01389
                         0.01389    0.01389    0.01389    0.00694    0.00347    0.01389
                         0.01389    0.01389    0.00694    0.00347    0.01389    0.00694
                         0.00174    0.01389    0.02778    0.02778    0.02778    0.01389
                         0.01389    0.02778
                       outvars : Printing only first  50 k-points.
           xangst      3.0020216977E+00  3.0020216977E+00  3.0020216977E+00
                       9.0060650930E+00  9.0060650930E+00  9.0060650930E+00
                       6.0040433953E+00  9.1441770366E+00  6.0040433953E+00
                       6.0040433953E+00  6.0040433953E+00  2.8639097541E+00
                       6.0040433953E+00  6.0040433953E+00  9.1441770366E+00
                       6.0040433953E+00  2.8639097541E+00  6.0040433953E+00
                       9.1441770366E+00  6.0040433953E+00  6.0040433953E+00
                       2.8639097541E+00  6.0040433953E+00  6.0040433953E+00
                       0.0000000000E+00  0.0000000000E+00  0.0000000000E+00
            xcart      5.6729988536E+00  5.6729988536E+00  5.6729988536E+00
                       1.7018996561E+01  1.7018996561E+01  1.7018996561E+01
                       1.1345997707E+01  1.7279990310E+01  1.1345997707E+01
                       1.1345997707E+01  1.1345997707E+01  5.4120051045E+00
                       1.1345997707E+01  1.1345997707E+01  1.7279990310E+01
                       1.1345997707E+01  5.4120051045E+00  1.1345997707E+01
                       1.7279990310E+01  1.1345997707E+01  1.1345997707E+01
                       5.4120051045E+00  1.1345997707E+01  1.1345997707E+01
                       0.0000000000E+00  0.0000000000E+00  0.0000000000E+00
             xred      2.5000000000E-01  2.5000000000E-01  2.5000000000E-01
                       7.5000000000E-01  7.5000000000E-01  7.5000000000E-01
                       7.6150157773E-01  2.3849842227E-01  7.6150157773E-01
                       2.3849842227E-01  2.3849842227E-01  7.6150157773E-01
                       7.6150157773E-01  7.6150157773E-01  2.3849842227E-01
                       2.3849842227E-01  7.6150157773E-01  2.3849842227E-01
                       2.3849842227E-01  7.6150157773E-01  7.6150157773E-01
                       7.6150157773E-01  2.3849842227E-01  2.3849842227E-01
                       0.0000000000E+00  0.0000000000E+00  0.0000000000E+00
            znucl       55.00000   53.00000   72.00000

================================================================================

 chkinp: Checking input parameters for consistency.

================================================================================
== DATASET  1 ==================================================================
-   mpi_nproc: 6, omp_nthreads: -1 (-1 if OMP is not activated)


--- !DatasetInfo
iteration_state: {dtset: 1, }
dimensions: {natom: 9, nkpt: 72, mband: 42, nsppol: 1, nspinor: 1, nspden: 1, mpw: 12506, }
cutoff_energies: {ecut:  20.0, pawecutdg:  -1.0, }
electrons: {nelect:   7.20000000E+01, charge:   0.00000000E+00, occopt:   1.00000000E+00, tsmear:   1.00000000E-02, }
meta: {optdriver: 0, ionmov: 0, optcell: 0, iscf: 17, paral_kgb: 0, }
...

 Exchange-correlation functional for the present dataset will be:
  Meta-GGA fake2 - ixc=32

 Real(R)+Recip(G) space primitive vectors, cartesian coordinates (Bohr,Bohr^-1):
 R(1)=  0.0000000 11.3459977 11.3459977  G(1)= -0.0440684  0.0440684  0.0440684
 R(2)= 11.3459977  0.0000000 11.3459977  G(2)=  0.0440684 -0.0440684  0.0440684
 R(3)= 11.3459977 11.3459977  0.0000000  G(3)=  0.0440684  0.0440684 -0.0440684
 Unit cell volume ucvol=  2.9211783E+03 bohr^3
 Angles (23,13,12)=  6.00000000E+01  6.00000000E+01  6.00000000E+01 degrees

 getcut: wavevector=  0.0000  0.0000  0.0000  ngfft=  72  72  72
         ecut(hartree)=     20.000   => boxcut(ratio)=   2.22892

 getcut : COMMENT -
  Note that boxcut > 2.2 ; recall that boxcut=Gcut(box)/Gcut(sphere) = 2
  is sufficient for exact treatment of convolution.
  Such a large boxcut is a waste : you could raise ecut
  e.g. ecut=   24.840445 Hartrees makes boxcut=2


--- Pseudopotential description ------------------------------------------------
- pspini: atom type   1  psp file is ../../../Psps_for_tests/ONCVPSP-PBE-PDv0.4/Cs-sp.psp8
- pspatm: opening atomic psp file    ../../../Psps_for_tests/ONCVPSP-PBE-PDv0.4/Cs-sp.psp8
- Cs    ONCVPSP-3.2.3.1  r_core=   2.27353   1.85623   2.01788   1.90105
- 55.00000   9.00000    170703                znucl, zion, pspdat
    8   32    3    4       600   0.00000      pspcod,pspxc,lmax,lloc,mmax,r2well
    5.99000000000000    5.00000000000000    0.00000000000000   rchrg,fchrg,qchrg
     nproj     2     2     2     2
     extension_switch     1
  pspatm : epsatm=   22.81663475
         --- l  ekb(1:nproj) -->
             0    6.176104    0.756334
             1    6.263084    0.786397
             2    3.737592    0.906929
             3   -9.272327   -2.535859
 pspatm: atomic psp has been read  and splines computed

- pspini: atom type   2  psp file is ../../../Psps_for_tests/ONCVPSP-PBE-PDv0.4/I.psp8
- pspatm: opening atomic psp file    ../../../Psps_for_tests/ONCVPSP-PBE-PDv0.4/I.psp8
- I     ONCVPSP-3.2.3.1  r_core=   2.02042   2.17032   2.27639
- 53.00000   7.00000    170510                znucl, zion, pspdat
    8   32    2    4       600   0.00000      pspcod,pspxc,lmax,lloc,mmax,r2well
    5.99000000000000    4.00000000000000    0.00000000000000   rchrg,fchrg,qchrg
     nproj     2     2     2
     extension_switch     1
  pspatm : epsatm=   19.17050482
         --- l  ekb(1:nproj) -->
             0    5.955518    0.916455
             1    4.011347    0.742302
             2    4.134838    0.711910
 pspatm: atomic psp has been read  and splines computed

- pspini: atom type   3  psp file is ../../../Psps_for_tests/ONCVPSP-PBE-PDv0.4/Hf-sp.psp8
- pspatm: opening atomic psp file    ../../../Psps_for_tests/ONCVPSP-PBE-PDv0.4/Hf-sp.psp8
- Hf    ONCVPSP-3.2.3.1  r_core=   1.71613   1.71613   1.71613   2.42541
- 72.00000  12.00000    170501                znucl, zion, pspdat
    8   32    3    4       600   0.00000      pspcod,pspxc,lmax,lloc,mmax,r2well
    5.99000000000000    5.40000000000000    0.00000000000000   rchrg,fchrg,qchrg
     nproj     2     2     2     2
     extension_switch     1
  pspatm : epsatm=   21.94432712
         --- l  ekb(1:nproj) -->
             0    5.751490   -0.631383
             1   -2.986358    2.305386
             2    1.422276    0.146986
             3    8.827595    0.343102
 pspatm: atomic psp has been read  and splines computed

   1.31472450E+04                                ecore*ucvol(ha*bohr**3)
--------------------------------------------------------------------------------

_setup2: Arith. and geom. avg. npw (full set) are   12479.055   12479.049

================================================================================

--- !BeginCycle
iteration_state: {dtset: 1, }
solver: {iscf: 17, nstep: 2500, nline: 4, wfoptalg: 0, }
tolerances: {toldfe: 1.00E-08, }
...

     iter   Etot(hartree)      deltaE(h)  residm     nres2
 ETOT  1  -181.48320084923    -1.815E+02 2.016E-02 2.685E+00
 ETOT  2  -181.54172653956    -5.853E-02 1.861E-02 1.377E+00
 ETOT  3  -181.52793270438     1.379E-02 2.334E-03 2.144E-01
 ETOT  4  -181.52412914780     3.804E-03 6.492E-03 2.955E-03
 ETOT  5  -181.52412289225     6.256E-06 1.230E-03 2.889E-04
 ETOT  6  -181.52412374263    -8.504E-07 1.343E-03 4.196E-05
 ETOT  7  -181.52412452016    -7.775E-07 8.941E-04 3.069E-06
 ETOT  8  -181.52412460675    -8.659E-08 7.574E-04 3.529E-07
 ETOT  9  -181.52412461172    -4.968E-09 7.640E-04 6.005E-08
 ETOT 10  -181.52412461101     7.035E-10 6.502E-04 3.607E-09

 At SCF step   10, etot is converged : 
  for the second time, diff in etot=  7.035E-10 < toldfe=  1.000E-08

 Cartesian components of stress tensor (hartree/bohr^3)
  sigma(1 1)= -4.28836046E-04  sigma(3 2)=  0.00000000E+00
  sigma(2 2)= -4.28836046E-04  sigma(3 1)=  0.00000000E+00
  sigma(3 3)= -4.28836046E-04  sigma(2 1)=  0.00000000E+00


--- !ResultsGS
iteration_state: {dtset: 1, }
comment   : Summary of ground state results
lattice_vectors:
- [  0.0000000,  11.3459977,  11.3459977, ]
- [ 11.3459977,   0.0000000,  11.3459977, ]
- [ 11.3459977,  11.3459977,   0.0000000, ]
lattice_lengths: [  16.04566,   16.04566,   16.04566, ]
lattice_angles: [ 60.000,  60.000,  60.000, ] # degrees, (23, 13, 12)
lattice_volume:   2.9211783E+03
convergence: {deltae:  7.035E-10, res2:  3.607E-09, residm:  6.502E-04, diffor: null, }
etotal    :  -1.81524125E+02
entropy   :   0.00000000E+00
fermie    :   2.88179908E-02
cartesian_stress_tensor: # hartree/bohr^3
- [ -4.28836046E-04,   0.00000000E+00,   0.00000000E+00, ]
- [  0.00000000E+00,  -4.28836046E-04,   0.00000000E+00, ]
- [  0.00000000E+00,   0.00000000E+00,  -4.28836046E-04, ]
pressure_GPa:   1.2617E+01
xred      :
- [  2.5000E-01,   2.5000E-01,   2.5000E-01, Cs]
- [  7.5000E-01,   7.5000E-01,   7.5000E-01, Cs]
- [  7.6150E-01,   2.3850E-01,   7.6150E-01,  I]
- [  2.3850E-01,   2.3850E-01,   7.6150E-01,  I]
- [  7.6150E-01,   7.6150E-01,   2.3850E-01,  I]
- [  2.3850E-01,   7.6150E-01,   2.3850E-01,  I]
- [  2.3850E-01,   7.6150E-01,   7.6150E-01,  I]
- [  7.6150E-01,   2.3850E-01,   2.3850E-01,  I]
- [  0.0000E+00,   0.0000E+00,   0.0000E+00, Hf]
cartesian_forces: # hartree/bohr
- [  9.27035742E-32,   9.63735264E-20,  -1.37323605E-19, ]
- [  5.79397339E-32,   9.63735264E-20,  -1.37323605E-19, ]
- [  6.27647308E-20,   3.08874861E-03,  -2.00088335E-19, ]
- [ -7.61769899E-20,   1.72550516E-19,  -3.08874861E-03, ]
- [ -1.27685489E-20,   1.09142075E-19,   3.08874861E-03, ]
- [ -3.68550704E-19,  -3.08874861E-03,   2.31227099E-19, ]
- [  3.08874861E-03,   7.01927184E-20,  -1.11142797E-19, ]
- [ -3.08874861E-03,  -3.11126535E-19,   2.70176456E-19, ]
- [ -0.00000000E+00,   9.63735264E-20,  -1.37323605E-19, ]
force_length_stats: {min:   1.67766591E-19, max:   3.08874861E-03, mean:   2.05916574E-03, }
...

 Integrated electronic density in atomic spheres:
 ------------------------------------------------
 Atom  Sphere_radius  Integrated_density
    1        2.00000          4.38766108
    2        2.00000          4.38766108
    3        2.00000          2.83680415
    4        2.00000          2.83680415
    5        2.00000          2.83680415
    6        2.00000          2.83680415
    7        2.00000          2.83680415
    8        2.00000          2.83680415
    9        2.00000          8.25011794
================================================================================

 ----iterations are completed or convergence reached----

 Mean square residual over all n,k,spin=   23.028E-07; max=  65.021E-05
 reduced coordinates (array xred) for    9 atoms
       0.250000000000      0.250000000000      0.250000000000
       0.750000000000      0.750000000000      0.750000000000
       0.761501577730      0.238498422270      0.761501577730
       0.238498422270      0.238498422270      0.761501577730
       0.761501577730      0.761501577730      0.238498422270
       0.238498422270      0.761501577730      0.238498422270
       0.238498422270      0.761501577730      0.761501577730
       0.761501577730      0.238498422270      0.238498422270
       0.000000000000      0.000000000000      0.000000000000
 rms dE/dt=  2.3363E-02; max dE/dt=  3.5045E-02; dE/dt below (all hartree)
    1       0.000000000000      0.000000000000     -0.000000000000
    2       0.000000000000      0.000000000000      0.000000000000
    3      -0.035044934692      0.000000000000     -0.035044934692
    4       0.035044934692      0.035044934692      0.000000000000
    5      -0.035044934692     -0.035044934692      0.000000000000
    6       0.035044934692      0.000000000000      0.035044934692
    7      -0.000000000000     -0.035044934692     -0.035044934692
    8       0.000000000000      0.035044934692      0.035044934692
    9       0.000000000000      0.000000000000      0.000000000000

 cartesian coordinates (angstrom) at end:
    1      3.00202169766399     3.00202169766399     3.00202169766399
    2      9.00606509299198     9.00606509299198     9.00606509299198
    3      6.00404339532799     9.14417703660330     6.00404339532799
    4      6.00404339532799     6.00404339532799     2.86390975405268
    5      6.00404339532799     6.00404339532799     9.14417703660330
    6      6.00404339532799     2.86390975405268     6.00404339532799
    7      9.14417703660330     6.00404339532799     6.00404339532799
    8      2.86390975405268     6.00404339532799     6.00404339532799
    9      0.00000000000000     0.00000000000000     0.00000000000000

 cartesian forces (hartree/bohr) at end:
    1      0.00000000000000     0.00000000000000    -0.00000000000000
    2      0.00000000000000     0.00000000000000    -0.00000000000000
    3      0.00000000000000     0.00308874861398    -0.00000000000000
    4     -0.00000000000000     0.00000000000000    -0.00308874861398
    5     -0.00000000000000     0.00000000000000     0.00308874861398
    6     -0.00000000000000    -0.00308874861398     0.00000000000000
    7      0.00308874861398     0.00000000000000    -0.00000000000000
    8     -0.00308874861398    -0.00000000000000     0.00000000000000
    9     -0.00000000000000     0.00000000000000    -0.00000000000000
 frms,max,avg= 1.4560501E-03 3.0887486E-03   0.000E+00  0.000E+00  0.000E+00 h/b

 cartesian forces (eV/Angstrom) at end:
    1      0.00000000000000     0.00000000000000    -0.00000000000000
    2      0.00000000000000     0.00000000000000    -0.00000000000000
    3      0.00000000000000     0.15882982641272    -0.00000000000000
    4     -0.00000000000000     0.00000000000000    -0.15882982641272
    5     -0.00000000000000     0.00000000000000     0.15882982641272
    6     -0.00000000000000    -0.15882982641272     0.00000000000000
    7      0.15882982641272     0.00000000000000    -0.00000000000000
    8     -0.15882982641272    -0.00000000000000     0.00000000000000
    9     -0.00000000000000     0.00000000000000    -0.00000000000000
 frms,max,avg= 7.4873098E-02 1.5882983E-01   0.000E+00  0.000E+00  0.000E+00 e/A
 length scales= 16.045663836000 16.045663836000 16.045663836000 bohr
              =  8.490999598708  8.490999598708  8.490999598708 angstroms
 prteigrs : about to open file Cs2TiI6o_EIG
 Fermi (or HOMO) energy (hartree) =   0.02882   Average Vxc (hartree)=  -0.29371
 Eigenvalues (hartree) for nkpt=  72  k points:
 kpt#   1, nband= 42, wtk=  0.00058, kpt=  0.0000  0.0000  0.0000 (reduced coord)
  -2.29558   -1.11708   -1.11708   -1.11708   -0.72508   -0.72499   -0.40101   -0.38047
  -0.38047   -0.38047   -0.37743   -0.37743   -0.24254   -0.24254   -0.24254   -0.24107
  -0.24107   -0.24107   -0.11394   -0.05388   -0.05388   -0.05388   -0.05309   -0.05309
  -0.05309   -0.03925   -0.03925    0.00021    0.00021    0.00021    0.01938    0.01938
   0.01938    0.02882    0.02882    0.02882    0.10926    0.10926    0.10926    0.16023
   0.17208    0.18711
 prteigrs : prtvol=0 or 1, do not print more k-points.


--- !EnergyTerms
iteration_state     : {dtset: 1, }
comment             : Components of total free energy in Hartree
kinetic             :  4.31224537335802E+01
hartree             :  3.69149188474484E+01
xc                  : -5.21061157953972E+01
Ewald energy        : -1.12145769857855E+02
psp_core            :  4.50066499203284E+00
local_psp           : -1.22787962640379E+02
non_local_psp       :  2.09777233841615E+01
total_energy        : -1.81524087336408E+02
...


--- !EnergyTermsDC
iteration_state     : {dtset: 1, }
comment             : '"Double-counting" decomposition of free energy'
band_energy         : -2.25750315620345E+01
Ewald energy        : -1.12145769857855E+02
psp_core            :  4.50066499203284E+00
xc_dc               : -5.13039881831570E+01
total_energy_dc     : -1.81524124611013E+02
...


 Cartesian components of stress tensor (hartree/bohr^3)
  sigma(1 1)= -4.28836046E-04  sigma(3 2)=  0.00000000E+00
  sigma(2 2)= -4.28836046E-04  sigma(3 1)=  0.00000000E+00
  sigma(3 3)= -4.28836046E-04  sigma(2 1)=  0.00000000E+00

-Cartesian components of stress tensor (GPa)         [Pressure=  1.2617E+01 GPa]
- sigma(1 1)= -1.26167900E+01  sigma(3 2)=  0.00000000E+00
- sigma(2 2)= -1.26167900E+01  sigma(3 1)=  0.00000000E+00
- sigma(3 3)= -1.26167900E+01  sigma(2 1)=  0.00000000E+00

== END DATASET(S) ==============================================================
================================================================================
  
 -outvars: echo values of variables after computation  --------
            acell      1.6045663836E+01  1.6045663836E+01  1.6045663836E+01 Bohr
              amu      1.32905430E+02  1.26904470E+02  1.78490000E+02
           diemac      1.20000000E+01
             ecut      2.00000000E+01 Hartree
           etotal     -1.8152412461E+02
            fcart      9.2703574198E-32  9.6373526443E-20 -1.3732360468E-19
                       5.7939733874E-32  9.6373526443E-20 -1.3732360468E-19
                       6.2764730801E-20  3.0887486140E-03 -2.0008833548E-19
                      -7.6176989920E-20  1.7255051636E-19 -3.0887486140E-03
                      -1.2768548884E-20  1.0914207533E-19  3.0887486140E-03
                      -3.6855070410E-19 -3.0887486140E-03  2.3122709943E-19
                       3.0887486140E-03  7.0192718440E-20 -1.1114279667E-19
                      -3.0887486140E-03 -3.1112653455E-19  2.7017645631E-19
                      -0.0000000000E+00  9.6373526443E-20 -1.3732360468E-19
-          fftalg         112
             iscf          17
           istwfk        2    0    0    0    0    0    3    0    0    0
                         0    0    0    0    0    0    0    0    0    0
                         0    0    0    0    0    0    0    0    0    0
                         0    0    0    0    0    0    0    0    0    0
                         0    0    7    0    0    0    0    0    0    0
                       outvar_i_n : Printing only first  50 k-points.
              ixc          32
              kpt      0.00000000E+00  0.00000000E+00  0.00000000E+00
                       8.33333333E-02  0.00000000E+00  0.00000000E+00
                       1.66666667E-01  0.00000000E+00  0.00000000E+00
                       2.50000000E-01  0.00000000E+00  0.00000000E+00
                       3.33333333E-01  0.00000000E+00  0.00000000E+00
                       4.16666667E-01  0.00000000E+00  0.00000000E+00
                       5.00000000E-01  0.00000000E+00  0.00000000E+00
                       8.33333333E-02  8.33333333E-02  0.00000000E+00
                       1.66666667E-01  8.33333333E-02  0.00000000E+00
                       2.50000000E-01  8.33333333E-02  0.00000000E+00
                       3.33333333E-01  8.33333333E-02  0.00000000E+00
                       4.16666667E-01  8.33333333E-02  0.00000000E+00
                       5.00000000E-01  8.33333333E-02  0.00000000E+00
                      -4.16666667E-01  8.33333333E-02  0.00000000E+00
                      -3.33333333E-01  8.33333333E-02  0.00000000E+00
                      -2.50000000E-01  8.33333333E-02  0.00000000E+00
                      -1.66666667E-01  8.33333333E-02  0.00000000E+00
                      -8.33333333E-02  8.33333333E-02  0.00000000E+00
                       1.66666667E-01  1.66666667E-01  0.00000000E+00
                       2.50000000E-01  1.66666667E-01  0.00000000E+00
                       3.33333333E-01  1.66666667E-01  0.00000000E+00
                       4.16666667E-01  1.66666667E-01  0.00000000E+00
                       5.00000000E-01  1.66666667E-01  0.00000000E+00
                      -4.16666667E-01  1.66666667E-01  0.00000000E+00
                      -3.33333333E-01  1.66666667E-01  0.00000000E+00
                      -2.50000000E-01  1.66666667E-01  0.00000000E+00
                      -1.66666667E-01  1.66666667E-01  0.00000000E+00
                       2.50000000E-01  2.50000000E-01  0.00000000E+00
                       3.33333333E-01  2.50000000E-01  0.00000000E+00
                       4.16666667E-01  2.50000000E-01  0.00000000E+00
                       5.00000000E-01  2.50000000E-01  0.00000000E+00
                      -4.16666667E-01  2.50000000E-01  0.00000000E+00
                      -3.33333333E-01  2.50000000E-01  0.00000000E+00
                      -2.50000000E-01  2.50000000E-01  0.00000000E+00
                       3.33333333E-01  3.33333333E-01  0.00000000E+00
                       4.16666667E-01  3.33333333E-01  0.00000000E+00
                       5.00000000E-01  3.33333333E-01  0.00000000E+00
                      -4.16666667E-01  3.33333333E-01  0.00000000E+00
                      -3.33333333E-01  3.33333333E-01  0.00000000E+00
                       4.16666667E-01  4.16666667E-01  0.00000000E+00
                       5.00000000E-01  4.16666667E-01  0.00000000E+00
                      -4.16666667E-01  4.16666667E-01  0.00000000E+00
                       5.00000000E-01  5.00000000E-01  0.00000000E+00
                       2.50000000E-01  1.66666667E-01  8.33333333E-02
                       3.33333333E-01  1.66666667E-01  8.33333333E-02
                       4.16666667E-01  1.66666667E-01  8.33333333E-02
                       5.00000000E-01  1.66666667E-01  8.33333333E-02
                      -4.16666667E-01  1.66666667E-01  8.33333333E-02
                       3.33333333E-01  2.50000000E-01  8.33333333E-02
                       4.16666667E-01  2.50000000E-01  8.33333333E-02
                       outvar_i_n : Printing only first  50 k-points.
         kptrlatt       12    0    0      0   12    0      0    0   12
          kptrlen      1.92547966E+02
P           mkmem          12
            natom           9
            nband          42
            ngfft          72      72      72
             nkpt          72
            nstep        2500
             nsym          48
           ntypat           3
              occ      2.000000  2.000000  2.000000  2.000000  2.000000  2.000000
                       2.000000  2.000000  2.000000  2.000000  2.000000  2.000000
                       2.000000  2.000000  2.000000  2.000000  2.000000  2.000000
                       2.000000  2.000000  2.000000  2.000000  2.000000  2.000000
                       2.000000  2.000000  2.000000  2.000000  2.000000  2.000000
                       2.000000  2.000000  2.000000  2.000000  2.000000  2.000000
                       0.000000  0.000000  0.000000  0.000000  0.000000  0.000000
            rprim      0.0000000000E+00  7.0710678119E-01  7.0710678119E-01
                       7.0710678119E-01  0.0000000000E+00  7.0710678119E-01
                       7.0710678119E-01  7.0710678119E-01  0.0000000000E+00
          spgroup         225
           strten     -4.2883604638E-04 -4.2883604638E-04 -4.2883604638E-04
                       0.0000000000E+00  0.0000000000E+00  0.0000000000E+00
           symrel      1  0  0   0  1  0   0  0  1      -1  0  0   0 -1  0   0  0 -1
                       0 -1  1   0 -1  0   1 -1  0       0  1 -1   0  1  0  -1  1  0
                      -1  0  0  -1  0  1  -1  1  0       1  0  0   1  0 -1   1 -1  0
                       0  1 -1   1  0 -1   0  0 -1       0 -1  1  -1  0  1   0  0  1
                      -1  0  0  -1  1  0  -1  0  1       1  0  0   1 -1  0   1  0 -1
                       0 -1  1   1 -1  0   0 -1  0       0  1 -1  -1  1  0   0  1  0
                       1  0  0   0  0  1   0  1  0      -1  0  0   0  0 -1   0 -1  0
                       0  1 -1   0  0 -1   1  0 -1       0 -1  1   0  0  1  -1  0  1
                      -1  0  1  -1  1  0  -1  0  0       1  0 -1   1 -1  0   1  0  0
                       0 -1  0   1 -1  0   0 -1  1       0  1  0  -1  1  0   0  1 -1
                       1  0 -1   0  0 -1   0  1 -1      -1  0  1   0  0  1   0 -1  1
                       0  1  0   0  0  1   1  0  0       0 -1  0   0  0 -1  -1  0  0
                       1  0 -1   0  1 -1   0  0 -1      -1  0  1   0 -1  1   0  0  1
                       0 -1  0   0 -1  1   1 -1  0       0  1  0   0  1 -1  -1  1  0
                      -1  0  1  -1  0  0  -1  1  0       1  0 -1   1  0  0   1 -1  0
                       0  1  0   1  0  0   0  0  1       0 -1  0  -1  0  0   0  0 -1
                       0  0 -1   0  1 -1   1  0 -1       0  0  1   0 -1  1  -1  0  1
                       1 -1  0   0 -1  1   0 -1  0      -1  1  0   0  1 -1   0  1  0
                       0  0  1   1  0  0   0  1  0       0  0 -1  -1  0  0   0 -1  0
                      -1  1  0  -1  0  0  -1  0  1       1 -1  0   1  0  0   1  0 -1
                       0  0  1   0  1  0   1  0  0       0  0 -1   0 -1  0  -1  0  0
                       1 -1  0   0 -1  0   0 -1  1      -1  1  0   0  1  0   0  1 -1
                       0  0 -1   1  0 -1   0  1 -1       0  0  1  -1  0  1   0 -1  1
                      -1  1  0  -1  0  1  -1  0  0       1 -1  0   1  0 -1   1  0  0
           toldfe      1.00000000E-08 Hartree
            typat      1  1  2  2  2  2  2  2  3
              wtk        0.00058    0.00463    0.00463    0.00463    0.00463    0.00463
                         0.00231    0.00347    0.01389    0.01389    0.01389    0.01389
                         0.01389    0.01389    0.01389    0.01389    0.01389    0.00694
                         0.00347    0.01389    0.01389    0.01389    0.01389    0.01389
                         0.01389    0.01389    0.00694    0.00347    0.01389    0.01389
                         0.01389    0.01389    0.01389    0.00694    0.00347    0.01389
                         0.01389    0.01389    0.00694    0.00347    0.01389    0.00694
                         0.00174    0.01389    0.02778    0.02778    0.02778    0.01389
                         0.01389    0.02778
                       outvars : Printing only first  50 k-points.
           xangst      3.0020216977E+00  3.0020216977E+00  3.0020216977E+00
                       9.0060650930E+00  9.0060650930E+00  9.0060650930E+00
                       6.0040433953E+00  9.1441770366E+00  6.0040433953E+00
                       6.0040433953E+00  6.0040433953E+00  2.8639097541E+00
                       6.0040433953E+00  6.0040433953E+00  9.1441770366E+00
                       6.0040433953E+00  2.8639097541E+00  6.0040433953E+00
                       9.1441770366E+00  6.0040433953E+00  6.0040433953E+00
                       2.8639097541E+00  6.0040433953E+00  6.0040433953E+00
                       0.0000000000E+00  0.0000000000E+00  0.0000000000E+00
            xcart      5.6729988536E+00  5.6729988536E+00  5.6729988536E+00
                       1.7018996561E+01  1.7018996561E+01  1.7018996561E+01
                       1.1345997707E+01  1.7279990310E+01  1.1345997707E+01
                       1.1345997707E+01  1.1345997707E+01  5.4120051045E+00
                       1.1345997707E+01  1.1345997707E+01  1.7279990310E+01
                       1.1345997707E+01  5.4120051045E+00  1.1345997707E+01
                       1.7279990310E+01  1.1345997707E+01  1.1345997707E+01
                       5.4120051045E+00  1.1345997707E+01  1.1345997707E+01
                       0.0000000000E+00  0.0000000000E+00  0.0000000000E+00
             xred      2.5000000000E-01  2.5000000000E-01  2.5000000000E-01
                       7.5000000000E-01  7.5000000000E-01  7.5000000000E-01
                       7.6150157773E-01  2.3849842227E-01  7.6150157773E-01
                       2.3849842227E-01  2.3849842227E-01  7.6150157773E-01
                       7.6150157773E-01  7.6150157773E-01  2.3849842227E-01
                       2.3849842227E-01  7.6150157773E-01  2.3849842227E-01
                       2.3849842227E-01  7.6150157773E-01  7.6150157773E-01
                       7.6150157773E-01  2.3849842227E-01  2.3849842227E-01
                       0.0000000000E+00  0.0000000000E+00  0.0000000000E+00
            znucl       55.00000   53.00000   72.00000

================================================================================


- Timing analysis has been suppressed with timopt=0



================================================================================

 Suggested references for the acknowledgment of ABINIT usage.

 The users of ABINIT have little formal obligations with respect to the ABINIT group
 (those specified in the GNU General Public License, http://www.gnu.org/copyleft/gpl.txt).
 However, it is common practice in the scientific literature,
 to acknowledge the efforts of people that have made the research possible.
 In this spirit, please find below suggested citations of work written by ABINIT developers,
 corresponding to implementations inside of ABINIT that you have used in the present run.
 Note also that it will be of great value to readers of publications presenting these results,
 to read papers enabling them to understand the theoretical formalism and details
 of the ABINIT implementation.
 For information on why they are suggested, see also https://docs.abinit.org/theory/acknowledgments.
-
- [1] The Abinit project: Impact, environment and recent developments.
- Computer Phys. Comm. 248, 107042 (2020).
- X.Gonze, B. Amadon, G. Antonius, F.Arnardi, L.Baguet, J.-M.Beuken,
- J.Bieder, F.Bottin, J.Bouchet, E.Bousquet, N.Brouwer, F.Bruneval,
- G.Brunin, T.Cavignac, J.-B. Charraud, Wei Chen, M.Cote, S.Cottenier,
- J.Denier, G.Geneste, Ph.Ghosez, M.Giantomassi, Y.Gillet, O.Gingras,
- D.R.Hamann, G.Hautier, Xu He, N.Helbig, N.Holzwarth, Y.Jia, F.Jollet,
- W.Lafargue-Dit-Hauret, K.Lejaeghere, M.A.L.Marques, A.Martin, C.Martins,
- H.P.C. Miranda, F.Naccarato, K. Persson, G.Petretto, V.Planes, Y.Pouillon,
- S.Prokhorenko, F.Ricci, G.-M.Rignanese, A.H.Romero, M.M.Schmitt, M.Torrent,
- M.J.van Setten, B.Van Troeye, M.J.Verstraete, G.Zerah and J.W.Zwanzig
- Comment: the fifth generic paper describing the ABINIT project.
- Note that a version of this paper, that is not formatted for Computer Phys. Comm. 
- is available at https://www.abinit.org/sites/default/files/ABINIT20.pdf .
- The licence allows the authors to put it on the Web.
- DOI and bibtex: see https://docs.abinit.org/theory/bibliography/#gonze2020
-
- [2] Optimized norm-conserving Vanderbilt pseudopotentials.
- D.R. Hamann, Phys. Rev. B 88, 085117 (2013).
- Comment: Some pseudopotential generated using the ONCVPSP code were used.
- DOI and bibtex: see https://docs.abinit.org/theory/bibliography/#hamann2013
-
- [3] ABINIT: Overview, and focus on selected capabilities
- J. Chem. Phys. 152, 124102 (2020).
- A. Romero, D.C. Allan, B. Amadon, G. Antonius, T. Applencourt, L.Baguet,
- J.Bieder, F.Bottin, J.Bouchet, E.Bousquet, F.Bruneval,
- G.Brunin, D.Caliste, M.Cote,
- J.Denier, C. Dreyer, Ph.Ghosez, M.Giantomassi, Y.Gillet, O.Gingras,
- D.R.Hamann, G.Hautier, F.Jollet, G. Jomard,
- A.Martin, 
- H.P.C. Miranda, F.Naccarato, G.Petretto, N.A. Pike, V.Planes,
- S.Prokhorenko, T. Rangel, F.Ricci, G.-M.Rignanese, M.Royo, M.Stengel, M.Torrent,
- M.J.van Setten, B.Van Troeye, M.J.Verstraete, J.Wiktor, J.W.Zwanziger, and X.Gonze.
- Comment: a global overview of ABINIT, with focus on selected capabilities .
- Note that a version of this paper, that is not formatted for J. Chem. Phys 
- is available at https://www.abinit.org/sites/default/files/ABINIT20_JPC.pdf .
- The licence allows the authors to put it on the Web.
- DOI and bibtex: see https://docs.abinit.org/theory/bibliography/#romero2020
-
- [4] Recent developments in the ABINIT software package.
- Computer Phys. Comm. 205, 106 (2016).
- X.Gonze, F.Jollet, F.Abreu Araujo, D.Adams, B.Amadon, T.Applencourt,
- C.Audouze, J.-M.Beuken, J.Bieder, A.Bokhanchuk, E.Bousquet, F.Bruneval
- D.Caliste, M.Cote, F.Dahm, F.Da Pieve, M.Delaveau, M.Di Gennaro,
- B.Dorado, C.Espejo, G.Geneste, L.Genovese, A.Gerossier, M.Giantomassi,
- Y.Gillet, D.R.Hamann, L.He, G.Jomard, J.Laflamme Janssen, S.Le Roux,
- A.Levitt, A.Lherbier, F.Liu, I.Lukacevic, A.Martin, C.Martins,
- M.J.T.Oliveira, S.Ponce, Y.Pouillon, T.Rangel, G.-M.Rignanese,
- A.H.Romero, B.Rousseau, O.Rubel, A.A.Shukri, M.Stankovski, M.Torrent,
- M.J.Van Setten, B.Van Troeye, M.J.Verstraete, D.Waroquier, J.Wiktor,
- B.Xu, A.Zhou, J.W.Zwanziger.
- Comment: the fourth generic paper describing the ABINIT project.
- Note that a version of this paper, that is not formatted for Computer Phys. Comm. 
- is available at https://www.abinit.org/sites/default/files/ABINIT16.pdf .
- The licence allows the authors to put it on the Web.
- DOI and bibtex: see https://docs.abinit.org/theory/bibliography/#gonze2016
-
- And optionally:
-
- [5] ABINIT: First-principles approach of materials and nanosystem properties.
- Computer Phys. Comm. 180, 2582-2615 (2009).
- X. Gonze, B. Amadon, P.-M. Anglade, J.-M. Beuken, F. Bottin, P. Boulanger, F. Bruneval,
- D. Caliste, R. Caracas, M. Cote, T. Deutsch, L. Genovese, Ph. Ghosez, M. Giantomassi
- S. Goedecker, D.R. Hamann, P. Hermet, F. Jollet, G. Jomard, S. Leroux, M. Mancini, S. Mazevet,
- M.J.T. Oliveira, G. Onida, Y. Pouillon, T. Rangel, G.-M. Rignanese, D. Sangalli, R. Shaltaf,
- M. Torrent, M.J. Verstraete, G. Zerah, J.W. Zwanziger
- Comment: the third generic paper describing the ABINIT project.
- Note that a version of this paper, that is not formatted for Computer Phys. Comm. 
- is available at https://www.abinit.org/sites/default/files/ABINIT_CPC_v10.pdf .
- The licence allows the authors to put it on the Web.
- DOI and bibtex: see https://docs.abinit.org/theory/bibliography/#gonze2009
-
- Proc.   0 individual time (sec): cpu=        668.3  wall=        668.4

================================================================================

 Calculation completed.
.Delivered   0 WARNINGs and   2 COMMENTs to log file.
+Overall time at end (sec) : cpu=       4009.8  wall=       4010.3
