
.Version 9.2.2 of ABINIT 
.(MPI version, prepared for a x86_64_linux_gnu9.3 computer) 

.Copyright (C) 1998-2020 ABINIT group . 
 ABINIT comes with ABSOLUTELY NO WARRANTY.
 It is free software, and you are welcome to redistribute it
 under certain conditions (GNU General Public License,
 see ~abinit/COPYING or http://www.gnu.org/copyleft/gpl.txt).

 ABINIT is a project of the Universite Catholique de Louvain,
 Corning Inc. and other collaborators, see ~abinit/doc/developers/contributors.txt .
 Please read https://docs.abinit.org/theory/acknowledgments for suggested
 acknowledgments of the ABINIT effort.
 For more information, see https://www.abinit.org .

.Starting date : Sun  4 Sep 2022.
- ( at 21h33 )
  
- input  file    -> Cs2TiI6.in
- output file    -> Cs2TiI6.out
- root for input  files -> Cs2TiI6i
- root for output files -> Cs2TiI6o

- inpspheads : Reading pseudopotential header in XML form from 
-   ../../../Psps_for_tests/ATOMICDATA/Cs.GGA_PBE-JTH.xml
- inpspheads : Reading pseudopotential header in XML form from 
-   ../../../Psps_for_tests/ATOMICDATA/I.GGA_PBE-JTH.xml
- inpspheads : Reading pseudopotential header in XML form from 
-   ../../../Psps_for_tests/ATOMICDATA/Zr.GGA_PBE-JTH.xml

 Symmetries : space group Fm -3 m (#225); Bravais cF (face-center cubic)
================================================================================
 Values of the parameters that define the memory need of the present run
     intxc =       0    ionmov =       2      iscf =      17    lmnmax =      18
     lnmax =       6     mgfft =      60  mpssoang =       3    mqgrid =    3735
     natom =       9  nloc_mem =       2    nspden =       1   nspinor =       1
    nsppol =       1      nsym =      48    n1xccc =       1    ntypat =       3
    occopt =       1   xclevel =       2
-    mband =          42        mffmem =           1         mkmem =           3
       mpw =        9008          nfft =      216000          nkpt =          10
Pmy_natom=         3
 PAW method is used; the additional fine FFT grid is defined by:
   mgfftf=        96    nfftf =    884736
================================================================================
P This job should need less than                     291.816 Mbytes of memory.
  Rough estimation (10% accuracy) of disk space for files :
_ WF disk file :     57.731 Mbytes ; DEN or POT disk file :      6.752 Mbytes.
================================================================================

--------------------------------------------------------------------------------
------------- Echo of variables that govern the present computation ------------
--------------------------------------------------------------------------------
-
- outvars: echo of selected default values                                      
-   iomode0 =  0 , fftalg0 =112 , wfoptalg0 = 10
-
- outvars: echo of global parameters not present in the input file              
-  max_nthreads =    0
-
 -outvars: echo values of preprocessed input variables --------
            acell      1.6056750671E+01  1.6056750671E+01  1.6056750671E+01 Bohr
              amu      1.32905430E+02  1.26904470E+02  9.12240000E+01
           diemac      1.20000000E+01
          dilatmx      1.15000000E+00
             ecut      1.60000000E+01 Hartree
           ecutsm      5.00000000E-01 Hartree
-          fftalg         112
           ionmov           2
              ixc     -101130
              kpt     -1.25000000E-01 -2.50000000E-01  0.00000000E+00
                      -1.25000000E-01  5.00000000E-01  0.00000000E+00
                      -2.50000000E-01 -3.75000000E-01  0.00000000E+00
                      -1.25000000E-01 -3.75000000E-01  1.25000000E-01
                      -1.25000000E-01  2.50000000E-01  0.00000000E+00
                      -2.50000000E-01  3.75000000E-01  0.00000000E+00
                      -3.75000000E-01  5.00000000E-01  0.00000000E+00
                      -2.50000000E-01  5.00000000E-01  1.25000000E-01
                      -1.25000000E-01  0.00000000E+00  0.00000000E+00
                      -3.75000000E-01  0.00000000E+00  0.00000000E+00
         kptrlatt        4   -4    4     -4    4    4     -4   -4    4
          kptrlen      7.90227075E+01
P           mkmem           3
            natom           9
            nband          42
            ngfft          60      60      60
          ngfftdg          96      96      96
             nkpt          10
            nstep        2500
             nsym          48
            ntime        1000
           ntypat           3
              occ      2.000000  2.000000  2.000000  2.000000  2.000000  2.000000
                       2.000000  2.000000  2.000000  2.000000  2.000000  2.000000
                       2.000000  2.000000  2.000000  2.000000  2.000000  2.000000
                       2.000000  2.000000  2.000000  2.000000  2.000000  2.000000
                       2.000000  2.000000  2.000000  2.000000  2.000000  2.000000
                       2.000000  2.000000  2.000000  2.000000  2.000000  2.000000
                       0.000000  0.000000  0.000000  0.000000  0.000000  0.000000
        optforces           1
        pawecutdg      4.00000000E+01 Hartree
            prtwf           0
            rprim      0.0000000000E+00  6.1518289964E-01  6.1518289964E-01
                       6.1518289964E-01  0.0000000000E+00  6.1518289964E-01
                       6.1518289964E-01  6.1518289964E-01  0.0000000000E+00
           shiftk      5.00000000E-01  5.00000000E-01  5.00000000E-01
          spgroup         225
           symrel      1  0  0   0  1  0   0  0  1      -1  0  0   0 -1  0   0  0 -1
                       0 -1  1   0 -1  0   1 -1  0       0  1 -1   0  1  0  -1  1  0
                      -1  0  0  -1  0  1  -1  1  0       1  0  0   1  0 -1   1 -1  0
                       0  1 -1   1  0 -1   0  0 -1       0 -1  1  -1  0  1   0  0  1
                      -1  0  0  -1  1  0  -1  0  1       1  0  0   1 -1  0   1  0 -1
                       0 -1  1   1 -1  0   0 -1  0       0  1 -1  -1  1  0   0  1  0
                       1  0  0   0  0  1   0  1  0      -1  0  0   0  0 -1   0 -1  0
                       0  1 -1   0  0 -1   1  0 -1       0 -1  1   0  0  1  -1  0  1
                      -1  0  1  -1  1  0  -1  0  0       1  0 -1   1 -1  0   1  0  0
                       0 -1  0   1 -1  0   0 -1  1       0  1  0  -1  1  0   0  1 -1
                       1  0 -1   0  0 -1   0  1 -1      -1  0  1   0  0  1   0 -1  1
                       0  1  0   0  0  1   1  0  0       0 -1  0   0  0 -1  -1  0  0
                       1  0 -1   0  1 -1   0  0 -1      -1  0  1   0 -1  1   0  0  1
                       0 -1  0   0 -1  1   1 -1  0       0  1  0   0  1 -1  -1  1  0
                      -1  0  1  -1  0  0  -1  1  0       1  0 -1   1  0  0   1 -1  0
                       0  1  0   1  0  0   0  0  1       0 -1  0  -1  0  0   0  0 -1
                       0  0 -1   0  1 -1   1  0 -1       0  0  1   0 -1  1  -1  0  1
                       1 -1  0   0 -1  1   0 -1  0      -1  1  0   0  1 -1   0  1  0
                       0  0  1   1  0  0   0  1  0       0  0 -1  -1  0  0   0 -1  0
                      -1  1  0  -1  0  0  -1  0  1       1 -1  0   1  0  0   1  0 -1
                       0  0  1   0  1  0   1  0  0       0  0 -1   0 -1  0  -1  0  0
                       1 -1  0   0 -1  0   0 -1  1      -1  1  0   0  1  0   0  1 -1
                       0  0 -1   1  0 -1   0  1 -1       0  0  1  -1  0  1   0 -1  1
                      -1  1  0  -1  0  1  -1  0  0       1 -1  0   1  0 -1   1  0  0
           toldff      1.00000000E-08
           tolmxf      1.00000000E-05
            typat      1  1  2  2  2  2  2  2  3
           useylm           1
              wtk        0.09375    0.09375    0.09375    0.18750    0.09375    0.09375
                         0.09375    0.18750    0.03125    0.03125
           xangst      2.6135634854E+00  2.6135634854E+00  2.6135634854E+00
                       7.8406904561E+00  7.8406904561E+00  7.8406904561E+00
                       5.2271269707E+00  5.2271269707E+00  2.5083557798E+00
                       5.2271269707E+00  5.2271269707E+00  7.9458981616E+00
                       7.9458981616E+00  5.2271269707E+00  5.2271269707E+00
                       5.2271269707E+00  7.9458981616E+00  5.2271269707E+00
                       5.2271269707E+00  2.5083557798E+00  5.2271269707E+00
                       2.5083557798E+00  5.2271269707E+00  5.2271269707E+00
                       2.9885754332E-22  2.6747147610E-21  7.3066959046E-21
            xcart      4.9389192183E+00  4.9389192183E+00  4.9389192183E+00
                       1.4816757655E+01  1.4816757655E+01  1.4816757655E+01
                       9.8778384365E+00  9.8778384365E+00  4.7401054677E+00
                       9.8778384365E+00  9.8778384365E+00  1.5015571405E+01
                       1.5015571405E+01  9.8778384365E+00  9.8778384365E+00
                       9.8778384365E+00  1.5015571405E+01  9.8778384365E+00
                       9.8778384365E+00  4.7401054677E+00  9.8778384365E+00
                       4.7401054677E+00  9.8778384365E+00  9.8778384365E+00
                       5.6475890963E-22  5.0544783819E-21  1.3807654196E-20
             xred      2.5000000000E-01  2.5000000000E-01  2.5000000000E-01
                       7.5000000000E-01  7.5000000000E-01  7.5000000000E-01
                       2.3993637364E-01  2.3993637364E-01  7.6006362636E-01
                       7.6006362636E-01  7.6006362636E-01  2.3993637364E-01
                       2.3993637364E-01  7.6006362636E-01  7.6006362636E-01
                       7.6006362636E-01  2.3993637364E-01  7.6006362636E-01
                       2.3993637364E-01  7.6006362636E-01  2.3993637364E-01
                       7.6006362636E-01  2.3993637364E-01  2.3993637364E-01
                       9.2618308073E-22  4.7165859128E-22 -4.1448424962E-22
            znucl       55.00000   53.00000   40.00000

================================================================================

 chkinp: Checking input parameters for consistency.

================================================================================
== DATASET  1 ==================================================================
-   mpi_nproc: 4, omp_nthreads: -1 (-1 if OMP is not activated)


--- !DatasetInfo
iteration_state: {dtset: 1, }
dimensions: {natom: 9, nkpt: 10, mband: 42, nsppol: 1, nspinor: 1, nspden: 1, mpw: 9008, }
cutoff_energies: {ecut:  16.0, pawecutdg:  40.0, }
electrons: {nelect:   7.20000000E+01, charge:   0.00000000E+00, occopt:   1.00000000E+00, tsmear:   1.00000000E-02, }
meta: {optdriver: 0, ionmov: 2, optcell: 0, iscf: 17, paral_kgb: 0, }
...

 Real(R)+Recip(G) space primitive vectors, cartesian coordinates (Bohr,Bohr^-1):
 R(1)=  0.0000000  9.8778384  9.8778384  G(1)= -0.0506184  0.0506184  0.0506184
 R(2)=  9.8778384  0.0000000  9.8778384  G(2)=  0.0506184 -0.0506184  0.0506184
 R(3)=  9.8778384  9.8778384  0.0000000  G(3)=  0.0506184  0.0506184 -0.0506184
 Unit cell volume ucvol=  1.9275948E+03 bohr^3
 Angles (23,13,12)=  6.00000000E+01  6.00000000E+01  6.00000000E+01 degrees

 Coarse grid specifications (used for wave-functions):

 getcut: wavevector=  0.0000  0.0000  0.0000  ngfft=  60  60  60
         ecut(hartree)=     21.160   => boxcut(ratio)=   2.07420

 Fine grid specifications (used for densities):

 getcut: wavevector=  0.0000  0.0000  0.0000  ngfft=  96  96  96
         ecut(hartree)=     52.900   => boxcut(ratio)=   2.09895

--- Pseudopotential description ------------------------------------------------
- pspini: atom type   1  psp file is ../../../Psps_for_tests/ATOMICDATA/Cs.GGA_PBE-JTH.xml
- pspatm: opening atomic psp file    ../../../Psps_for_tests/ATOMICDATA/Cs.GGA_PBE-JTH.xml
- pspatm : Reading pseudopotential header in XML form from ../../../Psps_for_tests/ATOMICDATA/Cs.GGA_PBE-JTH.xml
 Pseudopotential format is: paw10
 basis_size (lnmax)=  6 (lmn_size= 18), orbitals=   0   0   1   1   2   2
 Spheres core radius: rc_sph= 2.20660278
 1 radial meshes are used:
  - mesh 1: r(i)=AA*[exp(BB*(i-1))-1], size=1500 , AA= 0.15922E-03 BB= 0.87573E-02
 Shapefunction is SIN type: shapef(r)=[sin(pi*r/rshp)/(pi*r/rshp)]**2
 Radius for shape functions =  2.00394208
 mmax= 1500
 Radial grid used for partial waves is grid 1
 Radial grid used for projectors is grid 1
 Radial grid used for (t)core density is grid 1
 Radial grid used for Vloc is grid 1
 Radial grid used for pseudo valence density is grid 1
 Mesh size for Vloc has been set to 1341 to avoid numerical noise.
 Compensation charge density is not taken into account in XC energy/potential
 pspatm: atomic psp has been read  and splines computed

- pspini: atom type   2  psp file is ../../../Psps_for_tests/ATOMICDATA/I.GGA_PBE-JTH.xml
- pspatm: opening atomic psp file    ../../../Psps_for_tests/ATOMICDATA/I.GGA_PBE-JTH.xml
- pspatm : Reading pseudopotential header in XML form from ../../../Psps_for_tests/ATOMICDATA/I.GGA_PBE-JTH.xml
 Pseudopotential format is: paw10
 basis_size (lnmax)=  4 (lmn_size=  8), orbitals=   0   0   1   1
 Spheres core radius: rc_sph= 2.30022271
 1 radial meshes are used:
  - mesh 1: r(i)=AA*[exp(BB*(i-1))-1], size=2000 , AA= 0.12610E-03 BB= 0.66836E-02
 Shapefunction is SIN type: shapef(r)=[sin(pi*r/rshp)/(pi*r/rshp)]**2
 Radius for shape functions =  2.10879093
 mmax= 2000
 Radial grid used for partial waves is grid 1
 Radial grid used for projectors is grid 1
 Radial grid used for (t)core density is grid 1
 Radial grid used for Vloc is grid 1
 Radial grid used for pseudo valence density is grid 1
 Mesh size for Vloc has been set to 1792 to avoid numerical noise.
 Compensation charge density is not taken into account in XC energy/potential
 pspatm: atomic psp has been read  and splines computed

- pspini: atom type   3  psp file is ../../../Psps_for_tests/ATOMICDATA/Zr.GGA_PBE-JTH.xml
- pspatm: opening atomic psp file    ../../../Psps_for_tests/ATOMICDATA/Zr.GGA_PBE-JTH.xml
- pspatm : Reading pseudopotential header in XML form from ../../../Psps_for_tests/ATOMICDATA/Zr.GGA_PBE-JTH.xml
 Pseudopotential format is: paw10
 basis_size (lnmax)=  6 (lmn_size= 18), orbitals=   0   0   1   1   2   2
 Spheres core radius: rc_sph= 2.21000000
 1 radial meshes are used:
  - mesh 1: r(i)=AA*[exp(BB*(i-1))-1], size= 941 , AA= 0.35256E-03 BB= 0.14102E-01
 Shapefunction is BESSEL type: shapef(r,l)=aa(1,l)*jl(q(1,l)*r)+aa(2,l)*jl(q(2,l)*r)
 Radius for shape functions =  2.21000000
 mmax=  941
 Radial grid used for partial waves is grid 1
 Radial grid used for projectors is grid 1
 Radial grid used for (t)core density is grid 1
 Radial grid used for Vloc is grid 1
 Radial grid used for pseudo valence density is grid 1
 Mesh size for Vloc has been set to  777 to avoid numerical noise.
 Compensation charge density is not taken into account in XC energy/potential
 pspatm: atomic psp has been read  and splines computed

   4.46697182E+04                                ecore*ucvol(ha*bohr**3)
--------------------------------------------------------------------------------

_setup2: Arith. and geom. avg. npw (full set) are    8963.406    8963.393

================================================================================

=== [ionmov= 2] Broyden-Fletcher-Goldfard-Shanno method (forces)            
================================================================================

--- Iteration: (   1/1000) Internal Cycle: (1/1)
--------------------------------------------------------------------------------

---SELF-CONSISTENT-FIELD CONVERGENCE--------------------------------------------

--- !BeginCycle
iteration_state: {dtset: 1, itime: 1, icycle: 1, }
solver: {iscf: 17, nstep: 2500, nline: 4, wfoptalg: 10, }
tolerances: {toldff: 1.00E-08, }
...

     iter   Etot(hartree)      deltaE(h)  residm     nres2    diffor    maxfor
 ETOT  1  -158.25476374677    -1.583E+02 2.164E-01 1.345E+01 1.243E-02 1.243E-02
 ETOT  2  -158.57610995990    -3.213E-01 7.603E-03 3.709E+00 7.334E-02 8.577E-02
 ETOT  3  -158.57458494459     1.525E-03 2.298E-03 8.676E-01 1.653E-02 1.023E-01
 ETOT  4  -158.57452004824     6.490E-05 1.145E-03 1.360E-02 3.353E-03 9.895E-02
 ETOT  5  -158.57455912523    -3.908E-05 1.056E-03 4.524E-03 4.034E-03 1.030E-01
 ETOT  6  -158.57458089388    -2.177E-05 4.251E-04 1.886E-04 1.179E-04 1.029E-01
 ETOT  7  -158.57458224347    -1.350E-06 5.401E-04 4.209E-05 4.650E-04 1.033E-01
 ETOT  8  -158.57458289135    -6.479E-07 4.084E-04 5.235E-06 8.542E-05 1.034E-01
 ETOT  9  -158.57458290476    -1.341E-08 3.671E-04 6.893E-07 6.939E-05 1.033E-01
 ETOT 10  -158.57458290827    -3.505E-09 1.992E-04 5.484E-08 9.095E-06 1.034E-01
 ETOT 11  -158.57458290882    -5.483E-10 1.499E-04 2.438E-08 3.131E-06 1.034E-01
 ETOT 12  -158.57458290892    -1.026E-10 8.161E-05 4.208E-09 4.780E-06 1.034E-01
 ETOT 13  -158.57458290891     1.188E-11 6.097E-05 5.033E-10 1.469E-06 1.034E-01
 ETOT 14  -158.57458290888     3.055E-11 4.473E-05 6.270E-11 3.624E-08 1.034E-01
 ETOT 15  -158.57458290890    -2.285E-11 3.260E-05 3.118E-12 1.364E-08 1.034E-01
 ETOT 16  -158.57458290888     1.435E-11 2.348E-05 1.534E-12 8.031E-09 1.034E-01
 ETOT 17  -158.57458290889    -1.535E-12 1.694E-05 6.196E-14 9.024E-09 1.034E-01

 At SCF step   17, forces are converged : 
  for the second time, max diff in force=  9.024E-09 < toldff=  1.000E-08

 Cartesian components of stress tensor (hartree/bohr^3)
  sigma(1 1)= -7.33445686E-04  sigma(3 2)=  0.00000000E+00
  sigma(2 2)= -7.33445686E-04  sigma(3 1)=  0.00000000E+00
  sigma(3 3)= -7.33445686E-04  sigma(2 1)=  0.00000000E+00


--- !ResultsGS
iteration_state: {dtset: 1, itime: 1, icycle: 1, }
comment   : Summary of ground state results
lattice_vectors:
- [  0.0000000,   9.8778384,   9.8778384, ]
- [  9.8778384,   0.0000000,   9.8778384, ]
- [  9.8778384,   9.8778384,   0.0000000, ]
lattice_lengths: [  13.96937,   13.96937,   13.96937, ]
lattice_angles: [ 60.000,  60.000,  60.000, ] # degrees, (23, 13, 12)
lattice_volume:   1.9275948E+03
convergence: {deltae: -1.535E-12, res2:  6.196E-14, residm:  1.694E-05, diffor:  9.024E-09, }
etotal    :  -1.58574583E+02
entropy   :   0.00000000E+00
fermie    :  -5.48879511E-02
cartesian_stress_tensor: # hartree/bohr^3
- [ -7.33445686E-04,   0.00000000E+00,   0.00000000E+00, ]
- [  0.00000000E+00,  -7.33445686E-04,   0.00000000E+00, ]
- [  0.00000000E+00,   0.00000000E+00,  -7.33445686E-04, ]
pressure_GPa:   2.1579E+01
xred      :
- [  2.5000E-01,   2.5000E-01,   2.5000E-01, Cs]
- [  7.5000E-01,   7.5000E-01,   7.5000E-01, Cs]
- [  2.3994E-01,   2.3994E-01,   7.6006E-01,  I]
- [  7.6006E-01,   7.6006E-01,   2.3994E-01,  I]
- [  2.3994E-01,   7.6006E-01,   7.6006E-01,  I]
- [  7.6006E-01,   2.3994E-01,   7.6006E-01,  I]
- [  2.3994E-01,   7.6006E-01,   2.3994E-01,  I]
- [  7.6006E-01,   2.3994E-01,   2.3994E-01,  I]
- [  9.2618E-22,   4.7166E-22,  -4.1448E-22, Zr]
cartesian_forces: # hartree/bohr
- [ -1.54197642E-18,  -2.73761076E-18,   1.72668604E-18, ]
- [ -1.54197642E-18,  -2.73761076E-18,   1.72668604E-18, ]
- [  5.99235266E-19,  -4.87882245E-18,   1.03356254E-01, ]
- [ -3.68318811E-18,  -5.96399073E-19,  -1.03356254E-01, ]
- [ -1.03356254E-01,  -2.25878567E-18,   1.24786095E-18, ]
- [  1.57510233E-18,  -1.03356254E-01,  -1.39039271E-18, ]
- [ -3.58414925E-19,   1.03356254E-01,   5.43124546E-19, ]
- [  1.03356254E-01,   8.02309829E-18,  -9.03402301E-18, ]
- [ -1.54197642E-18,  -2.73761076E-18,   1.72668604E-18, ]
force_length_stats: {min:   3.58519855E-18, max:   1.03356254E-01, mean:   6.89041695E-02, }
...

 Integrated electronic density in atomic spheres:
 ------------------------------------------------
 Atom  Sphere_radius  Integrated_density
    1        2.20660          5.39849874
    2        2.20660          5.39849874
    3        2.30022          4.13641424
    4        2.30022          4.13641424
    5        2.30022          4.13641424
    6        2.30022          4.13641424
    7        2.30022          4.13641424
    8        2.30022          4.13641424
    9        2.21000          9.34063849

 PAW TEST:
 ==== Compensation charge inside spheres ============
 The following values must be close to each other ...
 Compensation charge over spherical meshes =     -5.197876138588988
 Compensation charge over fine fft grid    =     -5.197875006113608

 ==== Results concerning PAW augmentation regions ====

 Total pseudopotential strength Dij (hartree):
 Atom #  1
   0.43338  -0.14354   0.00000   0.00000   0.00000   0.00000   0.00000   0.00000   0.00000   0.00000   0.00000   0.00000 ...
  -0.14354   0.04320   0.00000   0.00000   0.00000   0.00000   0.00000   0.00000   0.00000   0.00000   0.00000   0.00000 ...
   0.00000   0.00000  -0.09266   0.00000   0.00000  -0.16718   0.00000   0.00000   0.00000   0.00000   0.00000  -0.00000 ...
   0.00000   0.00000   0.00000  -0.09266   0.00000   0.00000  -0.16718   0.00000  -0.00000   0.00000   0.00000   0.00000 ...
   0.00000   0.00000   0.00000   0.00000  -0.09266   0.00000   0.00000  -0.16718   0.00000  -0.00000   0.00000   0.00000 ...
   0.00000   0.00000  -0.16718   0.00000   0.00000   0.40207   0.00000   0.00000   0.00000   0.00000   0.00000   0.00000 ...
   0.00000   0.00000   0.00000  -0.16718   0.00000   0.00000   0.40207   0.00000   0.00000   0.00000   0.00000   0.00000 ...
   0.00000   0.00000   0.00000   0.00000  -0.16718   0.00000   0.00000   0.40207   0.00000   0.00000   0.00000   0.00000 ...
   0.00000   0.00000   0.00000  -0.00000   0.00000   0.00000   0.00000   0.00000   0.00535   0.00000   0.00000   0.00000 ...
   0.00000   0.00000   0.00000   0.00000  -0.00000   0.00000   0.00000   0.00000   0.00000   0.00535   0.00000   0.00000 ...
   0.00000   0.00000   0.00000   0.00000   0.00000   0.00000   0.00000   0.00000   0.00000   0.00000   0.00535   0.00000 ...
   0.00000   0.00000  -0.00000   0.00000   0.00000   0.00000   0.00000   0.00000   0.00000   0.00000   0.00000   0.00535 ...
   ...  only 12  components have been written...
 Atom #  9
   3.04147  -0.88544   0.00000   0.00000   0.00000   0.00000   0.00000   0.00000   0.00000   0.00000   0.00000   0.00000 ...
  -0.88544   0.26448   0.00000   0.00000   0.00000   0.00000   0.00000   0.00000   0.00000   0.00000   0.00000   0.00000 ...
   0.00000   0.00000   0.27453   0.00000   0.00000  -0.05624   0.00000   0.00000   0.00000   0.00000   0.00000   0.00000 ...
   0.00000   0.00000   0.00000   0.27453   0.00000   0.00000  -0.05624   0.00000   0.00000   0.00000   0.00000   0.00000 ...
   0.00000   0.00000   0.00000   0.00000   0.27453   0.00000   0.00000  -0.05624   0.00000   0.00000   0.00000   0.00000 ...
   0.00000   0.00000  -0.05624   0.00000   0.00000   0.01538   0.00000   0.00000   0.00000   0.00000   0.00000   0.00000 ...
   0.00000   0.00000   0.00000  -0.05624   0.00000   0.00000   0.01538   0.00000   0.00000   0.00000   0.00000   0.00000 ...
   0.00000   0.00000   0.00000   0.00000  -0.05624   0.00000   0.00000   0.01538   0.00000   0.00000   0.00000   0.00000 ...
   0.00000   0.00000   0.00000   0.00000   0.00000   0.00000   0.00000   0.00000  -0.00619   0.00000   0.00000   0.00000 ...
   0.00000   0.00000   0.00000   0.00000   0.00000   0.00000   0.00000   0.00000   0.00000  -0.00619   0.00000   0.00000 ...
   0.00000   0.00000   0.00000   0.00000   0.00000   0.00000   0.00000   0.00000   0.00000   0.00000  -0.00642   0.00000 ...
   0.00000   0.00000   0.00000   0.00000   0.00000   0.00000   0.00000   0.00000   0.00000   0.00000   0.00000  -0.00619 ...
   ...  only 12  components have been written...


 Augmentation waves occupancies Rhoij:
 Atom #  1
   1.99936  -0.00953   0.00000   0.00000   0.00000   0.00000   0.00000   0.00000   0.00000   0.00000   0.00000   0.00000 ...
  -0.00953   0.29201   0.00000   0.00000   0.00000   0.00000   0.00000   0.00000   0.00000   0.00000   0.00000   0.00000 ...
   0.00000   0.00000   2.00415   0.00000   0.00000  -0.00485   0.00000   0.00000   0.00000   0.00000   0.00000  -0.00456 ...
   0.00000   0.00000   0.00000   2.00415   0.00000   0.00000  -0.00485   0.00000  -0.00456   0.00000   0.00000   0.00000 ...
   0.00000   0.00000   0.00000   0.00000   2.00415   0.00000   0.00000  -0.00485   0.00000  -0.00456   0.00000   0.00000 ...
   0.00000   0.00000  -0.00485   0.00000   0.00000   0.00023   0.00000   0.00000   0.00000   0.00000   0.00000   0.00013 ...
   0.00000   0.00000   0.00000  -0.00485   0.00000   0.00000   0.00023   0.00000   0.00013   0.00000   0.00000   0.00000 ...
   0.00000   0.00000   0.00000   0.00000  -0.00485   0.00000   0.00000   0.00023   0.00000   0.00013   0.00000   0.00000 ...
   0.00000   0.00000   0.00000  -0.00456   0.00000   0.00000   0.00013   0.00000   0.12508   0.00000   0.00000   0.00000 ...
   0.00000   0.00000   0.00000   0.00000  -0.00456   0.00000   0.00000   0.00013   0.00000   0.12508   0.00000   0.00000 ...
   0.00000   0.00000   0.00000   0.00000   0.00000   0.00000   0.00000   0.00000   0.00000   0.00000   0.09185   0.00000 ...
   0.00000   0.00000  -0.00456   0.00000   0.00000   0.00013   0.00000   0.00000   0.00000   0.00000   0.00000   0.12508 ...
   ...  only 12  components have been written...
 Atom #  9
   2.00622  -0.01206   0.00000   0.00000   0.00000   0.00000   0.00000   0.00000   0.00000   0.00000   0.00000   0.00000 ...
  -0.01206   1.37796   0.00000   0.00000   0.00000   0.00000   0.00000   0.00000   0.00000   0.00000   0.00000   0.00000 ...
   0.00000   0.00000   2.00160   0.00000   0.00000   0.00269   0.00000   0.00000   0.00000   0.00000   0.00000   0.00000 ...
   0.00000   0.00000   0.00000   2.00160   0.00000   0.00000   0.00269   0.00000   0.00000   0.00000   0.00000   0.00000 ...
   0.00000   0.00000   0.00000   0.00000   2.00160   0.00000   0.00000   0.00269   0.00000   0.00000   0.00000   0.00000 ...
   0.00000   0.00000   0.00269   0.00000   0.00000   2.70554   0.00000   0.00000   0.00000   0.00000   0.00000   0.00000 ...
   0.00000   0.00000   0.00000   0.00269   0.00000   0.00000   2.70554   0.00000   0.00000   0.00000   0.00000   0.00000 ...
   0.00000   0.00000   0.00000   0.00000   0.00269   0.00000   0.00000   2.70554   0.00000   0.00000   0.00000   0.00000 ...
   0.00000   0.00000   0.00000   0.00000   0.00000   0.00000   0.00000   0.00000   0.99756   0.00000   0.00000   0.00000 ...
   0.00000   0.00000   0.00000   0.00000   0.00000   0.00000   0.00000   0.00000   0.00000   0.99756   0.00000   0.00000 ...
   0.00000   0.00000   0.00000   0.00000   0.00000   0.00000   0.00000   0.00000   0.00000   0.00000   2.63120   0.00000 ...
   0.00000   0.00000   0.00000   0.00000   0.00000   0.00000   0.00000   0.00000   0.00000   0.00000   0.00000   0.99756 ...
   ...  only 12  components have been written...



---OUTPUT-----------------------------------------------------------------------

 Cartesian coordinates (xcart) [bohr]
  4.93891921825341E+00  4.93891921825341E+00  4.93891921825342E+00
  1.48167576547602E+01  1.48167576547602E+01  1.48167576547602E+01
  9.87783843650683E+00  9.87783843650683E+00  4.74010546771451E+00
  9.87783843650683E+00  9.87783843650683E+00  1.50155714052991E+01
  1.50155714052991E+01  9.87783843650683E+00  9.87783843650683E+00
  9.87783843650683E+00  1.50155714052991E+01  9.87783843650683E+00
  9.87783843650683E+00  4.74010546771451E+00  9.87783843650683E+00
  4.74010546771451E+00  9.87783843650683E+00  9.87783843650683E+00
  5.64758909631122E-22  5.05447838185397E-21  1.38076541959313E-20
 Reduced coordinates (xred)
  2.50000000000000E-01  2.50000000000000E-01  2.50000000000000E-01
  7.50000000000000E-01  7.50000000000000E-01  7.50000000000000E-01
  2.39936373640000E-01  2.39936373640000E-01  7.60063626360000E-01
  7.60063626360000E-01  7.60063626360000E-01  2.39936373640000E-01
  2.39936373640000E-01  7.60063626360000E-01  7.60063626360000E-01
  7.60063626360000E-01  2.39936373640000E-01  7.60063626360000E-01
  2.39936373640000E-01  7.60063626360000E-01  2.39936373640000E-01
  7.60063626360000E-01  2.39936373640000E-01  2.39936373640000E-01
  9.26183080730000E-22  4.71658591280000E-22 -4.14484249620000E-22
 Cartesian forces (fcart) [Ha/bohr]; max,rms= 1.03356E-01 4.87226E-02 (free atoms)
 -1.54197642309050E-18 -2.73761076277938E-18  1.72668604462256E-18
 -1.54197642309050E-18 -2.73761076277938E-18  1.72668604462256E-18
  5.99235266253234E-19 -4.87882245212310E-18  1.03356254195624E-01
 -3.68318811243422E-18 -5.96399073435646E-19 -1.03356254195624E-01
 -1.03356254195624E-01 -2.25878566722418E-18  1.24786094906736E-18
  1.57510232752404E-18 -1.03356254195624E-01 -1.39039270599198E-18
 -3.58414924857148E-19  1.03356254195624E-01  5.43124546389208E-19
  1.03356254195624E-01  8.02309829442055E-18 -9.03402301257737E-18
 -1.54197642309050E-18 -2.73761076277938E-18  1.72668604462256E-18
 Reduced forces (fred)
  9.98575103742427E-18 -1.82453179916201E-18  4.22730707969675E-17
  9.98575103742427E-18 -1.82453179916201E-18  4.22730707969675E-17
 -1.02093638034690E+00 -1.02093638034690E+00  4.22730707969675E-17
  1.02093638034690E+00  1.02093638034690E+00  4.22730707969675E-17
  9.98575103742427E-18  1.02093638034691E+00  1.02093638034691E+00
  1.02093638034691E+00 -1.82453179916201E-18  1.02093638034691E+00
 -1.02093638034691E+00 -1.82453179916201E-18 -1.02093638034691E+00
  9.98575103742427E-18 -1.02093638034691E+00 -1.02093638034691E+00
  9.98575103742427E-18 -1.82453179916201E-18  4.22730707969675E-17
 Total energy (etotal) [Ha]= -1.58574582908885E+02

--- Iteration: (   2/1000) Internal Cycle: (1/1)
--------------------------------------------------------------------------------

---SELF-CONSISTENT-FIELD CONVERGENCE--------------------------------------------

--- !BeginCycle
iteration_state: {dtset: 1, itime: 2, icycle: 1, }
solver: {iscf: 17, nstep: 2500, nline: 4, wfoptalg: 10, }
tolerances: {toldff: 1.00E-08, }
...

     iter   Etot(hartree)      deltaE(h)  residm     nres2    diffor    maxfor
 ETOT  1  -158.74625365037    -1.587E+02 6.284E-04 2.143E+01 3.546E-01 4.580E-01
 ETOT  2  -158.63495267992     1.113E-01 8.648E-04 1.932E+00 3.675E-01 9.047E-02
 ETOT  3  -158.63019021039     4.762E-03 5.187E-04 2.597E-01 1.597E-02 1.064E-01
 ETOT  4  -158.62932628941     8.639E-04 6.919E-05 3.558E-02 2.540E-02 8.104E-02
 ETOT  5  -158.62945254169    -1.263E-04 7.176E-05 1.974E-02 7.687E-03 7.335E-02
 ETOT  6  -158.62941017370     4.237E-05 3.718E-05 3.029E-03 1.168E-03 7.452E-02
 ETOT  7  -158.62941383045    -3.657E-06 3.452E-05 4.586E-04 5.421E-04 7.398E-02
 ETOT  8  -158.62941385259    -2.214E-08 2.244E-05 3.282E-04 3.115E-04 7.429E-02
 ETOT  9  -158.62941332554     5.271E-07 3.141E-05 5.599E-05 2.108E-04 7.408E-02
 ETOT 10  -158.62941324968     7.586E-08 1.878E-05 3.887E-06 7.790E-05 7.416E-02
 ETOT 11  -158.62941329640    -4.672E-08 2.585E-05 7.291E-07 4.601E-05 7.411E-02
 ETOT 12  -158.62941334405    -4.766E-08 1.398E-05 1.439E-08 2.514E-05 7.414E-02
 ETOT 13  -158.62941335757    -1.352E-08 2.022E-05 3.072E-09 1.230E-06 7.414E-02
 ETOT 14  -158.62941337772    -2.015E-08 9.968E-06 5.346E-10 1.577E-06 7.414E-02
 ETOT 15  -158.62941338234    -4.619E-09 1.564E-05 3.033E-10 5.131E-07 7.414E-02
 ETOT 16  -158.62941339181    -9.466E-09 6.981E-06 9.278E-11 6.065E-08 7.414E-02
 ETOT 17  -158.62941339708    -5.273E-09 1.204E-05 4.755E-11 2.626E-08 7.414E-02
 ETOT 18  -158.62941340416    -7.083E-09 4.894E-06 1.008E-11 5.344E-08 7.414E-02
 ETOT 19  -158.62941340531    -1.149E-09 9.184E-06 1.961E-12 2.615E-08 7.414E-02
 ETOT 20  -158.62941340577    -4.572E-10 3.460E-06 1.070E-12 1.920E-08 7.414E-02
 ETOT 21  -158.62941340595    -1.818E-10 6.903E-06 1.552E-14 1.029E-08 7.414E-02
 ETOT 22  -158.62941340597    -1.685E-11 2.464E-06 6.216E-15 6.280E-10 7.414E-02
 ETOT 23  -158.62941340599    -2.694E-11 5.102E-06 1.155E-15 5.245E-10 7.414E-02

 At SCF step   23, forces are converged : 
  for the second time, max diff in force=  5.245E-10 < toldff=  1.000E-08

 Cartesian components of stress tensor (hartree/bohr^3)
  sigma(1 1)= -6.30030336E-04  sigma(3 2)=  0.00000000E+00
  sigma(2 2)= -6.30030336E-04  sigma(3 1)=  0.00000000E+00
  sigma(3 3)= -6.30030336E-04  sigma(2 1)=  0.00000000E+00


--- !ResultsGS
iteration_state: {dtset: 1, itime: 2, icycle: 1, }
comment   : Summary of ground state results
lattice_vectors:
- [  0.0000000,   9.8778384,   9.8778384, ]
- [  9.8778384,   0.0000000,   9.8778384, ]
- [  9.8778384,   9.8778384,   0.0000000, ]
lattice_lengths: [  13.96937,   13.96937,   13.96937, ]
lattice_angles: [ 60.000,  60.000,  60.000, ] # degrees, (23, 13, 12)
lattice_volume:   1.9275948E+03
convergence: {deltae: -2.694E-11, res2:  1.155E-15, residm:  5.102E-06, diffor:  5.245E-10, }
etotal    :  -1.58629413E+02
entropy   :   0.00000000E+00
fermie    :  -5.57147527E-02
cartesian_stress_tensor: # hartree/bohr^3
- [ -6.30030336E-04,   0.00000000E+00,   0.00000000E+00, ]
- [  0.00000000E+00,  -6.30030336E-04,   0.00000000E+00, ]
- [  0.00000000E+00,   0.00000000E+00,  -6.30030336E-04, ]
pressure_GPa:   1.8536E+01
xred      :
- [  2.5000E-01,   2.5000E-01,   2.5000E-01, Cs]
- [  7.5000E-01,   7.5000E-01,   7.5000E-01, Cs]
- [  2.4517E-01,   2.4517E-01,   7.5483E-01,  I]
- [  7.5483E-01,   7.5483E-01,   2.4517E-01,  I]
- [  2.4517E-01,   7.5483E-01,   7.5483E-01,  I]
- [  7.5483E-01,   2.4517E-01,   7.5483E-01,  I]
- [  2.4517E-01,   7.5483E-01,   2.4517E-01,  I]
- [  7.5483E-01,   2.4517E-01,   2.4517E-01,  I]
- [  2.2299E-19,  -1.8695E-19,  -8.3862E-20, Zr]
cartesian_forces: # hartree/bohr
- [  1.54197642E-18,  -1.39199013E-18,  -1.54197642E-18, ]
- [  1.54197642E-18,  -1.39199013E-18,  -1.54197642E-18, ]
- [  8.51162017E-18,  -8.36163387E-18,   7.41386102E-02, ]
- [ -1.53480746E-17,   1.54980609E-17,  -7.41386102E-02, ]
- [ -7.41386102E-02,  -4.21134555E-20,  -2.89185309E-18, ]
- [ -1.06552739E-18,  -7.41386102E-02,   1.06552739E-18, ]
- [  4.14948023E-18,   7.41386102E-02,  -4.14948023E-18, ]
- [  7.41386102E-02,  -2.74186680E-18,  -1.92099752E-19, ]
- [  1.54197642E-18,  -1.39199013E-18,  -1.54197642E-18, ]
force_length_stats: {min:   2.58708698E-18, max:   7.41386102E-02, mean:   4.94257401E-02, }
...

 Integrated electronic density in atomic spheres:
 ------------------------------------------------
 Atom  Sphere_radius  Integrated_density
    1        2.20660          5.39926570
    2        2.20660          5.39926570
    3        2.30022          4.12597076
    4        2.30022          4.12597076
    5        2.30022          4.12597076
    6        2.30022          4.12597076
    7        2.30022          4.12597076
    8        2.30022          4.12597076
    9        2.21000          9.23254867

 PAW TEST:
 ==== Compensation charge inside spheres ============
 The following values must be close to each other ...
 Compensation charge over spherical meshes =     -5.202035855140465
 Compensation charge over fine fft grid    =     -5.202031950339689

 ==== Results concerning PAW augmentation regions ====

 Total pseudopotential strength Dij (hartree):
 Atom #  1
   0.43296  -0.14340   0.00000   0.00000   0.00000   0.00000   0.00000   0.00000   0.00000   0.00000   0.00000   0.00000 ...
  -0.14340   0.04316   0.00000   0.00000   0.00000   0.00000   0.00000   0.00000   0.00000   0.00000   0.00000   0.00000 ...
   0.00000   0.00000  -0.09261   0.00000   0.00000  -0.16721   0.00000   0.00000   0.00000   0.00000   0.00000  -0.00000 ...
   0.00000   0.00000   0.00000  -0.09261   0.00000   0.00000  -0.16721   0.00000  -0.00000   0.00000   0.00000   0.00000 ...
   0.00000   0.00000   0.00000   0.00000  -0.09261   0.00000   0.00000  -0.16721   0.00000  -0.00000   0.00000   0.00000 ...
   0.00000   0.00000  -0.16721   0.00000   0.00000   0.40195   0.00000   0.00000   0.00000   0.00000   0.00000   0.00000 ...
   0.00000   0.00000   0.00000  -0.16721   0.00000   0.00000   0.40195   0.00000   0.00000   0.00000   0.00000   0.00000 ...
   0.00000   0.00000   0.00000   0.00000  -0.16721   0.00000   0.00000   0.40195   0.00000   0.00000   0.00000   0.00000 ...
   0.00000   0.00000   0.00000  -0.00000   0.00000   0.00000   0.00000   0.00000   0.00536   0.00000   0.00000   0.00000 ...
   0.00000   0.00000   0.00000   0.00000  -0.00000   0.00000   0.00000   0.00000   0.00000   0.00536   0.00000   0.00000 ...
   0.00000   0.00000   0.00000   0.00000   0.00000   0.00000   0.00000   0.00000   0.00000   0.00000   0.00536   0.00000 ...
   0.00000   0.00000  -0.00000   0.00000   0.00000   0.00000   0.00000   0.00000   0.00000   0.00000   0.00000   0.00536 ...
   ...  only 12  components have been written...
 Atom #  9
   3.04709  -0.88713   0.00000   0.00000   0.00000   0.00000   0.00000   0.00000   0.00000   0.00000   0.00000   0.00000 ...
  -0.88713   0.26500   0.00000   0.00000   0.00000   0.00000   0.00000   0.00000   0.00000   0.00000   0.00000   0.00000 ...
   0.00000   0.00000   0.27388   0.00000   0.00000  -0.05605   0.00000   0.00000   0.00000   0.00000   0.00000   0.00000 ...
   0.00000   0.00000   0.00000   0.27388   0.00000   0.00000  -0.05605   0.00000   0.00000   0.00000   0.00000   0.00000 ...
   0.00000   0.00000   0.00000   0.00000   0.27388   0.00000   0.00000  -0.05605   0.00000   0.00000   0.00000   0.00000 ...
   0.00000   0.00000  -0.05605   0.00000   0.00000   0.01533   0.00000   0.00000   0.00000   0.00000   0.00000   0.00000 ...
   0.00000   0.00000   0.00000  -0.05605   0.00000   0.00000   0.01533   0.00000   0.00000   0.00000   0.00000   0.00000 ...
   0.00000   0.00000   0.00000   0.00000  -0.05605   0.00000   0.00000   0.01533   0.00000   0.00000   0.00000   0.00000 ...
   0.00000   0.00000   0.00000   0.00000   0.00000   0.00000   0.00000   0.00000  -0.00725   0.00000   0.00000   0.00000 ...
   0.00000   0.00000   0.00000   0.00000   0.00000   0.00000   0.00000   0.00000   0.00000  -0.00725   0.00000   0.00000 ...
   0.00000   0.00000   0.00000   0.00000   0.00000   0.00000   0.00000   0.00000   0.00000   0.00000  -0.00740   0.00000 ...
   0.00000   0.00000   0.00000   0.00000   0.00000   0.00000   0.00000   0.00000   0.00000   0.00000   0.00000  -0.00725 ...
   ...  only 12  components have been written...


 Augmentation waves occupancies Rhoij:
 Atom #  1
   1.99953  -0.00914   0.00000   0.00000   0.00000   0.00000   0.00000   0.00000   0.00000   0.00000   0.00000   0.00000 ...
  -0.00914   0.29289   0.00000   0.00000   0.00000   0.00000   0.00000   0.00000   0.00000   0.00000   0.00000   0.00000 ...
   0.00000   0.00000   2.00449   0.00000   0.00000  -0.00484   0.00000   0.00000   0.00000   0.00000   0.00000  -0.00365 ...
   0.00000   0.00000   0.00000   2.00449   0.00000   0.00000  -0.00484   0.00000  -0.00365   0.00000   0.00000   0.00000 ...
   0.00000   0.00000   0.00000   0.00000   2.00449   0.00000   0.00000  -0.00484   0.00000  -0.00365   0.00000   0.00000 ...
   0.00000   0.00000  -0.00484   0.00000   0.00000   0.00023   0.00000   0.00000   0.00000   0.00000   0.00000   0.00014 ...
   0.00000   0.00000   0.00000  -0.00484   0.00000   0.00000   0.00023   0.00000   0.00014   0.00000   0.00000   0.00000 ...
   0.00000   0.00000   0.00000   0.00000  -0.00484   0.00000   0.00000   0.00023   0.00000   0.00014   0.00000   0.00000 ...
   0.00000   0.00000   0.00000  -0.00365   0.00000   0.00000   0.00014   0.00000   0.12583   0.00000   0.00000   0.00000 ...
   0.00000   0.00000   0.00000   0.00000  -0.00365   0.00000   0.00000   0.00014   0.00000   0.12583   0.00000   0.00000 ...
   0.00000   0.00000   0.00000   0.00000   0.00000   0.00000   0.00000   0.00000   0.00000   0.00000   0.09205   0.00000 ...
   0.00000   0.00000  -0.00365   0.00000   0.00000   0.00014   0.00000   0.00000   0.00000   0.00000   0.00000   0.12583 ...
   ...  only 12  components have been written...
 Atom #  9
   2.00327  -0.02328   0.00000   0.00000   0.00000   0.00000   0.00000   0.00000   0.00000   0.00000   0.00000   0.00000 ...
  -0.02328   1.30310   0.00000   0.00000   0.00000   0.00000   0.00000   0.00000   0.00000   0.00000   0.00000   0.00000 ...
   0.00000   0.00000   1.99417   0.00000   0.00000  -0.03852   0.00000   0.00000   0.00000   0.00000   0.00000   0.00000 ...
   0.00000   0.00000   0.00000   1.99417   0.00000   0.00000  -0.03852   0.00000   0.00000   0.00000   0.00000   0.00000 ...
   0.00000   0.00000   0.00000   0.00000   1.99417   0.00000   0.00000  -0.03852   0.00000   0.00000   0.00000   0.00000 ...
   0.00000   0.00000  -0.03852   0.00000   0.00000   2.44444   0.00000   0.00000   0.00000   0.00000   0.00000   0.00000 ...
   0.00000   0.00000   0.00000  -0.03852   0.00000   0.00000   2.44444   0.00000   0.00000   0.00000   0.00000   0.00000 ...
   0.00000   0.00000   0.00000   0.00000  -0.03852   0.00000   0.00000   2.44444   0.00000   0.00000   0.00000   0.00000 ...
   0.00000   0.00000   0.00000   0.00000   0.00000   0.00000   0.00000   0.00000   0.88022   0.00000   0.00000   0.00000 ...
   0.00000   0.00000   0.00000   0.00000   0.00000   0.00000   0.00000   0.00000   0.00000   0.88022   0.00000   0.00000 ...
   0.00000   0.00000   0.00000   0.00000   0.00000   0.00000   0.00000   0.00000   0.00000   0.00000   2.34153   0.00000 ...
   0.00000   0.00000   0.00000   0.00000   0.00000   0.00000   0.00000   0.00000   0.00000   0.00000   0.00000   0.88022 ...
   ...  only 12  components have been written...



---OUTPUT-----------------------------------------------------------------------

 Cartesian coordinates (xcart) [bohr]
  4.93891921825341E+00  4.93891921825341E+00  4.93891921825342E+00
  1.48167576547602E+01  1.48167576547602E+01  1.48167576547602E+01
  9.87783843650683E+00  9.87783843650683E+00  4.84346172191014E+00
  9.87783843650683E+00  9.87783843650683E+00  1.49122151511035E+01
  1.49122151511035E+01  9.87783843650683E+00  9.87783843650683E+00
  9.87783843650683E+00  1.49122151511035E+01  9.87783843650683E+00
  9.87783843650683E+00  4.84346172191014E+00  9.87783843650683E+00
  4.84346172191014E+00  9.87783843650683E+00  9.87783843650683E+00
 -2.67508056293009E-18  1.37429655783838E-18  3.55965050118570E-19
 Reduced coordinates (xred)
  2.50000000000000E-01  2.50000000000000E-01  2.50000000000000E-01
  7.50000000000000E-01  7.50000000000000E-01  7.50000000000000E-01
  2.45168097911458E-01  2.45168097911458E-01  7.54831902088542E-01
  7.54831902088542E-01  7.54831902088542E-01  2.45168097911458E-01
  2.45168097911458E-01  7.54831902088542E-01  7.54831902088542E-01
  7.54831902088542E-01  2.45168097911458E-01  7.54831902088542E-01
  2.45168097911458E-01  7.54831902088542E-01  2.45168097911458E-01
  7.54831902088542E-01  2.45168097911458E-01  2.45168097911458E-01
  2.22991203956406E-19 -1.86954468550512E-19 -8.38619231251654E-20
 Cartesian forces (fcart) [Ha/bohr]; max,rms= 7.41386E-02 3.49493E-02 (free atoms)
  1.54197642483510E-18 -1.39199012807655E-18 -1.54197642483510E-18
  1.54197641785668E-18 -1.39199012807655E-18 -1.54197641785668E-18
  8.51162017029499E-18 -8.36163387353644E-18  7.41386102009447E-02
 -1.53480746493394E-17  1.54980609460980E-17 -7.41386102009447E-02
 -7.41386102009447E-02 -4.21134555050089E-20 -2.89185309391743E-18
 -1.06552738867158E-18 -7.41386102009447E-02  1.06552738867158E-18
  4.14948023485258E-18  7.41386102009447E-02 -4.14948023485258E-18
  7.41386102009447E-02 -2.74186679715888E-18 -1.92099752263557E-19
  1.54197642309050E-18 -1.39199012633195E-18 -1.54197642309050E-18
 Reduced forces (fred)
  2.89812475877762E-17 -9.43974582995772E-34 -1.48154040707091E-18
  2.89812475188445E-17  6.67502281929479E-34 -1.48154033813919E-18
 -7.32329213472089E-01 -7.32329213472089E-01 -1.48154040707092E-18
  7.32329213472089E-01  7.32329213472089E-01 -1.48154040707092E-18
  2.89812475533103E-17  7.32329213472089E-01  7.32329213472089E-01
  7.32329213472089E-01  5.64593976102368E-34  7.32329213472089E-01
 -7.32329213472089E-01  2.02422591536369E-33 -7.32329213472089E-01
  2.89812475533103E-17 -7.32329213472089E-01 -7.32329213472089E-01
  2.89812475533103E-17  5.24037967978137E-34 -1.48154040707091E-18
 Total energy (etotal) [Ha]= -1.58629413405995E+02

 Difference of energy with previous step (new-old):
           Absolute (Ha)=-5.48305E-02
           Relative     =-3.45711E-04

--- Iteration: (   3/1000) Internal Cycle: (1/1)
--------------------------------------------------------------------------------

---SELF-CONSISTENT-FIELD CONVERGENCE--------------------------------------------

--- !BeginCycle
iteration_state: {dtset: 1, itime: 3, icycle: 1, }
solver: {iscf: 17, nstep: 2500, nline: 4, wfoptalg: 10, }
tolerances: {toldff: 1.00E-08, }
...

     iter   Etot(hartree)      deltaE(h)  residm     nres2    diffor    maxfor
 ETOT  1  -159.43978752499    -1.594E+02 5.295E-03 1.210E+02 8.756E-01 9.498E-01
 ETOT  2  -158.72153592303     7.183E-01 9.448E-03 9.497E+00 9.259E-01 2.383E-02
 ETOT  3  -158.70198467034     1.955E-02 1.642E-03 1.541E+00 6.894E-02 9.277E-02
 ETOT  4  -158.69624198718     5.743E-03 1.900E-04 1.623E-01 6.342E-02 2.936E-02
 ETOT  5  -158.69690334521    -6.614E-04 1.142E-04 9.026E-02 2.057E-02 8.785E-03
 ETOT  6  -158.69669352910     2.098E-04 4.361E-05 6.587E-03 7.161E-03 1.595E-02
 ETOT  7  -158.69671203211    -1.850E-05 1.704E-05 1.265E-03 3.883E-03 1.206E-02
 ETOT  8  -158.69670970787     2.324E-06 2.013E-05 4.195E-04 1.738E-03 1.380E-02
 ETOT  9  -158.69670876597     9.419E-07 7.632E-06 4.051E-05 4.661E-04 1.427E-02
 ETOT 10  -158.69670880984    -4.387E-08 8.435E-06 2.000E-05 1.560E-04 1.411E-02
 ETOT 11  -158.69670880949     3.574E-10 3.237E-06 1.282E-06 4.695E-05 1.416E-02
 ETOT 12  -158.69670883560    -2.612E-08 3.608E-06 1.267E-07 1.544E-05 1.417E-02
 ETOT 13  -158.69670885237    -1.677E-08 1.374E-06 4.186E-08 4.248E-06 1.417E-02
 ETOT 14  -158.69670886332    -1.095E-08 1.537E-06 3.176E-09 5.346E-06 1.416E-02
 ETOT 15  -158.69670887454    -1.122E-08 5.842E-07 1.255E-10 1.283E-06 1.416E-02
 ETOT 16  -158.69670887923    -4.690E-09 6.544E-07 9.824E-11 1.186E-07 1.416E-02
 ETOT 17  -158.69670888283    -3.601E-09 2.006E-06 1.226E-11 2.330E-07 1.416E-02
 ETOT 18  -158.69670888621    -3.374E-09 2.465E-06 3.555E-12 2.501E-08 1.416E-02
 ETOT 19  -158.69670888853    -2.320E-09 1.049E-05 1.063E-12 3.087E-08 1.416E-02
 ETOT 20  -158.69670889004    -1.518E-09 1.282E-05 1.516E-13 2.485E-08 1.416E-02
 ETOT 21  -158.69670889059    -5.417E-10 5.404E-05 1.014E-14 8.965E-09 1.416E-02
 ETOT 22  -158.69670889073    -1.475E-10 6.436E-05 1.238E-15 8.621E-10 1.416E-02

 At SCF step   22, forces are converged : 
  for the second time, max diff in force=  8.621E-10 < toldff=  1.000E-08

 Cartesian components of stress tensor (hartree/bohr^3)
  sigma(1 1)= -4.48509154E-04  sigma(3 2)=  0.00000000E+00
  sigma(2 2)= -4.48509154E-04  sigma(3 1)=  0.00000000E+00
  sigma(3 3)= -4.48509154E-04  sigma(2 1)=  0.00000000E+00


--- !ResultsGS
iteration_state: {dtset: 1, itime: 3, icycle: 1, }
comment   : Summary of ground state results
lattice_vectors:
- [  0.0000000,   9.8778384,   9.8778384, ]
- [  9.8778384,   0.0000000,   9.8778384, ]
- [  9.8778384,   9.8778384,   0.0000000, ]
lattice_lengths: [  13.96937,   13.96937,   13.96937, ]
lattice_angles: [ 60.000,  60.000,  60.000, ] # degrees, (23, 13, 12)
lattice_volume:   1.9275948E+03
convergence: {deltae: -1.475E-10, res2:  1.238E-15, residm:  6.436E-05, diffor:  8.621E-10, }
etotal    :  -1.58696709E+02
entropy   :   0.00000000E+00
fermie    :  -5.27733540E-02
cartesian_stress_tensor: # hartree/bohr^3
- [ -4.48509154E-04,   0.00000000E+00,   0.00000000E+00, ]
- [  0.00000000E+00,  -4.48509154E-04,   0.00000000E+00, ]
- [  0.00000000E+00,   0.00000000E+00,  -4.48509154E-04, ]
pressure_GPa:   1.3196E+01
xred      :
- [  2.5000E-01,   2.5000E-01,   2.5000E-01, Cs]
- [  7.5000E-01,   7.5000E-01,   7.5000E-01, Cs]
- [  2.5844E-01,   2.5844E-01,   7.4156E-01,  I]
- [  7.4156E-01,   7.4156E-01,   2.5844E-01,  I]
- [  2.5844E-01,   7.4156E-01,   7.4156E-01,  I]
- [  7.4156E-01,   2.5844E-01,   7.4156E-01,  I]
- [  2.5844E-01,   7.4156E-01,   2.5844E-01,  I]
- [  7.4156E-01,   2.5844E-01,   2.5844E-01,  I]
- [ -7.3729E-19,   1.1722E-19,   2.6806E-19, Zr]
cartesian_forces: # hartree/bohr
- [  6.97842126E-27,   1.69174086E-19,  -9.63735823E-20, ]
- [  2.09352638E-26,   1.69174072E-19,  -9.63735544E-20, ]
- [ -1.07951857E-18,   1.24869264E-18,   1.41626288E-02, ]
- [  1.07951857E-18,  -9.10344498E-19,  -1.41626288E-02, ]
- [ -1.41626288E-02,  -9.10344498E-19,   9.83145043E-19, ]
- [ -2.12156832E-19,  -1.41626288E-02,   1.15783305E-19, ]
- [  2.12156832E-19,   1.41626288E-02,  -3.08530358E-19, ]
- [  1.41626288E-02,   3.81330903E-19,  -3.08530358E-19, ]
- [ -0.00000000E+00,   1.69174072E-19,  -9.63735264E-20, ]
force_length_stats: {min:   1.94699058E-19, max:   1.41626288E-02, mean:   9.44175255E-03, }
...

 Integrated electronic density in atomic spheres:
 ------------------------------------------------
 Atom  Sphere_radius  Integrated_density
    1        2.20660          5.40041020
    2        2.20660          5.40041020
    3        2.30022          4.08275618
    4        2.30022          4.08275618
    5        2.30022          4.08275618
    6        2.30022          4.08275618
    7        2.30022          4.08275618
    8        2.30022          4.08275618
    9        2.21000          9.02747042

 PAW TEST:
 ==== Compensation charge inside spheres ============
 The following values must be close to each other ...
 Compensation charge over spherical meshes =     -5.219294110383062
 Compensation charge over fine fft grid    =     -5.219291342615639

 ==== Results concerning PAW augmentation regions ====

 Total pseudopotential strength Dij (hartree):
 Atom #  1
   0.43203  -0.14310   0.00000   0.00000   0.00000   0.00000   0.00000   0.00000   0.00000   0.00000   0.00000   0.00000 ...
  -0.14310   0.04306   0.00000   0.00000   0.00000   0.00000   0.00000   0.00000   0.00000   0.00000   0.00000   0.00000 ...
   0.00000   0.00000  -0.09249   0.00000   0.00000  -0.16728   0.00000   0.00000   0.00000   0.00000   0.00000  -0.00000 ...
   0.00000   0.00000   0.00000  -0.09249   0.00000   0.00000  -0.16728   0.00000  -0.00000   0.00000   0.00000   0.00000 ...
   0.00000   0.00000   0.00000   0.00000  -0.09249   0.00000   0.00000  -0.16728   0.00000  -0.00000   0.00000   0.00000 ...
   0.00000   0.00000  -0.16728   0.00000   0.00000   0.40167   0.00000   0.00000   0.00000   0.00000   0.00000  -0.00000 ...
   0.00000   0.00000   0.00000  -0.16728   0.00000   0.00000   0.40167   0.00000  -0.00000   0.00000   0.00000   0.00000 ...
   0.00000   0.00000   0.00000   0.00000  -0.16728   0.00000   0.00000   0.40167   0.00000  -0.00000   0.00000   0.00000 ...
   0.00000   0.00000   0.00000  -0.00000   0.00000   0.00000  -0.00000   0.00000   0.00538   0.00000   0.00000   0.00000 ...
   0.00000   0.00000   0.00000   0.00000  -0.00000   0.00000   0.00000  -0.00000   0.00000   0.00538   0.00000   0.00000 ...
   0.00000   0.00000   0.00000   0.00000   0.00000   0.00000   0.00000   0.00000   0.00000   0.00000   0.00538   0.00000 ...
   0.00000   0.00000  -0.00000   0.00000   0.00000  -0.00000   0.00000   0.00000   0.00000   0.00000   0.00000   0.00538 ...
   ...  only 12  components have been written...
 Atom #  9
   3.05935  -0.89084   0.00000   0.00000   0.00000   0.00000   0.00000   0.00000   0.00000   0.00000   0.00000   0.00000 ...
  -0.89084   0.26616   0.00000   0.00000   0.00000   0.00000   0.00000   0.00000   0.00000   0.00000   0.00000   0.00000 ...
   0.00000   0.00000   0.27201   0.00000   0.00000  -0.05552   0.00000   0.00000   0.00000   0.00000   0.00000   0.00000 ...
   0.00000   0.00000   0.00000   0.27201   0.00000   0.00000  -0.05552   0.00000   0.00000   0.00000   0.00000   0.00000 ...
   0.00000   0.00000   0.00000   0.00000   0.27201   0.00000   0.00000  -0.05552   0.00000   0.00000   0.00000   0.00000 ...
   0.00000   0.00000  -0.05552   0.00000   0.00000   0.01520   0.00000   0.00000   0.00000   0.00000   0.00000   0.00000 ...
   0.00000   0.00000   0.00000  -0.05552   0.00000   0.00000   0.01520   0.00000   0.00000   0.00000   0.00000   0.00000 ...
   0.00000   0.00000   0.00000   0.00000  -0.05552   0.00000   0.00000   0.01520   0.00000   0.00000   0.00000   0.00000 ...
   0.00000   0.00000   0.00000   0.00000   0.00000   0.00000   0.00000   0.00000  -0.00994   0.00000   0.00000   0.00000 ...
   0.00000   0.00000   0.00000   0.00000   0.00000   0.00000   0.00000   0.00000   0.00000  -0.00994   0.00000   0.00000 ...
   0.00000   0.00000   0.00000   0.00000   0.00000   0.00000   0.00000   0.00000   0.00000   0.00000  -0.00994   0.00000 ...
   0.00000   0.00000   0.00000   0.00000   0.00000   0.00000   0.00000   0.00000   0.00000   0.00000   0.00000  -0.00994 ...
   ...  only 12  components have been written...


 Augmentation waves occupancies Rhoij:
 Atom #  1
   1.99980  -0.00853   0.00000   0.00000   0.00000   0.00000   0.00000   0.00000   0.00000   0.00000   0.00000   0.00000 ...
  -0.00853   0.29590   0.00000   0.00000   0.00000   0.00000   0.00000   0.00000   0.00000   0.00000   0.00000   0.00000 ...
   0.00000   0.00000   2.00499   0.00000   0.00000  -0.00482   0.00000   0.00000   0.00000   0.00000   0.00000  -0.00176 ...
   0.00000   0.00000   0.00000   2.00499   0.00000   0.00000  -0.00482   0.00000  -0.00176   0.00000   0.00000   0.00000 ...
   0.00000   0.00000   0.00000   0.00000   2.00499   0.00000   0.00000  -0.00482   0.00000  -0.00176   0.00000   0.00000 ...
   0.00000   0.00000  -0.00482   0.00000   0.00000   0.00024   0.00000   0.00000   0.00000   0.00000   0.00000   0.00015 ...
   0.00000   0.00000   0.00000  -0.00482   0.00000   0.00000   0.00024   0.00000   0.00015   0.00000   0.00000   0.00000 ...
   0.00000   0.00000   0.00000   0.00000  -0.00482   0.00000   0.00000   0.00024   0.00000   0.00015   0.00000   0.00000 ...
   0.00000   0.00000   0.00000  -0.00176   0.00000   0.00000   0.00015   0.00000   0.12695   0.00000   0.00000   0.00000 ...
   0.00000   0.00000   0.00000   0.00000  -0.00176   0.00000   0.00000   0.00015   0.00000   0.12695   0.00000   0.00000 ...
   0.00000   0.00000   0.00000   0.00000   0.00000   0.00000   0.00000   0.00000   0.00000   0.00000   0.09217   0.00000 ...
   0.00000   0.00000  -0.00176   0.00000   0.00000   0.00015   0.00000   0.00000   0.00000   0.00000   0.00000   0.12695 ...
   ...  only 12  components have been written...
 Atom #  9
   1.99776  -0.04381   0.00000   0.00000   0.00000   0.00000   0.00000   0.00000   0.00000   0.00000   0.00000   0.00000 ...
  -0.04381   1.14900   0.00000   0.00000   0.00000   0.00000   0.00000   0.00000   0.00000   0.00000   0.00000   0.00000 ...
   0.00000   0.00000   1.98048   0.00000   0.00000  -0.11608   0.00000   0.00000   0.00000   0.00000   0.00000   0.00000 ...
   0.00000   0.00000   0.00000   1.98048   0.00000   0.00000  -0.11608   0.00000   0.00000   0.00000   0.00000   0.00000 ...
   0.00000   0.00000   0.00000   0.00000   1.98048   0.00000   0.00000  -0.11608   0.00000   0.00000   0.00000   0.00000 ...
   0.00000   0.00000  -0.11608   0.00000   0.00000   1.90650   0.00000   0.00000   0.00000   0.00000   0.00000   0.00000 ...
   0.00000   0.00000   0.00000  -0.11608   0.00000   0.00000   1.90650   0.00000   0.00000   0.00000   0.00000   0.00000 ...
   0.00000   0.00000   0.00000   0.00000  -0.11608   0.00000   0.00000   1.90650   0.00000   0.00000   0.00000   0.00000 ...
   0.00000   0.00000   0.00000   0.00000   0.00000   0.00000   0.00000   0.00000   0.66250   0.00000   0.00000   0.00000 ...
   0.00000   0.00000   0.00000   0.00000   0.00000   0.00000   0.00000   0.00000   0.00000   0.66250   0.00000   0.00000 ...
   0.00000   0.00000   0.00000   0.00000   0.00000   0.00000   0.00000   0.00000   0.00000   0.00000   1.76583   0.00000 ...
   0.00000   0.00000   0.00000   0.00000   0.00000   0.00000   0.00000   0.00000   0.00000   0.00000   0.00000   0.66250 ...
   ...  only 12  components have been written...



---OUTPUT-----------------------------------------------------------------------

 Cartesian coordinates (xcart) [bohr]
  4.93891921825341E+00  4.93891921825341E+00  4.93891921825342E+00
  1.48167576547602E+01  1.48167576547602E+01  1.48167576547602E+01
  9.87783843650683E+00  9.87783843650683E+00  5.10572410839943E+00
  9.87783843650683E+00  9.87783843650683E+00  1.46499527646142E+01
  1.46499527646142E+01  9.87783843650683E+00  9.87783843650683E+00
  9.87783843650683E+00  1.46499527646142E+01  9.87783843650683E+00
  9.87783843650683E+00  5.10572410839943E+00  9.87783843650683E+00
  5.10572410839943E+00  9.87783843650683E+00  9.87783843650683E+00
  3.80578055161366E-18 -4.63494627879205E-18 -6.12489606442517E-18
 Reduced coordinates (xred)
  2.50000000000000E-01  2.50000000000000E-01  2.50000000000000E-01
  7.50000000000000E-01  7.50000000000000E-01  7.50000000000000E-01
  2.58443390283118E-01  2.58443390283118E-01  7.41556609716882E-01
  7.41556609716883E-01  7.41556609716883E-01  2.58443390283117E-01
  2.58443390283118E-01  7.41556609716883E-01  7.41556609716883E-01
  7.41556609716883E-01  2.58443390283118E-01  7.41556609716883E-01
  2.58443390283118E-01  7.41556609716882E-01  2.58443390283118E-01
  7.41556609716882E-01  2.58443390283118E-01  2.58443390283118E-01
 -7.37287969855773E-19  1.17223559631306E-19  2.68061194323378E-19
 Cartesian forces (fcart) [Ha/bohr]; max,rms= 1.41626E-02 6.67633E-03 (free atoms)
  6.97842125641499E-27  1.69174085532764E-19 -9.63735822705260E-20
  2.09352637692450E-26  1.69174071575921E-19 -9.63735543568410E-20
 -1.07951856978192E-18  1.24869264135784E-18  1.41626288321532E-02
  1.07951856978192E-18 -9.10344498205996E-19 -1.41626288321532E-02
 -1.41626288321532E-02 -9.10344498205996E-19  9.83145043338761E-19
 -2.12156831793514E-19 -1.41626288321532E-02  1.15783305350358E-19
  2.12156831793514E-19  1.41626288321532E-02 -3.08530358236670E-19
  1.41626288321532E-02  3.81330903369435E-19 -3.08530358236670E-19
 -0.00000000000000E+00  1.69174071575921E-19 -9.63735264431559E-20
 Reduced forces (fred)
 -7.19111609320775E-19  9.51962606283937E-19 -1.67107435346815E-18
 -7.19111747184211E-19  9.51962192693631E-19 -1.67107435346815E-18
 -1.39896159440223E-01 -1.39896159440223E-01 -1.67107414667299E-18
  1.39896159440223E-01  1.39896159440223E-01 -1.67107414667299E-18
 -7.19112022911081E-19  1.39896159440223E-01  1.39896159440223E-01
  1.39896159440223E-01  9.51962123761913E-19  1.39896159440223E-01
 -1.39896159440223E-01  9.51962123761913E-19 -1.39896159440223E-01
 -7.19112022911082E-19 -1.39896159440223E-01 -1.39896159440223E-01
 -7.19112022911082E-19  9.51962123761913E-19 -1.67107414667299E-18
 Total energy (etotal) [Ha]= -1.58696708890733E+02

 Difference of energy with previous step (new-old):
           Absolute (Ha)=-6.72955E-02
           Relative     =-4.24141E-04

--- Iteration: (   4/1000) Internal Cycle: (1/1)
--------------------------------------------------------------------------------

---SELF-CONSISTENT-FIELD CONVERGENCE--------------------------------------------

--- !BeginCycle
iteration_state: {dtset: 1, itime: 4, icycle: 1, }
solver: {iscf: 17, nstep: 2500, nline: 4, wfoptalg: 10, }
tolerances: {toldff: 1.00E-08, }
...

     iter   Etot(hartree)      deltaE(h)  residm     nres2    diffor    maxfor
 ETOT  1  -158.74147348453    -1.587E+02 1.122E-04 6.588E+00 2.150E-01 2.291E-01
 ETOT  2  -158.70358524328     3.789E-02 3.789E-03 1.416E+00 2.388E-01 9.670E-03
 ETOT  3  -158.69990544394     3.680E-03 4.884E-04 8.517E-02 4.022E-02 3.055E-02
 ETOT  4  -158.69965601939     2.494E-04 3.712E-04 1.042E-02 2.689E-02 3.658E-03
 ETOT  5  -158.69969954591    -4.353E-05 5.946E-05 4.445E-03 4.089E-04 3.249E-03
 ETOT  6  -158.69969750287     2.043E-06 5.301E-05 1.148E-03 1.307E-03 1.942E-03
 ETOT  7  -158.69969529773     2.205E-06 9.191E-06 1.536E-04 5.642E-05 1.998E-03
 ETOT  8  -158.69969565098    -3.532E-07 9.309E-06 1.129E-05 1.329E-04 2.131E-03
 ETOT  9  -158.69969564642     4.560E-09 1.642E-06 3.411E-06 1.023E-04 2.029E-03
 ETOT 10  -158.69969565082    -4.405E-09 1.726E-06 5.770E-08 1.884E-05 2.010E-03
 ETOT 11  -158.69969566293    -1.210E-08 3.125E-07 7.566E-09 4.859E-06 2.005E-03
 ETOT 12  -158.69969566880    -5.876E-09 3.377E-07 1.524E-09 3.079E-06 2.008E-03
 ETOT 13  -158.69969567462    -5.817E-09 6.100E-08 1.157E-10 1.092E-06 2.007E-03
 ETOT 14  -158.69969567647    -1.849E-09 6.704E-08 1.589E-11 1.339E-07 2.007E-03
 ETOT 15  -158.69969567899    -2.526E-09 1.210E-08 4.435E-12 5.900E-08 2.007E-03
 ETOT 16  -158.69969568106    -2.064E-09 1.346E-08 1.492E-12 1.798E-08 2.007E-03
 ETOT 17  -158.69969568254    -1.486E-09 3.823E-09 4.663E-13 7.987E-09 2.007E-03
 ETOT 18  -158.69969568357    -1.030E-09 2.722E-09 1.008E-13 2.292E-09 2.007E-03

 At SCF step   18, forces are converged : 
  for the second time, max diff in force=  2.292E-09 < toldff=  1.000E-08

 Cartesian components of stress tensor (hartree/bohr^3)
  sigma(1 1)= -4.21042991E-04  sigma(3 2)=  0.00000000E+00
  sigma(2 2)= -4.21042991E-04  sigma(3 1)=  0.00000000E+00
  sigma(3 3)= -4.21042991E-04  sigma(2 1)=  0.00000000E+00


--- !ResultsGS
iteration_state: {dtset: 1, itime: 4, icycle: 1, }
comment   : Summary of ground state results
lattice_vectors:
- [  0.0000000,   9.8778384,   9.8778384, ]
- [  9.8778384,   0.0000000,   9.8778384, ]
- [  9.8778384,   9.8778384,   0.0000000, ]
lattice_lengths: [  13.96937,   13.96937,   13.96937, ]
lattice_angles: [ 60.000,  60.000,  60.000, ] # degrees, (23, 13, 12)
lattice_volume:   1.9275948E+03
convergence: {deltae: -1.030E-09, res2:  1.008E-13, residm:  2.722E-09, diffor:  2.292E-09, }
etotal    :  -1.58699696E+02
entropy   :   0.00000000E+00
fermie    :  -5.13893265E-02
cartesian_stress_tensor: # hartree/bohr^3
- [ -4.21042991E-04,   0.00000000E+00,   0.00000000E+00, ]
- [  0.00000000E+00,  -4.21042991E-04,   0.00000000E+00, ]
- [  0.00000000E+00,   0.00000000E+00,  -4.21042991E-04, ]
pressure_GPa:   1.2388E+01
xred      :
- [  2.5000E-01,   2.5000E-01,   2.5000E-01, Cs]
- [  7.5000E-01,   7.5000E-01,   7.5000E-01, Cs]
- [  2.6158E-01,   2.6158E-01,   7.3842E-01,  I]
- [  7.3842E-01,   7.3842E-01,   2.6158E-01,  I]
- [  2.6158E-01,   7.3842E-01,   7.3842E-01,  I]
- [  7.3842E-01,   2.6158E-01,   7.3842E-01,  I]
- [  2.6158E-01,   7.3842E-01,   2.6158E-01,  I]
- [  7.3842E-01,   2.6158E-01,   2.6158E-01,  I]
- [ -9.1619E-19,   1.3469E-19,   4.0130E-19, Zr]
cartesian_forces: # hartree/bohr
- [  1.11654740E-25,  -7.95935193E-21,  -3.34964220E-25, ]
- [ -3.34964220E-25,  -7.95935193E-21,   1.11654740E-25, ]
- [ -9.84723154E-20,   9.78302569E-20,   2.00697772E-03, ]
- [  9.84723154E-20,  -1.13749184E-19,  -2.00697772E-03, ]
- [ -2.00697772E-03,  -7.95946359E-20,   7.16351723E-20, ]
- [  4.13995278E-19,  -2.00697772E-03,  -4.13995278E-19, ]
- [ -4.13995278E-19,   2.00697772E-03,   4.13995278E-19, ]
- [  2.00697772E-03,   6.36757087E-20,  -7.16351723E-20, ]
- [ -0.00000000E+00,  -7.95946359E-21,  -2.67490270E-36, ]
force_length_stats: {min:   7.95935194E-21, max:   2.00697772E-03, mean:   1.33798514E-03, }
...

 Integrated electronic density in atomic spheres:
 ------------------------------------------------
 Atom  Sphere_radius  Integrated_density
    1        2.20660          5.40051644
    2        2.20660          5.40051644
    3        2.30022          4.07599220
    4        2.30022          4.07599220
    5        2.30022          4.07599220
    6        2.30022          4.07599220
    7        2.30022          4.07599220
    8        2.30022          4.07599220
    9        2.21000          8.99133619

 PAW TEST:
 ==== Compensation charge inside spheres ============
 The following values must be close to each other ...
 Compensation charge over spherical meshes =     -5.224675005431601
 Compensation charge over fine fft grid    =     -5.224673527982658

 ==== Results concerning PAW augmentation regions ====

 Total pseudopotential strength Dij (hartree):
 Atom #  1
   0.43185  -0.14304   0.00000   0.00000   0.00000   0.00000   0.00000   0.00000   0.00000   0.00000   0.00000   0.00000 ...
  -0.14304   0.04304   0.00000   0.00000   0.00000   0.00000   0.00000   0.00000   0.00000   0.00000   0.00000   0.00000 ...
   0.00000   0.00000  -0.09247   0.00000   0.00000  -0.16730   0.00000   0.00000   0.00000   0.00000   0.00000   0.00000 ...
   0.00000   0.00000   0.00000  -0.09247   0.00000   0.00000  -0.16730   0.00000   0.00000   0.00000   0.00000   0.00000 ...
   0.00000   0.00000   0.00000   0.00000  -0.09247   0.00000   0.00000  -0.16730   0.00000   0.00000   0.00000   0.00000 ...
   0.00000   0.00000  -0.16730   0.00000   0.00000   0.40162   0.00000   0.00000   0.00000   0.00000   0.00000  -0.00000 ...
   0.00000   0.00000   0.00000  -0.16730   0.00000   0.00000   0.40162   0.00000  -0.00000   0.00000   0.00000   0.00000 ...
   0.00000   0.00000   0.00000   0.00000  -0.16730   0.00000   0.00000   0.40162   0.00000  -0.00000   0.00000   0.00000 ...
   0.00000   0.00000   0.00000   0.00000   0.00000   0.00000  -0.00000   0.00000   0.00538   0.00000   0.00000   0.00000 ...
   0.00000   0.00000   0.00000   0.00000   0.00000   0.00000   0.00000  -0.00000   0.00000   0.00538   0.00000   0.00000 ...
   0.00000   0.00000   0.00000   0.00000   0.00000   0.00000   0.00000   0.00000   0.00000   0.00000   0.00538   0.00000 ...
   0.00000   0.00000   0.00000   0.00000   0.00000  -0.00000   0.00000   0.00000   0.00000   0.00000   0.00000   0.00538 ...
   ...  only 12  components have been written...
 Atom #  9
   3.06175  -0.89158   0.00000   0.00000   0.00000   0.00000   0.00000   0.00000   0.00000   0.00000   0.00000   0.00000 ...
  -0.89158   0.26638   0.00000   0.00000   0.00000   0.00000   0.00000   0.00000   0.00000   0.00000   0.00000   0.00000 ...
   0.00000   0.00000   0.27157   0.00000   0.00000  -0.05541   0.00000   0.00000   0.00000   0.00000   0.00000   0.00000 ...
   0.00000   0.00000   0.00000   0.27157   0.00000   0.00000  -0.05541   0.00000   0.00000   0.00000   0.00000   0.00000 ...
   0.00000   0.00000   0.00000   0.00000   0.27157   0.00000   0.00000  -0.05541   0.00000   0.00000   0.00000   0.00000 ...
   0.00000   0.00000  -0.05541   0.00000   0.00000   0.01517   0.00000   0.00000   0.00000   0.00000   0.00000   0.00000 ...
   0.00000   0.00000   0.00000  -0.05541   0.00000   0.00000   0.01517   0.00000   0.00000   0.00000   0.00000   0.00000 ...
   0.00000   0.00000   0.00000   0.00000  -0.05541   0.00000   0.00000   0.01517   0.00000   0.00000   0.00000   0.00000 ...
   0.00000   0.00000   0.00000   0.00000   0.00000   0.00000   0.00000   0.00000  -0.01052   0.00000   0.00000   0.00000 ...
   0.00000   0.00000   0.00000   0.00000   0.00000   0.00000   0.00000   0.00000   0.00000  -0.01052   0.00000   0.00000 ...
   0.00000   0.00000   0.00000   0.00000   0.00000   0.00000   0.00000   0.00000   0.00000   0.00000  -0.01050   0.00000 ...
   0.00000   0.00000   0.00000   0.00000   0.00000   0.00000   0.00000   0.00000   0.00000   0.00000   0.00000  -0.01052 ...
   ...  only 12  components have been written...


 Augmentation waves occupancies Rhoij:
 Atom #  1
   1.99983  -0.00847   0.00000   0.00000   0.00000   0.00000   0.00000   0.00000   0.00000   0.00000   0.00000   0.00000 ...
  -0.00847   0.29671   0.00000   0.00000   0.00000   0.00000   0.00000   0.00000   0.00000   0.00000   0.00000   0.00000 ...
   0.00000   0.00000   2.00503   0.00000   0.00000  -0.00482   0.00000   0.00000   0.00000   0.00000   0.00000  -0.00136 ...
   0.00000   0.00000   0.00000   2.00503   0.00000   0.00000  -0.00482   0.00000  -0.00136   0.00000   0.00000   0.00000 ...
   0.00000   0.00000   0.00000   0.00000   2.00503   0.00000   0.00000  -0.00482   0.00000  -0.00136   0.00000   0.00000 ...
   0.00000   0.00000  -0.00482   0.00000   0.00000   0.00024   0.00000   0.00000   0.00000   0.00000   0.00000   0.00015 ...
   0.00000   0.00000   0.00000  -0.00482   0.00000   0.00000   0.00024   0.00000   0.00015   0.00000   0.00000   0.00000 ...
   0.00000   0.00000   0.00000   0.00000  -0.00482   0.00000   0.00000   0.00024   0.00000   0.00015   0.00000   0.00000 ...
   0.00000   0.00000   0.00000  -0.00136   0.00000   0.00000   0.00015   0.00000   0.12707   0.00000   0.00000   0.00000 ...
   0.00000   0.00000   0.00000   0.00000  -0.00136   0.00000   0.00000   0.00015   0.00000   0.12707   0.00000   0.00000 ...
   0.00000   0.00000   0.00000   0.00000   0.00000   0.00000   0.00000   0.00000   0.00000   0.00000   0.09210   0.00000 ...
   0.00000   0.00000  -0.00136   0.00000   0.00000   0.00015   0.00000   0.00000   0.00000   0.00000   0.00000   0.12707 ...
   ...  only 12  components have been written...
 Atom #  9
   1.99680  -0.04726   0.00000   0.00000   0.00000   0.00000   0.00000   0.00000   0.00000   0.00000   0.00000   0.00000 ...
  -0.04726   1.11875   0.00000   0.00000   0.00000   0.00000   0.00000   0.00000   0.00000   0.00000   0.00000   0.00000 ...
   0.00000   0.00000   1.97815   0.00000   0.00000  -0.12961   0.00000   0.00000   0.00000   0.00000   0.00000   0.00000 ...
   0.00000   0.00000   0.00000   1.97815   0.00000   0.00000  -0.12961   0.00000   0.00000   0.00000   0.00000   0.00000 ...
   0.00000   0.00000   0.00000   0.00000   1.97815   0.00000   0.00000  -0.12961   0.00000   0.00000   0.00000   0.00000 ...
   0.00000   0.00000  -0.12961   0.00000   0.00000   1.80033   0.00000   0.00000   0.00000   0.00000   0.00000   0.00000 ...
   0.00000   0.00000   0.00000  -0.12961   0.00000   0.00000   1.80033   0.00000   0.00000   0.00000   0.00000   0.00000 ...
   0.00000   0.00000   0.00000   0.00000  -0.12961   0.00000   0.00000   1.80033   0.00000   0.00000   0.00000   0.00000 ...
   0.00000   0.00000   0.00000   0.00000   0.00000   0.00000   0.00000   0.00000   0.62459   0.00000   0.00000   0.00000 ...
   0.00000   0.00000   0.00000   0.00000   0.00000   0.00000   0.00000   0.00000   0.00000   0.62459   0.00000   0.00000 ...
   0.00000   0.00000   0.00000   0.00000   0.00000   0.00000   0.00000   0.00000   0.00000   0.00000   1.65786   0.00000 ...
   0.00000   0.00000   0.00000   0.00000   0.00000   0.00000   0.00000   0.00000   0.00000   0.00000   0.00000   0.62459 ...
   ...  only 12  components have been written...



---OUTPUT-----------------------------------------------------------------------

 Cartesian coordinates (xcart) [bohr]
  4.93891921825341E+00  4.93891921825341E+00  4.93891921825342E+00
  1.48167576547602E+01  1.48167576547602E+01  1.48167576547602E+01
  9.87783843650683E+00  9.87783843650683E+00  5.16765431365349E+00
  9.87783843650683E+00  9.87783843650683E+00  1.45880225593602E+01
  1.45880225593602E+01  9.87783843650683E+00  9.87783843650683E+00
  9.87783843650683E+00  1.45880225593602E+01  9.87783843650683E+00
  9.87783843650683E+00  5.16765431365349E+00  9.87783843650683E+00
  5.16765431365349E+00  9.87783843650683E+00  9.87783843650683E+00
  5.29447268829374E-18 -5.08599904740077E-18 -7.71948243331984E-18
 Reduced coordinates (xred)
  2.50000000000000E-01  2.50000000000000E-01  2.50000000000000E-01
  7.50000000000000E-01  7.50000000000000E-01  7.50000000000000E-01
  2.61578195820388E-01  2.61578195820389E-01  7.38421804179612E-01
  7.38421804179612E-01  7.38421804179612E-01  2.61578195820388E-01
  2.61578195820388E-01  7.38421804179612E-01  7.38421804179612E-01
  7.38421804179612E-01  2.61578195820388E-01  7.38421804179612E-01
  2.61578195820389E-01  7.38421804179612E-01  2.61578195820389E-01
  7.38421804179612E-01  2.61578195820389E-01  2.61578195820388E-01
 -9.16190029091789E-19  1.34694919312514E-19  4.01300149074742E-19
 Cartesian forces (fcart) [Ha/bohr]; max,rms= 2.00698E-03 9.46098E-04 (free atoms)
  1.11654740102640E-25 -7.95935193427910E-21 -3.34964220310595E-25
 -3.34964220307920E-25 -7.95935193427910E-21  1.11654740099965E-25
 -9.84723154422023E-20  9.78302569005497E-20  2.00697771742390E-03
  9.84723154422023E-20 -1.13749184078588E-19 -2.00697771742390E-03
 -2.00697771742390E-03 -7.95946358901921E-20  7.16351723011728E-20
  4.13995277748921E-19 -2.00697771742390E-03 -4.13995277748921E-19
 -4.13995277748921E-19  2.00697771742390E-03  4.13995277748921E-19
  2.00697771742390E-03  6.36757087121536E-20 -7.16351723011728E-20
 -0.00000000000000E+00 -7.95946358901921E-21 -2.67490270053783E-36
 Reduced forces (fred)
  7.86245011885573E-20  2.20581496683450E-24  7.86200895586237E-20
  7.86200895586237E-20  2.20581496683450E-24  7.86245011885573E-20
 -1.98246016383825E-02 -1.98246016383825E-02  6.34215054122351E-21
  1.98246016383825E-02  1.98246016383825E-02  1.50902440205957E-19
  7.86222953735904E-20  1.98246016383825E-02  1.98246016383825E-02
  1.98246016383825E-02 -2.48096874047414E-34  1.98246016383825E-02
 -1.98246016383825E-02  2.48096874047414E-34 -1.98246016383825E-02
  7.86222953735905E-20 -1.98246016383825E-02 -1.98246016383825E-02
  7.86222953735905E-20  2.64222567092885E-35  7.86222953735905E-20
 Total energy (etotal) [Ha]= -1.58699695683574E+02

 Difference of energy with previous step (new-old):
           Absolute (Ha)=-2.98679E-03
           Relative     =-1.88206E-05

--- Iteration: (   5/1000) Internal Cycle: (1/1)
--------------------------------------------------------------------------------

---SELF-CONSISTENT-FIELD CONVERGENCE--------------------------------------------

--- !BeginCycle
iteration_state: {dtset: 1, itime: 5, icycle: 1, }
solver: {iscf: 17, nstep: 2500, nline: 4, wfoptalg: 10, }
tolerances: {toldff: 1.00E-08, }
...

     iter   Etot(hartree)      deltaE(h)  residm     nres2    diffor    maxfor
 ETOT  1  -158.70090586638    -1.587E+02 2.990E-06 1.822E-01 3.564E-02 3.765E-02
 ETOT  2  -158.69989923712     1.007E-03 4.658E-06 4.750E-02 4.049E-02 2.837E-03
 ETOT  3  -158.69976129344     1.379E-04 9.334E-06 1.882E-03 7.115E-03 4.278E-03
 ETOT  4  -158.69975765469     3.639E-06 9.329E-07 2.860E-04 4.032E-03 2.458E-04
 ETOT  5  -158.69975868828    -1.034E-06 3.353E-07 1.197E-04 8.050E-05 3.263E-04
 ETOT  6  -158.69975862913     5.915E-08 1.955E-07 2.957E-05 2.827E-04 4.362E-05
 ETOT  7  -158.69975858374     4.539E-08 6.097E-08 3.848E-06 1.224E-05 5.586E-05
 ETOT  8  -158.69975861340    -2.966E-08 5.215E-08 2.100E-07 6.129E-06 6.199E-05
 ETOT  9  -158.69975861360    -1.967E-10 1.384E-08 8.770E-08 1.071E-05 5.128E-05
 ETOT 10  -158.69975861350     9.581E-11 9.936E-09 1.374E-09 3.871E-06 4.741E-05
 ETOT 11  -158.69975861433    -8.235E-10 2.581E-09 1.437E-10 9.614E-08 4.750E-05
 ETOT 12  -158.69975861476    -4.333E-10 2.149E-09 2.558E-11 1.013E-07 4.761E-05
 ETOT 13  -158.69975861529    -5.308E-10 5.226E-10 1.223E-12 6.776E-08 4.754E-05
 ETOT 14  -158.69975861559    -3.020E-10 5.113E-10 1.667E-13 3.364E-09 4.754E-05
 ETOT 15  -158.69975861580    -2.075E-10 1.201E-10 7.052E-14 6.104E-09 4.754E-05

 At SCF step   15, forces are converged : 
  for the second time, max diff in force=  6.104E-09 < toldff=  1.000E-08

 Cartesian components of stress tensor (hartree/bohr^3)
  sigma(1 1)= -4.17023246E-04  sigma(3 2)=  0.00000000E+00
  sigma(2 2)= -4.17023246E-04  sigma(3 1)=  0.00000000E+00
  sigma(3 3)= -4.17023246E-04  sigma(2 1)=  0.00000000E+00


--- !ResultsGS
iteration_state: {dtset: 1, itime: 5, icycle: 1, }
comment   : Summary of ground state results
lattice_vectors:
- [  0.0000000,   9.8778384,   9.8778384, ]
- [  9.8778384,   0.0000000,   9.8778384, ]
- [  9.8778384,   9.8778384,   0.0000000, ]
lattice_lengths: [  13.96937,   13.96937,   13.96937, ]
lattice_angles: [ 60.000,  60.000,  60.000, ] # degrees, (23, 13, 12)
lattice_volume:   1.9275948E+03
convergence: {deltae: -2.075E-10, res2:  7.052E-14, residm:  1.201E-10, diffor:  6.104E-09, }
etotal    :  -1.58699759E+02
entropy   :   0.00000000E+00
fermie    :  -5.11359553E-02
cartesian_stress_tensor: # hartree/bohr^3
- [ -4.17023246E-04,   0.00000000E+00,   0.00000000E+00, ]
- [  0.00000000E+00,  -4.17023246E-04,   0.00000000E+00, ]
- [  0.00000000E+00,   0.00000000E+00,  -4.17023246E-04, ]
pressure_GPa:   1.2269E+01
xred      :
- [  2.5000E-01,   2.5000E-01,   2.5000E-01, Cs]
- [  7.5000E-01,   7.5000E-01,   7.5000E-01, Cs]
- [  2.6210E-01,   2.6210E-01,   7.3790E-01,  I]
- [  7.3790E-01,   7.3790E-01,   2.6210E-01,  I]
- [  2.6210E-01,   7.3790E-01,   7.3790E-01,  I]
- [  7.3790E-01,   2.6210E-01,   7.3790E-01,  I]
- [  2.6210E-01,   7.3790E-01,   2.6210E-01,  I]
- [  7.3790E-01,   2.6210E-01,   2.6210E-01,  I]
- [  9.2618E-22,   4.7166E-22,  -4.1448E-22, Zr]
cartesian_forces: # hartree/bohr
- [ -1.50550139E-21,  -2.33851973E-23,  -1.42799457E-22, ]
- [ -1.50583635E-21,  -2.28269236E-23,  -1.43357731E-22, ]
- [ -3.00049335E-21,   1.47171842E-21,   4.75412511E-05, ]
- [  8.22090132E-21,  -9.74967625E-21,  -4.75412511E-05, ]
- [ -4.75412511E-05,  -1.51759558E-21,   1.35152258E-21, ]
- [ -8.48854713E-21,  -4.75412511E-05,   6.83957636E-21, ]
- [ -1.29938915E-21,   4.75412511E-05,  -3.49581626E-22, ]
- [  4.75412511E-05,   1.83508627E-22,  -3.49581626E-22, ]
- [ -1.50583635E-21,  -2.29385783E-23,  -1.43134421E-22, ]
force_length_stats: {min:   1.51243941E-21, max:   4.75412511E-05, mean:   3.16941674E-05, }
...

 Integrated electronic density in atomic spheres:
 ------------------------------------------------
 Atom  Sphere_radius  Integrated_density
    1        2.20660          5.40052816
    2        2.20660          5.40052816
    3        2.30022          4.07377304
    4        2.30022          4.07377304
    5        2.30022          4.07377304
    6        2.30022          4.07377304
    7        2.30022          4.07377304
    8        2.30022          4.07377304
    9        2.21000          8.98576945

 PAW TEST:
 ==== Compensation charge inside spheres ============
 The following values must be close to each other ...
 Compensation charge over spherical meshes =     -5.225609459471764
 Compensation charge over fine fft grid    =     -5.225607947150452

 ==== Results concerning PAW augmentation regions ====

 Total pseudopotential strength Dij (hartree):
 Atom #  1
   0.43182  -0.14303   0.00000   0.00000   0.00000   0.00000   0.00000   0.00000   0.00000   0.00000   0.00000   0.00000 ...
  -0.14303   0.04304   0.00000   0.00000   0.00000   0.00000   0.00000   0.00000   0.00000   0.00000   0.00000   0.00000 ...
   0.00000   0.00000  -0.09247   0.00000   0.00000  -0.16730   0.00000   0.00000   0.00000   0.00000   0.00000   0.00000 ...
   0.00000   0.00000   0.00000  -0.09247   0.00000   0.00000  -0.16730   0.00000   0.00000   0.00000   0.00000   0.00000 ...
   0.00000   0.00000   0.00000   0.00000  -0.09247   0.00000   0.00000  -0.16730   0.00000   0.00000   0.00000   0.00000 ...
   0.00000   0.00000  -0.16730   0.00000   0.00000   0.40161   0.00000   0.00000   0.00000   0.00000   0.00000  -0.00000 ...
   0.00000   0.00000   0.00000  -0.16730   0.00000   0.00000   0.40161   0.00000  -0.00000   0.00000   0.00000   0.00000 ...
   0.00000   0.00000   0.00000   0.00000  -0.16730   0.00000   0.00000   0.40161   0.00000  -0.00000   0.00000   0.00000 ...
   0.00000   0.00000   0.00000   0.00000   0.00000   0.00000  -0.00000   0.00000   0.00538   0.00000   0.00000   0.00000 ...
   0.00000   0.00000   0.00000   0.00000   0.00000   0.00000   0.00000  -0.00000   0.00000   0.00538   0.00000   0.00000 ...
   0.00000   0.00000   0.00000   0.00000   0.00000   0.00000   0.00000   0.00000   0.00000   0.00000   0.00538   0.00000 ...
   0.00000   0.00000   0.00000   0.00000   0.00000  -0.00000   0.00000   0.00000   0.00000   0.00000   0.00000   0.00538 ...
   ...  only 12  components have been written...
 Atom #  9
   3.06213  -0.89169   0.00000   0.00000   0.00000   0.00000   0.00000   0.00000   0.00000   0.00000   0.00000   0.00000 ...
  -0.89169   0.26642   0.00000   0.00000   0.00000   0.00000   0.00000   0.00000   0.00000   0.00000   0.00000   0.00000 ...
   0.00000   0.00000   0.27150   0.00000   0.00000  -0.05539   0.00000   0.00000   0.00000   0.00000   0.00000   0.00000 ...
   0.00000   0.00000   0.00000   0.27150   0.00000   0.00000  -0.05539   0.00000   0.00000   0.00000   0.00000   0.00000 ...
   0.00000   0.00000   0.00000   0.00000   0.27150   0.00000   0.00000  -0.05539   0.00000   0.00000   0.00000   0.00000 ...
[...]
       0.250000000000      0.250000000000      0.250000000000
       0.750000000000      0.750000000000      0.750000000000
       0.262108330596      0.262108330596      0.737891669404
       0.737891669404      0.737891669404      0.262108330596
       0.262108330596      0.737891669404      0.737891669404
       0.737891669404      0.262108330596      0.737891669404
       0.262108330596      0.737891669404      0.262108330596
       0.737891669404      0.262108330596      0.262108330596
       0.000000000000     -0.000000000000     -0.000000000000
 rms dE/dt=  1.0888E-06; max dE/dt=  1.6332E-06; dE/dt below (all hartree)
    1       0.000000000000      0.000000000000      0.000000000000
    2       0.000000000000     -0.000000000000      0.000000000000
    3      -0.000001633184     -0.000001633184      0.000000000000
    4       0.000001633184      0.000001633184      0.000000000000
    5       0.000000000000      0.000001633184      0.000001633184
    6       0.000001633184      0.000000000000      0.000001633184
    7      -0.000001633184      0.000000000000     -0.000001633184
    8      -0.000000000000     -0.000001633184     -0.000001633184
    9       0.000000000000      0.000000000000      0.000000000000

 cartesian coordinates (angstrom) at end:
    1      2.61356348536685     2.61356348536685     2.61356348536685
    2      7.84069045610054     7.84069045610054     7.84069045610054
    3      5.22712697073370     5.22712697073370     2.74014704822300
    4      5.22712697073370     5.22712697073370     7.71410689324439
    5      7.71410689324439     5.22712697073370     5.22712697073370
    6      5.22712697073370     7.71410689324439     5.22712697073370
    7      5.22712697073369     2.74014704822300     5.22712697073369
    8      2.74014704822300     5.22712697073369     5.22712697073370
    9     -0.00000000000000     0.00000000000000     0.00000000000000

 cartesian forces (hartree/bohr) at end:
    1     -0.00000000000000    -0.00000000000000     0.00000000000000
    2     -0.00000000000000    -0.00000000000000     0.00000000000000
    3      0.00000000000000    -0.00000000000000     0.00000016533819
    4     -0.00000000000000    -0.00000000000000    -0.00000016533819
    5     -0.00000016533819    -0.00000000000000     0.00000000000000
    6     -0.00000000000000    -0.00000016533819     0.00000000000000
    7     -0.00000000000000     0.00000016533819     0.00000000000000
    8      0.00000016533819     0.00000000000000    -0.00000000000000
    9     -0.00000000000000    -0.00000000000000     0.00000000000000
 frms,max,avg= 7.7941171E-08 1.6533819E-07   0.000E+00  0.000E+00  0.000E+00 h/b

 cartesian forces (eV/Angstrom) at end:
    1     -0.00000000000000    -0.00000000000000     0.00000000000000
    2     -0.00000000000000    -0.00000000000000     0.00000000000000
    3      0.00000000000000    -0.00000000000000     0.00000850203097
    4     -0.00000000000000    -0.00000000000000    -0.00000850203097
    5     -0.00000850203097    -0.00000000000000     0.00000000000000
    6     -0.00000000000000    -0.00000850203097     0.00000000000000
    7     -0.00000000000000     0.00000850203097     0.00000000000000
    8      0.00000850203097     0.00000000000000    -0.00000000000000
    9     -0.00000000000000    -0.00000000000000     0.00000000000000
 frms,max,avg= 4.0078958E-06 8.5020310E-06   0.000E+00  0.000E+00  0.000E+00 e/A
 length scales= 16.056750671000 16.056750671000 16.056750671000 bohr
              =  8.496866499105  8.496866499105  8.496866499105 angstroms
 prteigrs : about to open file Cs2TiI6o_EIG
 Fermi (or HOMO) energy (hartree) =  -0.05113   Average Vxc (hartree)=  -0.35180
 Eigenvalues (hartree) for nkpt=  10  k points:
 kpt#   1, nband= 42, wtk=  0.09375, kpt= -0.1250 -0.2500  0.0000 (reduced coord)
  -1.85896   -1.05388   -1.05388   -1.05388   -0.80944   -0.80867   -0.53334   -0.50229
  -0.49658   -0.49635   -0.48469   -0.48344   -0.34047   -0.33917   -0.33657   -0.33365
  -0.33330   -0.33024   -0.23847   -0.19211   -0.18099   -0.17953   -0.17856   -0.16601
  -0.16542   -0.13236   -0.12816   -0.12329   -0.11823   -0.10509   -0.08518   -0.06797
  -0.06788   -0.06214   -0.06152   -0.05283   -0.00143    0.01204    0.01250    0.08980
   0.10282    0.10410
 prteigrs : prtvol=0 or 1, do not print more k-points.


--- !EnergyTerms
iteration_state     : {dtset: 1, itime: 6, icycle: 1, }
comment             : Components of total free energy in Hartree
kinetic             :  4.42895181798107E+01
hartree             :  2.42792582499711E+01
xc                  : -5.74263610858348E+01
Ewald energy        : -1.36241342458697E+02
psp_core            :  2.31738110240272E+01
local_psp           : -7.60921603600049E+01
spherical_terms     :  1.93175178250312E+01
total_energy        : -1.58699758625696E+02
total_energy_eV     : -4.31844005045317E+03
...


--- !EnergyTermsDC
iteration_state     : {dtset: 1, itime: 6, icycle: 1, }
comment             : '"Double-counting" decomposition of free energy'
band_energy         : -2.80952559587324E+01
Ewald energy        : -1.36241342458697E+02
psp_core            :  2.31738110240272E+01
xc_dc               : -4.04440026377966E+01
spherical_terms     :  2.29070313798376E+01
total_energy_dc     : -1.58699758651361E+02
total_energy_dc_eV  : -4.31844005115154E+03
...

 rms coord change=  1.8103E-02   atom, delta coord (reduced):
     1        0.000000000000     -0.000000000000      0.000000000000
     2       -0.000000000000     -0.000000000000     -0.000000000000
     3        0.022171956956      0.022171956956     -0.022171956956
     4       -0.022171956956     -0.022171956956      0.022171956956
     5        0.022171956956     -0.022171956956     -0.022171956956
     6       -0.022171956956      0.022171956956     -0.022171956956
     7        0.022171956956     -0.022171956956      0.022171956956
     8       -0.022171956956      0.022171956956      0.022171956956
     9        0.000000000000     -0.000000000000     -0.000000000000

 Cartesian components of stress tensor (hartree/bohr^3)
  sigma(1 1)= -4.16927278E-04  sigma(3 2)=  0.00000000E+00
  sigma(2 2)= -4.16927278E-04  sigma(3 1)=  0.00000000E+00
  sigma(3 3)= -4.16927278E-04  sigma(2 1)=  0.00000000E+00

-Cartesian components of stress tensor (GPa)         [Pressure=  1.2266E+01 GPa]
- sigma(1 1)= -1.22664219E+01  sigma(3 2)=  0.00000000E+00
- sigma(2 2)= -1.22664219E+01  sigma(3 1)=  0.00000000E+00
- sigma(3 3)= -1.22664219E+01  sigma(2 1)=  0.00000000E+00

== END DATASET(S) ==============================================================
================================================================================
  
 -outvars: echo values of variables after computation  --------
            acell      1.6056750671E+01  1.6056750671E+01  1.6056750671E+01 Bohr
              amu      1.32905430E+02  1.26904470E+02  9.12240000E+01
           diemac      1.20000000E+01
          dilatmx      1.15000000E+00
             ecut      1.60000000E+01 Hartree
           ecutsm      5.00000000E-01 Hartree
           etotal     -1.5869975865E+02
            fcart     -6.9784212564E-27 -4.1805507344E-24  9.0444605639E-25
                      -6.9784212564E-27 -4.2084644194E-24  9.3235974142E-25
                       2.1425185847E-24 -6.3160908978E-24  1.6533819224E-07
                      -2.1425185847E-24 -2.0310537284E-24 -1.6533819224E-07
                      -1.6533819224E-07 -4.5470884794E-24  1.2849406440E-24
                      -3.7351616633E-25 -1.6533819224E-07  1.2849406440E-24
                      -2.1425185847E-24  1.6533819224E-07  3.0539430623E-24
                       1.6533819224E-07  6.9187989031E-24 -1.0180946739E-23
                      -0.0000000000E+00 -4.1735723131E-24  9.1142447765E-25
-          fftalg         112
           ionmov           2
              ixc     -101130
              kpt     -1.25000000E-01 -2.50000000E-01  0.00000000E+00
                      -1.25000000E-01  5.00000000E-01  0.00000000E+00
                      -2.50000000E-01 -3.75000000E-01  0.00000000E+00
                      -1.25000000E-01 -3.75000000E-01  1.25000000E-01
                      -1.25000000E-01  2.50000000E-01  0.00000000E+00
                      -2.50000000E-01  3.75000000E-01  0.00000000E+00
                      -3.75000000E-01  5.00000000E-01  0.00000000E+00
                      -2.50000000E-01  5.00000000E-01  1.25000000E-01
                      -1.25000000E-01  0.00000000E+00  0.00000000E+00
                      -3.75000000E-01  0.00000000E+00  0.00000000E+00
         kptrlatt        4   -4    4     -4    4    4     -4   -4    4
          kptrlen      7.90227075E+01
P           mkmem           3
            natom           9
            nband          42
            ngfft          60      60      60
          ngfftdg          96      96      96
             nkpt          10
            nstep        2500
             nsym          48
            ntime        1000
           ntypat           3
              occ      2.000000  2.000000  2.000000  2.000000  2.000000  2.000000
                       2.000000  2.000000  2.000000  2.000000  2.000000  2.000000
                       2.000000  2.000000  2.000000  2.000000  2.000000  2.000000
                       2.000000  2.000000  2.000000  2.000000  2.000000  2.000000
                       2.000000  2.000000  2.000000  2.000000  2.000000  2.000000
                       2.000000  2.000000  2.000000  2.000000  2.000000  2.000000
                       0.000000  0.000000  0.000000  0.000000  0.000000  0.000000
        optforces           1
        pawecutdg      4.00000000E+01 Hartree
            prtwf           0
            rprim      0.0000000000E+00  6.1518289964E-01  6.1518289964E-01
                       6.1518289964E-01  0.0000000000E+00  6.1518289964E-01
                       6.1518289964E-01  6.1518289964E-01  0.0000000000E+00
           shiftk      5.00000000E-01  5.00000000E-01  5.00000000E-01
          spgroup         225
           strten     -4.1692727762E-04 -4.1692727762E-04 -4.1692727762E-04
                       0.0000000000E+00  0.0000000000E+00  0.0000000000E+00
           symrel      1  0  0   0  1  0   0  0  1      -1  0  0   0 -1  0   0  0 -1
                       0 -1  1   0 -1  0   1 -1  0       0  1 -1   0  1  0  -1  1  0
                      -1  0  0  -1  0  1  -1  1  0       1  0  0   1  0 -1   1 -1  0
                       0  1 -1   1  0 -1   0  0 -1       0 -1  1  -1  0  1   0  0  1
                      -1  0  0  -1  1  0  -1  0  1       1  0  0   1 -1  0   1  0 -1
                       0 -1  1   1 -1  0   0 -1  0       0  1 -1  -1  1  0   0  1  0
                       1  0  0   0  0  1   0  1  0      -1  0  0   0  0 -1   0 -1  0
                       0  1 -1   0  0 -1   1  0 -1       0 -1  1   0  0  1  -1  0  1
                      -1  0  1  -1  1  0  -1  0  0       1  0 -1   1 -1  0   1  0  0
                       0 -1  0   1 -1  0   0 -1  1       0  1  0  -1  1  0   0  1 -1
                       1  0 -1   0  0 -1   0  1 -1      -1  0  1   0  0  1   0 -1  1
                       0  1  0   0  0  1   1  0  0       0 -1  0   0  0 -1  -1  0  0
                       1  0 -1   0  1 -1   0  0 -1      -1  0  1   0 -1  1   0  0  1
                       0 -1  0   0 -1  1   1 -1  0       0  1  0   0  1 -1  -1  1  0
                      -1  0  1  -1  0  0  -1  1  0       1  0 -1   1  0  0   1 -1  0
                       0  1  0   1  0  0   0  0  1       0 -1  0  -1  0  0   0  0 -1
                       0  0 -1   0  1 -1   1  0 -1       0  0  1   0 -1  1  -1  0  1
                       1 -1  0   0 -1  1   0 -1  0      -1  1  0   0  1 -1   0  1  0
                       0  0  1   1  0  0   0  1  0       0  0 -1  -1  0  0   0 -1  0
                      -1  1  0  -1  0  0  -1  0  1       1 -1  0   1  0  0   1  0 -1
                       0  0  1   0  1  0   1  0  0       0  0 -1   0 -1  0  -1  0  0
                       1 -1  0   0 -1  0   0 -1  1      -1  1  0   0  1  0   0  1 -1
                       0  0 -1   1  0 -1   0  1 -1       0  0  1  -1  0  1   0 -1  1
                      -1  1  0  -1  0  1  -1  0  0       1 -1  0   1  0 -1   1  0  0
           toldff      1.00000000E-08
           tolmxf      1.00000000E-05
            typat      1  1  2  2  2  2  2  2  3
           useylm           1
              wtk        0.09375    0.09375    0.09375    0.18750    0.09375    0.09375
                         0.09375    0.18750    0.03125    0.03125
           xangst      2.6135634854E+00  2.6135634854E+00  2.6135634854E+00
                       7.8406904561E+00  7.8406904561E+00  7.8406904561E+00
                       5.2271269707E+00  5.2271269707E+00  2.7401470482E+00
                       5.2271269707E+00  5.2271269707E+00  7.7141068932E+00
                       7.7141068932E+00  5.2271269707E+00  5.2271269707E+00
                       5.2271269707E+00  7.7141068932E+00  5.2271269707E+00
                       5.2271269707E+00  2.7401470482E+00  5.2271269707E+00
                       2.7401470482E+00  5.2271269707E+00  5.2271269707E+00
                      -6.8976960692E-20  6.8199248261E-20  1.0644692881E-19
            xcart      4.9389192183E+00  4.9389192183E+00  4.9389192183E+00
                       1.4816757655E+01  1.4816757655E+01  1.4816757655E+01
                       9.8778384365E+00  9.8778384365E+00  5.1781274850E+00
                       9.8778384365E+00  9.8778384365E+00  1.4577549388E+01
                       1.4577549388E+01  9.8778384365E+00  9.8778384365E+00
                       9.8778384365E+00  1.4577549388E+01  9.8778384365E+00
                       9.8778384365E+00  5.1781274850E+00  9.8778384365E+00
                       5.1781274850E+00  9.8778384365E+00  9.8778384365E+00
                      -1.3034756519E-19  1.2887790168E-19  2.0115554314E-19
             xred      2.5000000000E-01  2.5000000000E-01  2.5000000000E-01
                       7.5000000000E-01  7.5000000000E-01  7.5000000000E-01
                       2.6210833060E-01  2.6210833060E-01  7.3789166940E-01
                       7.3789166940E-01  7.3789166940E-01  2.6210833060E-01
                       2.6210833060E-01  7.3789166940E-01  7.3789166940E-01
                       7.3789166940E-01  2.6210833060E-01  7.3789166940E-01
                       2.6210833060E-01  7.3789166940E-01  2.6210833060E-01
                       7.3789166940E-01  2.6210833060E-01  2.6210833060E-01
                       2.3303732541E-20 -2.9394044103E-21 -1.0256556024E-20
            znucl       55.00000   53.00000   40.00000

================================================================================


- Timing analysis has been suppressed with timopt=0



================================================================================

 Suggested references for the acknowledgment of ABINIT usage.

 The users of ABINIT have little formal obligations with respect to the ABINIT group
 (those specified in the GNU General Public License, http://www.gnu.org/copyleft/gpl.txt).
 However, it is common practice in the scientific literature,
 to acknowledge the efforts of people that have made the research possible.
 In this spirit, please find below suggested citations of work written by ABINIT developers,
 corresponding to implementations inside of ABINIT that you have used in the present run.
 Note also that it will be of great value to readers of publications presenting these results,
 to read papers enabling them to understand the theoretical formalism and details
 of the ABINIT implementation.
 For information on why they are suggested, see also https://docs.abinit.org/theory/acknowledgments.
-
- [1] Implementation of the Projector Augmented-Wave Method in the ABINIT code.
- M. Torrent, F. Jollet, F. Bottin, G. Zerah, and X. Gonze Comput. Mat. Science 42, 337, (2008).
- Comment: PAW calculations. Strong suggestion to cite this paper.
- DOI and bibtex: see https://docs.abinit.org/theory/bibliography/#torrent2008
-
- [2] Libxc: A library of exchange and correlation functionals for density functional theory.
- M.A.L. Marques, M.J.T. Oliveira, T. Burnus, Computer Physics Communications 183, 2227 (2012).
- Comment: to be cited when LibXC is used (negative value of ixc)
- Strong suggestion to cite this paper.
- DOI and bibtex: see https://docs.abinit.org/theory/bibliography/#marques2012
-
- [3] The Abinit project: Impact, environment and recent developments.
- Computer Phys. Comm. 248, 107042 (2020).
- X.Gonze, B. Amadon, G. Antonius, F.Arnardi, L.Baguet, J.-M.Beuken,
- J.Bieder, F.Bottin, J.Bouchet, E.Bousquet, N.Brouwer, F.Bruneval,
- G.Brunin, T.Cavignac, J.-B. Charraud, Wei Chen, M.Cote, S.Cottenier,
- J.Denier, G.Geneste, Ph.Ghosez, M.Giantomassi, Y.Gillet, O.Gingras,
- D.R.Hamann, G.Hautier, Xu He, N.Helbig, N.Holzwarth, Y.Jia, F.Jollet,
- W.Lafargue-Dit-Hauret, K.Lejaeghere, M.A.L.Marques, A.Martin, C.Martins,
- H.P.C. Miranda, F.Naccarato, K. Persson, G.Petretto, V.Planes, Y.Pouillon,
- S.Prokhorenko, F.Ricci, G.-M.Rignanese, A.H.Romero, M.M.Schmitt, M.Torrent,
- M.J.van Setten, B.Van Troeye, M.J.Verstraete, G.Zerah and J.W.Zwanzig
- Comment: the fifth generic paper describing the ABINIT project.
- Note that a version of this paper, that is not formatted for Computer Phys. Comm. 
- is available at https://www.abinit.org/sites/default/files/ABINIT20.pdf .
- The licence allows the authors to put it on the Web.
- DOI and bibtex: see https://docs.abinit.org/theory/bibliography/#gonze2020
-
- [4] ABINIT: Overview, and focus on selected capabilities
- J. Chem. Phys. 152, 124102 (2020).
- A. Romero, D.C. Allan, B. Amadon, G. Antonius, T. Applencourt, L.Baguet,
- J.Bieder, F.Bottin, J.Bouchet, E.Bousquet, F.Bruneval,
- G.Brunin, D.Caliste, M.Cote,
- J.Denier, C. Dreyer, Ph.Ghosez, M.Giantomassi, Y.Gillet, O.Gingras,
- D.R.Hamann, G.Hautier, F.Jollet, G. Jomard,
- A.Martin, 
- H.P.C. Miranda, F.Naccarato, G.Petretto, N.A. Pike, V.Planes,
- S.Prokhorenko, T. Rangel, F.Ricci, G.-M.Rignanese, M.Royo, M.Stengel, M.Torrent,
- M.J.van Setten, B.Van Troeye, M.J.Verstraete, J.Wiktor, J.W.Zwanziger, and X.Gonze.
- Comment: a global overview of ABINIT, with focus on selected capabilities .
- Note that a version of this paper, that is not formatted for J. Chem. Phys 
- is available at https://www.abinit.org/sites/default/files/ABINIT20_JPC.pdf .
- The licence allows the authors to put it on the Web.
- DOI and bibtex: see https://docs.abinit.org/theory/bibliography/#romero2020
-
- [5] Recent developments in the ABINIT software package.
- Computer Phys. Comm. 205, 106 (2016).
- X.Gonze, F.Jollet, F.Abreu Araujo, D.Adams, B.Amadon, T.Applencourt,
- C.Audouze, J.-M.Beuken, J.Bieder, A.Bokhanchuk, E.Bousquet, F.Bruneval
- D.Caliste, M.Cote, F.Dahm, F.Da Pieve, M.Delaveau, M.Di Gennaro,
- B.Dorado, C.Espejo, G.Geneste, L.Genovese, A.Gerossier, M.Giantomassi,
- Y.Gillet, D.R.Hamann, L.He, G.Jomard, J.Laflamme Janssen, S.Le Roux,
- A.Levitt, A.Lherbier, F.Liu, I.Lukacevic, A.Martin, C.Martins,
- M.J.T.Oliveira, S.Ponce, Y.Pouillon, T.Rangel, G.-M.Rignanese,
- A.H.Romero, B.Rousseau, O.Rubel, A.A.Shukri, M.Stankovski, M.Torrent,
- M.J.Van Setten, B.Van Troeye, M.J.Verstraete, D.Waroquier, J.Wiktor,
- B.Xu, A.Zhou, J.W.Zwanziger.
- Comment: the fourth generic paper describing the ABINIT project.
- Note that a version of this paper, that is not formatted for Computer Phys. Comm. 
- is available at https://www.abinit.org/sites/default/files/ABINIT16.pdf .
- The licence allows the authors to put it on the Web.
- DOI and bibtex: see https://docs.abinit.org/theory/bibliography/#gonze2016
-
- Proc.   0 individual time (sec): cpu=        740.1  wall=        740.1

================================================================================

 Calculation completed.
.Delivered   0 WARNINGs and   6 COMMENTs to log file.
+Overall time at end (sec) : cpu=       2960.3  wall=       2960.4
