
.Version 9.2.2 of ABINIT 
.(MPI version, prepared for a x86_64_linux_gnu9.3 computer) 

.Copyright (C) 1998-2020 ABINIT group . 
 ABINIT comes with ABSOLUTELY NO WARRANTY.
 It is free software, and you are welcome to redistribute it
 under certain conditions (GNU General Public License,
 see ~abinit/COPYING or http://www.gnu.org/copyleft/gpl.txt).

 ABINIT is a project of the Universite Catholique de Louvain,
 Corning Inc. and other collaborators, see ~abinit/doc/developers/contributors.txt .
 Please read https://docs.abinit.org/theory/acknowledgments for suggested
 acknowledgments of the ABINIT effort.
 For more information, see https://www.abinit.org .

.Starting date : Sun 27 Nov 2022.
- ( at 23h38 )
  
- input  file    -> Cs2TiI6.in
- output file    -> Cs2TiI6.out
- root for input  files -> Cs2TiI6i
- root for output files -> Cs2TiI6o

- inpspheads : Reading pseudopotential header in XML form from 
-   ../../../Psps_for_tests/ATOMICDATA/Cs.GGA_PBE-JTH.xml
- inpspheads : Reading pseudopotential header in XML form from 
-   ../../../Psps_for_tests/ATOMICDATA/I.GGA_PBE-JTH.xml
- inpspheads : Reading pseudopotential header in XML form from 
-   ../../../Psps_for_tests/ATOMICDATA/Zr.GGA_PBE-JTH.xml
- inpspheads : Reading pseudopotential header in XML form from 
-   ../../../Psps_for_tests/ATOMICDATA/Br.GGA_PBE-JTH.xml

 DATASET    1 : space group I4 m m (#107); Bravais tI (body-center tetrag.)
================================================================================
 Values of the parameters that define the memory need for DATASET  1.
     intxc =       0    ionmov =       0      iscf =      17    lmnmax =      18
     lnmax =       6     mgfft =      54  mpssoang =       3    mqgrid =    3291
     natom =       9  nloc_mem =       2    nspden =       1   nspinor =       1
    nsppol =       1      nsym =       8    n1xccc =       1    ntypat =       4
    occopt =       1   xclevel =       2
-    mband =          42        mffmem =           1         mkmem =          28
       mpw =        6166          nfft =      157464          nkpt =         163
Pmy_natom=         2
 PAW method is used; the additional fine FFT grid is defined by:
   mgfftf=        90    nfftf =    729000
================================================================================
P This job should need less than                     327.469 Mbytes of memory.
  Rough estimation (10% accuracy) of disk space for files :
_ WF disk file :    644.113 Mbytes ; DEN or POT disk file :      5.564 Mbytes.
================================================================================


 DATASET    2 : space group I4 m m (#107); Bravais tI (body-center tetrag.)
================================================================================
 Values of the parameters that define the memory need for DATASET  2.
     intxc =       0    ionmov =       0      iscf =      17    lmnmax =      18
     lnmax =       6     mgfft =      54  mpssoang =       3    mqgrid =    3288
     natom =       9  nloc_mem =       2    nspden =       1   nspinor =       1
    nsppol =       1      nsym =       8    n1xccc =       1    ntypat =       4
    occopt =       1   xclevel =       2
-    mband =          42        mffmem =           1         mkmem =          28
       mpw =        6138          nfft =      157464          nkpt =         163
Pmy_natom=         2
 PAW method is used; the additional fine FFT grid is defined by:
   mgfftf=        90    nfftf =    729000
================================================================================
P This job should need less than                     326.918 Mbytes of memory.
  Rough estimation (10% accuracy) of disk space for files :
_ WF disk file :    641.188 Mbytes ; DEN or POT disk file :      5.564 Mbytes.
================================================================================


 DATASET    3 : space group I4 m m (#107); Bravais tI (body-center tetrag.)
================================================================================
 Values of the parameters that define the memory need for DATASET  3.
     intxc =       0    ionmov =       0      iscf =      17    lmnmax =      18
     lnmax =       6     mgfft =      54  mpssoang =       3    mqgrid =    3285
     natom =       9  nloc_mem =       2    nspden =       1   nspinor =       1
    nsppol =       1      nsym =       8    n1xccc =       1    ntypat =       4
    occopt =       1   xclevel =       2
-    mband =          42        mffmem =           1         mkmem =          28
       mpw =        6120          nfft =      157464          nkpt =         163
Pmy_natom=         2
 PAW method is used; the additional fine FFT grid is defined by:
   mgfftf=        90    nfftf =    729000
================================================================================
P This job should need less than                     326.568 Mbytes of memory.
  Rough estimation (10% accuracy) of disk space for files :
_ WF disk file :    639.307 Mbytes ; DEN or POT disk file :      5.564 Mbytes.
================================================================================


 DATASET    4 : space group I4 m m (#107); Bravais tI (body-center tetrag.)
================================================================================
 Values of the parameters that define the memory need for DATASET  4.
     intxc =       0    ionmov =       0      iscf =      17    lmnmax =      18
     lnmax =       6     mgfft =      54  mpssoang =       3    mqgrid =    3281
     natom =       9  nloc_mem =       2    nspden =       1   nspinor =       1
    nsppol =       1      nsym =       8    n1xccc =       1    ntypat =       4
    occopt =       1   xclevel =       2
-    mband =          42        mffmem =           1         mkmem =          28
       mpw =        6106          nfft =      157464          nkpt =         163
Pmy_natom=         2
 PAW method is used; the additional fine FFT grid is defined by:
   mgfftf=        90    nfftf =    729000
================================================================================
P This job should need less than                     326.299 Mbytes of memory.
  Rough estimation (10% accuracy) of disk space for files :
_ WF disk file :    637.845 Mbytes ; DEN or POT disk file :      5.564 Mbytes.
================================================================================


 DATASET    5 : space group I4 m m (#107); Bravais tI (body-center tetrag.)
================================================================================
 Values of the parameters that define the memory need for DATASET  5.
     intxc =       0    ionmov =       0      iscf =      17    lmnmax =      18
     lnmax =       6     mgfft =      54  mpssoang =       3    mqgrid =    3278
     natom =       9  nloc_mem =       2    nspden =       1   nspinor =       1
    nsppol =       1      nsym =       8    n1xccc =       1    ntypat =       4
    occopt =       1   xclevel =       2
-    mband =          42        mffmem =           1         mkmem =          28
       mpw =        6106          nfft =      157464          nkpt =         163
Pmy_natom=         2
 PAW method is used; the additional fine FFT grid is defined by:
   mgfftf=        90    nfftf =    729000
================================================================================
P This job should need less than                     326.313 Mbytes of memory.
  Rough estimation (10% accuracy) of disk space for files :
_ WF disk file :    637.845 Mbytes ; DEN or POT disk file :      5.564 Mbytes.
================================================================================


 DATASET    6 : space group I4 m m (#107); Bravais tI (body-center tetrag.)
================================================================================
 Values of the parameters that define the memory need for DATASET  6.
     intxc =       0    ionmov =       0      iscf =      17    lmnmax =      18
     lnmax =       6     mgfft =      54  mpssoang =       3    mqgrid =    3275
     natom =       9  nloc_mem =       2    nspden =       1   nspinor =       1
    nsppol =       1      nsym =       8    n1xccc =       1    ntypat =       4
    occopt =       1   xclevel =       2
-    mband =          42        mffmem =           1         mkmem =          28
       mpw =        6056          nfft =      157464          nkpt =         163
Pmy_natom=         2
 PAW method is used; the additional fine FFT grid is defined by:
   mgfftf=        90    nfftf =    729000
================================================================================
P This job should need less than                     325.318 Mbytes of memory.
  Rough estimation (10% accuracy) of disk space for files :
_ WF disk file :    632.622 Mbytes ; DEN or POT disk file :      5.564 Mbytes.
================================================================================


 DATASET    7 : space group I4 m m (#107); Bravais tI (body-center tetrag.)
================================================================================
 Values of the parameters that define the memory need for DATASET  7.
     intxc =       0    ionmov =       0      iscf =      17    lmnmax =      18
     lnmax =       6     mgfft =      54  mpssoang =       3    mqgrid =    3271
     natom =       9  nloc_mem =       2    nspden =       1   nspinor =       1
    nsppol =       1      nsym =       8    n1xccc =       1    ntypat =       4
    occopt =       1   xclevel =       2
-    mband =          42        mffmem =           1         mkmem =          28
       mpw =        6046          nfft =      157464          nkpt =         163
Pmy_natom=         2
 PAW method is used; the additional fine FFT grid is defined by:
   mgfftf=        90    nfftf =    729000
================================================================================
P This job should need less than                     325.129 Mbytes of memory.
  Rough estimation (10% accuracy) of disk space for files :
_ WF disk file :    631.577 Mbytes ; DEN or POT disk file :      5.564 Mbytes.
================================================================================


 DATASET    8 : space group I4 m m (#107); Bravais tI (body-center tetrag.)
================================================================================
 Values of the parameters that define the memory need for DATASET  8.
     intxc =       0    ionmov =       0      iscf =      17    lmnmax =      18
     lnmax =       6     mgfft =      54  mpssoang =       3    mqgrid =    3270
     natom =       9  nloc_mem =       2    nspden =       1   nspinor =       1
    nsppol =       1      nsym =       8    n1xccc =       1    ntypat =       4
    occopt =       1   xclevel =       2
-    mband =          42        mffmem =           1         mkmem =          28
       mpw =        6046          nfft =      157464          nkpt =         163
Pmy_natom=         2
 PAW method is used; the additional fine FFT grid is defined by:
   mgfftf=        90    nfftf =    729000
================================================================================
P This job should need less than                     325.137 Mbytes of memory.
  Rough estimation (10% accuracy) of disk space for files :
_ WF disk file :    631.577 Mbytes ; DEN or POT disk file :      5.564 Mbytes.
================================================================================


 DATASET    9 : space group I4 m m (#107); Bravais tI (body-center tetrag.)
================================================================================
 Values of the parameters that define the memory need for DATASET  9.
     intxc =       0    ionmov =       0      iscf =      17    lmnmax =      18
     lnmax =       6     mgfft =      54  mpssoang =       3    mqgrid =    3268
     natom =       9  nloc_mem =       2    nspden =       1   nspinor =       1
    nsppol =       1      nsym =       8    n1xccc =       1    ntypat =       4
    occopt =       1   xclevel =       2
-    mband =          42        mffmem =           1         mkmem =          28
       mpw =        6025          nfft =      157464          nkpt =         163
Pmy_natom=         2
 PAW method is used; the additional fine FFT grid is defined by:
   mgfftf=        90    nfftf =    729000
================================================================================
P This job should need less than                     324.720 Mbytes of memory.
  Rough estimation (10% accuracy) of disk space for files :
_ WF disk file :    629.384 Mbytes ; DEN or POT disk file :      5.564 Mbytes.
================================================================================


 DATASET   10 : space group I4 m m (#107); Bravais tI (body-center tetrag.)
================================================================================
 Values of the parameters that define the memory need for DATASET 10.
     intxc =       0    ionmov =       0      iscf =      17    lmnmax =      18
     lnmax =       6     mgfft =      54  mpssoang =       3    mqgrid =    3267
     natom =       9  nloc_mem =       2    nspden =       1   nspinor =       1
    nsppol =       1      nsym =       8    n1xccc =       1    ntypat =       4
    occopt =       1   xclevel =       2
-    mband =          42        mffmem =           1         mkmem =          28
       mpw =        6014          nfft =      157464          nkpt =         163
Pmy_natom=         2
 PAW method is used; the additional fine FFT grid is defined by:
   mgfftf=        90    nfftf =    729000
================================================================================
P This job should need less than                     324.505 Mbytes of memory.
  Rough estimation (10% accuracy) of disk space for files :
_ WF disk file :    628.234 Mbytes ; DEN or POT disk file :      5.564 Mbytes.
================================================================================


 DATASET   11 : space group I4 m m (#107); Bravais tI (body-center tetrag.)
================================================================================
 Values of the parameters that define the memory need for DATASET 11.
     intxc =       0    ionmov =       0      iscf =      17    lmnmax =      18
     lnmax =       6     mgfft =      54  mpssoang =       3    mqgrid =    3265
     natom =       9  nloc_mem =       2    nspden =       1   nspinor =       1
    nsppol =       1      nsym =       8    n1xccc =       1    ntypat =       4
    occopt =       1   xclevel =       2
-    mband =          42        mffmem =           1         mkmem =          28
       mpw =        6014          nfft =      157464          nkpt =         163
Pmy_natom=         2
 PAW method is used; the additional fine FFT grid is defined by:
   mgfftf=        80    nfftf =    512000
================================================================================
P This job should need less than                     272.503 Mbytes of memory.
  Rough estimation (10% accuracy) of disk space for files :
_ WF disk file :    628.234 Mbytes ; DEN or POT disk file :      3.908 Mbytes.
================================================================================


 DATASET   12 : space group I4 m m (#107); Bravais tI (body-center tetrag.)
================================================================================
 Values of the parameters that define the memory need for DATASET 12.
     intxc =       0    ionmov =       0      iscf =      17    lmnmax =      18
     lnmax =       6     mgfft =      54  mpssoang =       3    mqgrid =    3263
     natom =       9  nloc_mem =       2    nspden =       1   nspinor =       1
    nsppol =       1      nsym =       8    n1xccc =       1    ntypat =       4
    occopt =       1   xclevel =       2
-    mband =          42        mffmem =           1         mkmem =          28
       mpw =        6002          nfft =      157464          nkpt =         163
Pmy_natom=         2
 PAW method is used; the additional fine FFT grid is defined by:
   mgfftf=        80    nfftf =    512000
================================================================================
P This job should need less than                     272.266 Mbytes of memory.
  Rough estimation (10% accuracy) of disk space for files :
_ WF disk file :    626.981 Mbytes ; DEN or POT disk file :      3.908 Mbytes.
================================================================================


 DATASET   13 : space group I4 m m (#107); Bravais tI (body-center tetrag.)
================================================================================
 Values of the parameters that define the memory need for DATASET 13.
     intxc =       0    ionmov =       0      iscf =      17    lmnmax =      18
     lnmax =       6     mgfft =      54  mpssoang =       3    mqgrid =    3262
     natom =       9  nloc_mem =       2    nspden =       1   nspinor =       1
    nsppol =       1      nsym =       8    n1xccc =       1    ntypat =       4
    occopt =       1   xclevel =       2
-    mband =          42        mffmem =           1         mkmem =          28
       mpw =        6002          nfft =      157464          nkpt =         163
Pmy_natom=         2
 PAW method is used; the additional fine FFT grid is defined by:
   mgfftf=        80    nfftf =    512000
================================================================================
P This job should need less than                     272.270 Mbytes of memory.
  Rough estimation (10% accuracy) of disk space for files :
_ WF disk file :    626.981 Mbytes ; DEN or POT disk file :      3.908 Mbytes.
================================================================================

--------------------------------------------------------------------------------
------------- Echo of variables that govern the present computation ------------
--------------------------------------------------------------------------------
-
- outvars: echo of selected default values                                      
-   iomode0 =  0 , fftalg0 =112 , wfoptalg0 = 10
-
- outvars: echo of global parameters not present in the input file              
-  max_nthreads =    0
-
 -outvars: echo values of preprocessed input variables --------
            acell1     1.4156247594E+01  1.4156247594E+01  1.4156118734E+01 Bohr
            acell2     1.4141892478E+01  1.4141892478E+01  1.4142317868E+01 Bohr
            acell3     1.4127981107E+01  1.4127981107E+01  1.4127629475E+01 Bohr
            acell4     1.4113849096E+01  1.4113849096E+01  1.4113382387E+01 Bohr
            acell5     1.4100668817E+01  1.4100668817E+01  1.4097233736E+01 Bohr
            acell6     1.4087172177E+01  1.4087172177E+01  1.4081718863E+01 Bohr
            acell7     1.4072034807E+01  1.4072034807E+01  1.4069478637E+01 Bohr
            acell8     1.4065270134E+01  1.4065270134E+01  1.4061753389E+01 Bohr
            acell9     1.4058635217E+01  1.4058635217E+01  1.4053769537E+01 Bohr
            acell10    1.4051855891E+01  1.4051855891E+01  1.4046074248E+01 Bohr
            acell11    1.4044649031E+01  1.4044649031E+01  1.4039231731E+01 Bohr
            acell12    1.4037830533E+01  1.4037830533E+01  1.4031614709E+01 Bohr
            acell13    1.4030951068E+01  1.4030951068E+01  1.4024119415E+01 Bohr
              amu      1.32905430E+02  1.26904470E+02  9.12240000E+01
                       7.99040000E+01
           diemac      1.20000000E+01
             ecut      1.60000000E+01 Hartree
-          fftalg         112
           istwfk        2    0    0    0    0    0    3    0    0    0
                         0    0    0    0    0    0    0    0    0    0
                         0    0    0    0    0    0    0    0    0    0
                         0    0    0    0    0    0    0    0    0    0
                         0    0    7    0    0    0    0    0    0    0
                       outvar_i_n : Printing only first  50 k-points.
              ixc     -101130
           jdtset        1    2    3    4    5    6    7    8    9   10
                        11   12   13
              kpt      0.00000000E+00  0.00000000E+00  0.00000000E+00
                       8.33333333E-02  0.00000000E+00  0.00000000E+00
                       1.66666667E-01  0.00000000E+00  0.00000000E+00
                       2.50000000E-01  0.00000000E+00  0.00000000E+00
                       3.33333333E-01  0.00000000E+00  0.00000000E+00
                       4.16666667E-01  0.00000000E+00  0.00000000E+00
                       5.00000000E-01  0.00000000E+00  0.00000000E+00
                       8.33333333E-02  8.33333333E-02  0.00000000E+00
                       1.66666667E-01  8.33333333E-02  0.00000000E+00
                       2.50000000E-01  8.33333333E-02  0.00000000E+00
                       3.33333333E-01  8.33333333E-02  0.00000000E+00
                       4.16666667E-01  8.33333333E-02  0.00000000E+00
                       5.00000000E-01  8.33333333E-02  0.00000000E+00
                      -4.16666667E-01  8.33333333E-02  0.00000000E+00
                      -3.33333333E-01  8.33333333E-02  0.00000000E+00
                      -2.50000000E-01  8.33333333E-02  0.00000000E+00
                      -1.66666667E-01  8.33333333E-02  0.00000000E+00
                      -8.33333333E-02  8.33333333E-02  0.00000000E+00
                       1.66666667E-01  1.66666667E-01  0.00000000E+00
                       2.50000000E-01  1.66666667E-01  0.00000000E+00
                       3.33333333E-01  1.66666667E-01  0.00000000E+00
                       4.16666667E-01  1.66666667E-01  0.00000000E+00
                       5.00000000E-01  1.66666667E-01  0.00000000E+00
                      -4.16666667E-01  1.66666667E-01  0.00000000E+00
                      -3.33333333E-01  1.66666667E-01  0.00000000E+00
                      -2.50000000E-01  1.66666667E-01  0.00000000E+00
                      -1.66666667E-01  1.66666667E-01  0.00000000E+00
                       2.50000000E-01  2.50000000E-01  0.00000000E+00
                       3.33333333E-01  2.50000000E-01  0.00000000E+00
                       4.16666667E-01  2.50000000E-01  0.00000000E+00
                       5.00000000E-01  2.50000000E-01  0.00000000E+00
                      -4.16666667E-01  2.50000000E-01  0.00000000E+00
                      -3.33333333E-01  2.50000000E-01  0.00000000E+00
                      -2.50000000E-01  2.50000000E-01  0.00000000E+00
                       3.33333333E-01  3.33333333E-01  0.00000000E+00
                       4.16666667E-01  3.33333333E-01  0.00000000E+00
                       5.00000000E-01  3.33333333E-01  0.00000000E+00
                      -4.16666667E-01  3.33333333E-01  0.00000000E+00
                      -3.33333333E-01  3.33333333E-01  0.00000000E+00
                       4.16666667E-01  4.16666667E-01  0.00000000E+00
                       5.00000000E-01  4.16666667E-01  0.00000000E+00
                      -4.16666667E-01  4.16666667E-01  0.00000000E+00
                       5.00000000E-01  5.00000000E-01  0.00000000E+00
                       8.33333333E-02  0.00000000E+00  8.33333333E-02
                       1.66666667E-01  0.00000000E+00  8.33333333E-02
                       2.50000000E-01  0.00000000E+00  8.33333333E-02
                       3.33333333E-01  0.00000000E+00  8.33333333E-02
                       4.16666667E-01  0.00000000E+00  8.33333333E-02
                       5.00000000E-01  0.00000000E+00  8.33333333E-02
                      -4.16666667E-01  0.00000000E+00  8.33333333E-02
                       outvar_i_n : Printing only first  50 k-points.
         kptrlatt       12    0    0      0   12    0      0    0   12
          kptrlen1     1.69873425E+02
          kptrlen2     1.69702710E+02
          kptrlen3     1.69531554E+02
          kptrlen4     1.69360589E+02
          kptrlen5     1.69166805E+02
          kptrlen6     1.68980626E+02
          kptrlen7     1.68833744E+02
          kptrlen8     1.68741041E+02
          kptrlen9     1.68645234E+02
          kptrlen10    1.68552891E+02
          kptrlen11    1.68470781E+02
          kptrlen12    1.68379377E+02
          kptrlen13    1.68289433E+02
P           mkmem          28
            natom           9
            nband          42
           ndtset          13
            ngfft          54      54      54
          ngfftdg1         90      90      90
          ngfftdg2         90      90      90
          ngfftdg3         90      90      90
          ngfftdg4         90      90      90
          ngfftdg5         90      90      90
          ngfftdg6         90      90      90
          ngfftdg7         90      90      90
          ngfftdg8         90      90      90
          ngfftdg9         90      90      90
          ngfftdg10        90      90      90
          ngfftdg11        80      80      80
          ngfftdg12        80      80      80
          ngfftdg13        80      80      80
             nkpt         163
            nstep        2500
             nsym           8
           ntypat           4
              occ      2.000000  2.000000  2.000000  2.000000  2.000000  2.000000
                       2.000000  2.000000  2.000000  2.000000  2.000000  2.000000
                       2.000000  2.000000  2.000000  2.000000  2.000000  2.000000
                       2.000000  2.000000  2.000000  2.000000  2.000000  2.000000
                       2.000000  2.000000  2.000000  2.000000  2.000000  2.000000
                       2.000000  2.000000  2.000000  2.000000  2.000000  2.000000
                       0.000000  0.000000  0.000000  0.000000  0.000000  0.000000
        pawecutdg      4.00000000E+01 Hartree
            prtwf           0
            rprim1     0.0000000000E+00  7.0710034456E-01  7.0711321776E-01
                       7.0710034456E-01  0.0000000000E+00  7.0711321776E-01
                       7.0710678119E-01  7.0710678119E-01  0.0000000000E+00
            rprim2     0.0000000000E+00  7.0712805103E-01  7.0708551071E-01
                       7.0712805103E-01  0.0000000000E+00  7.0708551071E-01
                       7.0710678119E-01  7.0710678119E-01  0.0000000000E+00
            rprim3     0.0000000000E+00  7.0708918193E-01  7.0712438001E-01
                       7.0708918193E-01  0.0000000000E+00  7.0712438001E-01
                       7.0710678119E-01  7.0710678119E-01  0.0000000000E+00
            rprim4     0.0000000000E+00  7.0708339893E-01  7.0713016267E-01
                       7.0708339893E-01  0.0000000000E+00  7.0713016267E-01
                       7.0710678119E-01  7.0710678119E-01  0.0000000000E+00
            rprim5     0.0000000000E+00  7.0693452199E-01  7.0727899843E-01
                       7.0693452199E-01  0.0000000000E+00  7.0727899843E-01
                       7.0710678119E-01  7.0710678119E-01  0.0000000000E+00
            rprim6     0.0000000000E+00  7.0683305156E-01  7.0738040489E-01
                       7.0683305156E-01  0.0000000000E+00  7.0738040489E-01
                       7.0710678119E-01  7.0710678119E-01  0.0000000000E+00
            rprim7     0.0000000000E+00  7.0697833596E-01  7.0723520308E-01
                       7.0697833596E-01  0.0000000000E+00  7.0723520308E-01
                       7.0710678119E-01  7.0710678119E-01  0.0000000000E+00
            rprim8     0.0000000000E+00  7.0692998296E-01  7.0728353522E-01
                       7.0692998296E-01  0.0000000000E+00  7.0728353522E-01
                       7.0710678119E-01  7.0710678119E-01  0.0000000000E+00
            rprim9     0.0000000000E+00  7.0686205221E-01  7.0735142549E-01
                       7.0686205221E-01  0.0000000000E+00  7.0735142549E-01
                       7.0710678119E-01  7.0710678119E-01  0.0000000000E+00
            rprim10    0.0000000000E+00  7.0681584175E-01  7.0739760096E-01
                       7.0681584175E-01  0.0000000000E+00  7.0739760096E-01
                       7.0710678119E-01  7.0710678119E-01  0.0000000000E+00
            rprim11    0.0000000000E+00  7.0683403605E-01  7.0737942116E-01
                       7.0683403605E-01  0.0000000000E+00  7.0737942116E-01
                       7.0710678119E-01  7.0710678119E-01  0.0000000000E+00
            rprim12    0.0000000000E+00  7.0679368072E-01  7.0741974308E-01
                       7.0679368072E-01  0.0000000000E+00  7.0741974308E-01
                       7.0710678119E-01  7.0710678119E-01  0.0000000000E+00
            rprim13    0.0000000000E+00  7.0676249171E-01  7.0745090311E-01
                       7.0676249171E-01  0.0000000000E+00  7.0745090311E-01
                       7.0710678119E-01  7.0710678119E-01  0.0000000000E+00
          spgroup         107
           symrel1     1  0  0   0  1  0   0  0  1       1  0 -1   0  1 -1   0  0 -1
                       0  1 -1   1  0 -1   0  0 -1       0  1  0   1  0  0   0  0  1
                       0  1 -1   0  1  0  -1  1  0       1  0 -1   1  0  0   1 -1  0
                       1  0  0   1  0 -1   1 -1  0       0  1  0   0  1 -1  -1  1  0
           symrel2     1  0  0   0  1  0   0  0  1       1  0 -1   0  1 -1   0  0 -1
                       0  1 -1   1  0 -1   0  0 -1       0  1  0   1  0  0   0  0  1
                       1  0  0   1  0 -1   1 -1  0       0  1  0   0  1 -1  -1  1  0
                       0  1 -1   0  1  0  -1  1  0       1  0 -1   1  0  0   1 -1  0
           symrel3     1  0  0   0  1  0   0  0  1       1  0 -1   0  1 -1   0  0 -1
                       0  1 -1   1  0 -1   0  0 -1       0  1  0   1  0  0   0  0  1
                       0  1 -1   0  1  0  -1  1  0       1  0 -1   1  0  0   1 -1  0
                       1  0  0   1  0 -1   1 -1  0       0  1  0   0  1 -1  -1  1  0
           symrel4     1  0  0   0  1  0   0  0  1       1  0 -1   0  1 -1   0  0 -1
                       0  1 -1   1  0 -1   0  0 -1       0  1  0   1  0  0   0  0  1
                       0  1 -1   0  1  0  -1  1  0       1  0 -1   1  0  0   1 -1  0
                       1  0  0   1  0 -1   1 -1  0       0  1  0   0  1 -1  -1  1  0
           symrel5     1  0  0   0  1  0   0  0  1       1  0 -1   0  1 -1   0  0 -1
                       0  1 -1   1  0 -1   0  0 -1       0  1  0   1  0  0   0  0  1
                       0  1 -1   0  1  0  -1  1  0       1  0 -1   1  0  0   1 -1  0
                       1  0  0   1  0 -1   1 -1  0       0  1  0   0  1 -1  -1  1  0
           symrel6     1  0  0   0  1  0   0  0  1       0  1  0   1  0  0   0  0  1
                       0  1 -1   1  0 -1   0  0 -1       1  0 -1   0  1 -1   0  0 -1
                       1  0  0   1  0 -1   1 -1  0       1  0 -1   1  0  0   1 -1  0
                       0  1 -1   0  1  0  -1  1  0       0  1  0   0  1 -1  -1  1  0
           symrel7     1  0  0   0  1  0   0  0  1       1  0 -1   0  1 -1   0  0 -1
                       0  1 -1   1  0 -1   0  0 -1       0  1  0   1  0  0   0  0  1
                       0  1 -1   0  1  0  -1  1  0       1  0 -1   1  0  0   1 -1  0
                       1  0  0   1  0 -1   1 -1  0       0  1  0   0  1 -1  -1  1  0
           symrel8     1  0  0   0  1  0   0  0  1       1  0 -1   0  1 -1   0  0 -1
                       0  1 -1   1  0 -1   0  0 -1       0  1  0   1  0  0   0  0  1
                       0  1 -1   0  1  0  -1  1  0       1  0 -1   1  0  0   1 -1  0
                       1  0  0   1  0 -1   1 -1  0       0  1  0   0  1 -1  -1  1  0
           symrel9     1  0  0   0  1  0   0  0  1       1  0 -1   0  1 -1   0  0 -1
                       0  1 -1   1  0 -1   0  0 -1       0  1  0   1  0  0   0  0  1
                       0  1 -1   0  1  0  -1  1  0       1  0 -1   1  0  0   1 -1  0
                       1  0  0   1  0 -1   1 -1  0       0  1  0   0  1 -1  -1  1  0
           symrel10    1  0  0   0  1  0   0  0  1       1  0 -1   0  1 -1   0  0 -1
                       0  1 -1   1  0 -1   0  0 -1       0  1  0   1  0  0   0  0  1
                       0  1 -1   0  1  0  -1  1  0       1  0 -1   1  0  0   1 -1  0
                       1  0  0   1  0 -1   1 -1  0       0  1  0   0  1 -1  -1  1  0
           symrel11    1  0  0   0  1  0   0  0  1       1  0 -1   0  1 -1   0  0 -1
                       0  1 -1   1  0 -1   0  0 -1       0  1  0   1  0  0   0  0  1
                       0  1 -1   0  1  0  -1  1  0       1  0 -1   1  0  0   1 -1  0
                       1  0  0   1  0 -1   1 -1  0       0  1  0   0  1 -1  -1  1  0
           symrel12    1  0  0   0  1  0   0  0  1       1  0 -1   0  1 -1   0  0 -1
                       0  1 -1   1  0 -1   0  0 -1       0  1  0   1  0  0   0  0  1
                       0  1 -1   0  1  0  -1  1  0       1  0 -1   1  0  0   1 -1  0
                       1  0  0   1  0 -1   1 -1  0       0  1  0   0  1 -1  -1  1  0
           symrel13    1  0  0   0  1  0   0  0  1       1  0 -1   0  1 -1   0  0 -1
                       0  1 -1   1  0 -1   0  0 -1       0  1  0   1  0  0   0  0  1
                       0  1 -1   0  1  0  -1  1  0       1  0 -1   1  0  0   1 -1  0
                       1  0  0   1  0 -1   1 -1  0       0  1  0   0  1 -1  -1  1  0
           toldfe      1.00000000E-08 Hartree
            typat      1  1  4  2  4  4  4  4  3
           useylm           1
              wtk        0.00058    0.00463    0.00463    0.00463    0.00463    0.00463
                         0.00231    0.00116    0.00463    0.00463    0.00463    0.00463
                         0.00463    0.00463    0.00463    0.00463    0.00463    0.00231
                         0.00116    0.00463    0.00463    0.00463    0.00463    0.00463
                         0.00463    0.00463    0.00231    0.00116    0.00463    0.00463
                         0.00463    0.00463    0.00463    0.00231    0.00116    0.00463
                         0.00463    0.00463    0.00231    0.00116    0.00463    0.00231
                         0.00058    0.00231    0.00926    0.00926    0.00926    0.00926
                         0.00926    0.00926
                       outvars : Printing only first  50 k-points.
           xangst1     2.6485021765E+00  2.6485021765E+00  2.6701107447E+00
                       7.9455065294E+00  7.9455065294E+00  7.9672115327E+00
                       5.2970043530E+00  5.2970043530E+00  2.6778398688E+00
                       5.2970043529E+00  5.2970043529E+00  7.8134186060E+00
                       7.9796202903E+00  5.2970043530E+00  5.2957887372E+00
                       5.2970043530E+00  7.9796202903E+00  5.2957887372E+00
                       5.2970043528E+00  2.6143884156E+00  5.2957887372E+00
                       2.6143884156E+00  5.2970043528E+00  5.2957887372E+00
                      -2.4315996792E-12 -2.4315996792E-12  6.5070603225E-02
           xangst2     2.6459201394E+00  2.6459201394E+00  2.6675510682E+00
                       7.9377604183E+00  7.9377604183E+00  7.9590729936E+00
                       5.2918402789E+00  5.2918402789E+00  2.6775141448E+00
                       5.2918402788E+00  5.2918402788E+00  7.8035908857E+00
                       7.9700357570E+00  5.2918402789E+00  5.2897922300E+00
                       5.2918402789E+00  7.9700357570E+00  5.2897922300E+00
                       5.2918402788E+00  2.6136448007E+00  5.2897922300E+00
                       2.6136448007E+00  5.2918402788E+00  5.2897922300E+00
                      -1.1859716941E-12 -1.1859716941E-12  6.5277391103E-02
           xangst3     2.6431720527E+00  2.6431720527E+00  2.6647086143E+00
                       7.9295161583E+00  7.9295161583E+00  7.9513158677E+00
                       5.2863441056E+00  5.2863441056E+00  2.6770204536E+00
                       5.2863441054E+00  5.2863441054E+00  7.7952716823E+00
                       7.9597381609E+00  5.2863441056E+00  5.2847711377E+00
                       5.2863441056E+00  7.9597381609E+00  5.2847711377E+00
                       5.2863441054E+00  2.6129500501E+00  5.2847711377E+00
                       2.6129500501E+00  5.2863441054E+00  5.2847711377E+00
                      -2.1002450660E-12 -2.1002450660E-12  6.5456858520E-02
           xangst4     2.6405065309E+00  2.6405065309E+00  2.6619301664E+00
                       7.9215195928E+00  7.9215195928E+00  7.9432924937E+00
                       5.2810130619E+00  5.2810130619E+00  2.6766467666E+00
                       5.2810130618E+00  5.2810130618E+00  7.7863155288E+00
                       7.9497615673E+00  5.2810130619E+00  5.2792501570E+00
                       5.2810130619E+00  7.9497615673E+00  5.2792501570E+00
                       5.2810130618E+00  2.6122645564E+00  5.2792501570E+00
                       2.6122645564E+00  5.2810130618E+00  5.2792501570E+00
                      -1.9437439055E-12 -1.9437439055E-12  6.5713034803E-02
           xangst5     2.6374852411E+00  2.6374852411E+00  2.6594089053E+00
                       7.9124557232E+00  7.9124557232E+00  7.9369497852E+00
                       5.2749704823E+00  5.2749704823E+00  2.6762399868E+00
                       5.2749704820E+00  5.2749704820E+00  7.7802464361E+00
                       7.9383368266E+00  5.2749704823E+00  5.2753594053E+00
                       5.2749704823E+00  7.9383368266E+00  5.2753594053E+00
                       5.2749704820E+00  2.6116041377E+00  5.2753594053E+00
                       2.6116041377E+00  5.2749704820E+00  5.2753594053E+00
                      -2.8503615264E-12 -2.8503615264E-12  6.6044304617E-02
           xangst6     2.6345825263E+00  2.6345825263E+00  2.6568518981E+00
                       7.9037475788E+00  7.9037475788E+00  7.9300972562E+00
                       5.2691650527E+00  5.2691650527E+00  2.6758879489E+00
                       5.2691650524E+00  5.2691650524E+00  7.7731097172E+00
                       7.9273656975E+00  5.2691650527E+00  5.2709381537E+00
                       5.2691650527E+00  7.9273656975E+00  5.2709381537E+00
                       5.2691650524E+00  2.6109644075E+00  5.2709381537E+00
                       2.6109644075E+00  5.2691650524E+00  5.2709381537E+00
                      -3.7184682690E-12 -3.7184682690E-12  6.6263429312E-02
           xangst7     2.6322924731E+00  2.6322924731E+00  2.6537503169E+00
                       7.8968774194E+00  7.8968774194E+00  7.9202480497E+00
                       5.2645849463E+00  5.2645849463E+00  2.6756713547E+00
                       5.2645849462E+00  5.2645849462E+00  7.7612802129E+00
                       7.9188869848E+00  5.2645849463E+00  5.2636042274E+00
                       5.2645849463E+00  7.9188869848E+00  5.2636042274E+00
                       5.2645849462E+00  2.6102829077E+00  5.2636042274E+00
                       2.6102829077E+00  5.2645849462E+00  5.2636042274E+00
                      -2.0297340597E-12 -2.0297340597E-12  6.6615018574E-02
           xangst8     2.6308471380E+00  2.6308471380E+00  2.6524168655E+00
                       7.8925414139E+00  7.8925414139E+00  7.9167426380E+00
                       5.2616942760E+00  5.2616942760E+00  2.6755570819E+00
                       5.2616942758E+00  5.2616942758E+00  7.7578078938E+00
                       7.9134505195E+00  5.2616942760E+00  5.2612992300E+00
                       5.2616942760E+00  7.9134505195E+00  5.2612992300E+00
                       5.2616942758E+00  2.6099380324E+00  5.2612992300E+00
                       2.6099380324E+00  5.2616942758E+00  5.2612992300E+00
                      -2.1075940694E-12 -2.1075940694E-12  6.6884780433E-02
           xangst9     2.6293534200E+00  2.6293534200E+00  2.6515932604E+00
                       7.8880602601E+00  7.8880602601E+00  7.9139407975E+00
                       5.2587068401E+00  5.2587068401E+00  2.6752111434E+00
                       5.2587068400E+00  5.2587068400E+00  7.7543748080E+00
                       7.9078819477E+00  5.2587068401E+00  5.2592206115E+00
                       5.2587068401E+00  7.9078819477E+00  5.2592206115E+00
                       5.2587068400E+00  2.6095317324E+00  5.2592206115E+00
                       2.6095317324E+00  5.2587068400E+00  5.2592206115E+00
                      -4.4907122006E-13 -4.4907122006E-13  6.6777841692E-02
           xangst10    2.6279136900E+00  2.6279136900E+00  2.6504768516E+00
                       7.8837410699E+00  7.8837410699E+00  7.9106301475E+00
                       5.2558273800E+00  5.2558273800E+00  2.6747592846E+00
                       5.2558273799E+00  5.2558273799E+00  7.7507489744E+00
                       7.9024664856E+00  5.2558273800E+00  5.2569477306E+00
                       5.2558273800E+00  7.9024664856E+00  5.2569477306E+00
                       5.2558273799E+00  2.6091882743E+00  5.2569477306E+00
                       2.6091882743E+00  5.2558273799E+00  5.2569477306E+00
                      -3.7700483426E-13 -3.7700483426E-13  6.6820186989E-02
           xangst11    2.6266335071E+00  2.6266335071E+00  2.6490132727E+00
                       7.8799005212E+00  7.8799005212E+00  7.9063336478E+00
                       5.2532670141E+00  5.2532670141E+00  2.6746394691E+00
                       5.2532670141E+00  5.2532670141E+00  7.7458371636E+00
                       7.8977280298E+00  5.2532670141E+00  5.2539351330E+00
                       5.2532670141E+00  7.8977280298E+00  5.2539351330E+00
                       5.2532670141E+00  2.6088059984E+00  5.2539351330E+00
                       2.6088059984E+00  5.2532670141E+00  5.2539351330E+00
                      -6.7597351588E-13 -6.7597351588E-13  6.6998916132E-02
           xangst12    2.6252084202E+00  2.6252084202E+00  2.6477077494E+00
                       7.8756252605E+00  7.8756252605E+00  7.9027752939E+00
                       5.2504168404E+00  5.2504168404E+00  2.6744806294E+00
                       5.2504168404E+00  5.2504168404E+00  7.7421315979E+00
                       7.8923739076E+00  5.2504168404E+00  5.2515754707E+00
                       5.2504168404E+00  7.8923739076E+00  5.2515754707E+00
                       5.2504168403E+00  2.6084597731E+00  5.2515754707E+00
                       2.6084597731E+00  5.2504168403E+00  5.2515754707E+00
                      -1.2366371612E-13 -1.2366371612E-13  6.7143203470E-02
           xangst13    2.6238061076E+00  2.6238061076E+00  2.6462691905E+00
                       7.8714183227E+00  7.8714183227E+00  7.8989927634E+00
                       5.2476122152E+00  5.2476122152E+00  2.6742998509E+00
                       5.2476122151E+00  5.2476122151E+00  7.7382596836E+00
                       7.8871406902E+00  5.2476122152E+00  5.2491634109E+00
                       5.2476122152E+00  7.8871406902E+00  5.2491634109E+00
                       5.2476122151E+00  2.6080837401E+00  5.2491634109E+00
                       2.6080837401E+00  5.2476122151E+00  5.2491634109E+00
                      -2.3194733131E-12 -2.3194733131E-12  6.7313451150E-02
            xcart1     5.0049437759E+00  5.0049437759E+00  5.0457780520E+00
                       1.5014831328E+01  1.5014831328E+01  1.5055847840E+01
                       1.0009887552E+01  1.0009887552E+01  5.0603839797E+00
                       1.0009887552E+01  1.0009887552E+01  1.4765221327E+01
                       1.5079296993E+01  1.0009887552E+01  1.0007590371E+01
                       1.0009887552E+01  1.5079296993E+01  1.0007590371E+01
                       1.0009887552E+01  4.9404781104E+00  1.0007590371E+01
                       4.9404781104E+00  1.0009887552E+01  1.0007590371E+01
                      -4.5950574585E-12 -4.5950574585E-12  1.2296561940E-01
            xcart2     5.0000644330E+00  5.0000644330E+00  5.0409409643E+00
                       1.5000193299E+01  1.5000193299E+01  1.5040468230E+01
                       1.0000128866E+01  1.0000128866E+01  5.0597684506E+00
                       1.0000128866E+01  1.0000128866E+01  1.4746649627E+01
                       1.5061184850E+01  1.0000128866E+01  9.9962586145E+00
                       1.0000128866E+01  1.5061184850E+01  9.9962586145E+00
                       1.0000128866E+01  4.9390728820E+00  9.9962586145E+00
                       4.9390728820E+00  1.0000128866E+01  9.9962586145E+00
                      -2.2411617032E-12 -2.2411617032E-12  1.2335639185E-01
            xcart3     4.9948713018E+00  4.9948713018E+00  5.0355695049E+00
                       1.4984613905E+01  1.4984613905E+01  1.5025809386E+01
                       9.9897426037E+00  9.9897426037E+00  5.0588355094E+00
                       9.9897426034E+00  9.9897426034E+00  1.4730928611E+01
                       1.5041725214E+01  9.9897426038E+00  9.9867701253E+00
                       9.9897426038E+00  1.5041725214E+01  9.9867701253E+00
                       9.9897426034E+00  4.9377599937E+00  9.9867701253E+00
                       4.9377599937E+00  9.9897426034E+00  9.9867701253E+00
                      -3.9688879868E-12 -3.9688879868E-12  1.2369553612E-01
            xcart4     4.9898341955E+00  4.9898341955E+00  5.0303189994E+00
                       1.4969502587E+01  1.4969502587E+01  1.5010647407E+01
                       9.9796683912E+00  9.9796683912E+00  5.0581293434E+00
                       9.9796683909E+00  9.9796683909E+00  1.4714003934E+01
                       1.5022872184E+01  9.9796683912E+00  9.9763369838E+00
                       9.9796683912E+00  1.5022872184E+01  9.9763369838E+00
                       9.9796683909E+00  4.9364645982E+00  9.9763369838E+00
                       4.9364645982E+00  9.9796683909E+00  9.9763369838E+00
                      -3.6731436538E-12 -3.6731436538E-12  1.2417963914E-01
            xcart5     4.9841247852E+00  4.9841247852E+00  5.0255545064E+00
                       1.4952374355E+01  1.4952374355E+01  1.4998661424E+01
                       9.9682495705E+00  9.9682495705E+00  5.0573606410E+00
                       9.9682495701E+00  9.9682495701E+00  1.4702535011E+01
                       1.5001282553E+01  9.9682495705E+00  9.9689845286E+00
                       9.9682495705E+00  1.5001282553E+01  9.9689845286E+00
                       9.9682495701E+00  4.9352165878E+00  9.9689845286E+00
                       4.9352165878E+00  9.9682495701E+00  9.9689845286E+00
                      -5.3864026646E-12 -5.3864026646E-12  1.2480564836E-01
            xcart6     4.9786394491E+00  4.9786394491E+00  5.0207224631E+00
                       1.4935918347E+01  1.4935918347E+01  1.4985712021E+01
                       9.9572788986E+00  9.9572788986E+00  5.0566953857E+00
                       9.9572788980E+00  9.9572788980E+00  1.4689048566E+01
                       1.4980550124E+01  9.9572788986E+00  9.9606295739E+00
                       9.9572788986E+00  1.4980550124E+01  9.9606295739E+00
                       9.9572788980E+00  4.9340076730E+00  9.9606295739E+00
                       4.9340076730E+00  9.9572788980E+00  9.9606295739E+00
                      -7.0268866623E-12 -7.0268866623E-12  1.2521973402E-01
            xcart7     4.9743118759E+00  4.9743118759E+00  5.0148613240E+00
                       1.4922935628E+01  1.4922935628E+01  1.4967099718E+01
                       9.9486237519E+00  9.9486237519E+00  5.0562860820E+00
                       9.9486237516E+00  9.9486237516E+00  1.4666694043E+01
                       1.4964527679E+01  9.9486237519E+00  9.9467704617E+00
                       9.9486237519E+00  1.4964527679E+01  9.9467704617E+00
                       9.9486237516E+00  4.9327198249E+00  9.9467704617E+00
                       4.9327198249E+00  9.9486237516E+00  9.9467704617E+00
                      -3.8356414954E-12 -3.8356414954E-12  1.2588414144E-01
            xcart8     4.9715805882E+00  4.9715805882E+00  5.0123414661E+00
                       1.4914741765E+01  1.4914741765E+01  1.4960475450E+01
                       9.9431611766E+00  9.9431611766E+00  5.0560701376E+00
                       9.9431611763E+00  9.9431611763E+00  1.4660132311E+01
                       1.4954254248E+01  9.9431611766E+00  9.9424146478E+00
                       9.9431611766E+00  1.4954254248E+01  9.9424146478E+00
                       9.9431611763E+00  4.9320681049E+00  9.9424146478E+00
                       4.9320681049E+00  9.9431611763E+00  9.9424146478E+00
                      -3.9827755904E-12 -3.9827755904E-12  1.2639391748E-01
            xcart9     4.9687578704E+00  4.9687578704E+00  5.0107850780E+00
                       1.4906273611E+01  1.4906273611E+01  1.4955180739E+01
                       9.9375157409E+00  9.9375157409E+00  5.0554164086E+00
                       9.9375157408E+00  9.9375157408E+00  1.4653644719E+01
                       1.4943731172E+01  9.9375157409E+00  9.9384866281E+00
                       9.9375157409E+00  1.4943731172E+01  9.9384866281E+00
                       9.9375157408E+00  4.9313003093E+00  9.9384866281E+00
                       4.9313003093E+00  9.9375157408E+00  9.9384866281E+00
                      -8.4862162008E-13 -8.4862162008E-13  1.2619183254E-01
            xcart10    4.9660371749E+00  4.9660371749E+00  5.0086753711E+00
                       1.4898111525E+01  1.4898111525E+01  1.4948924517E+01
                       9.9320743498E+00  9.9320743498E+00  5.0545625193E+00
                       9.9320743498E+00  9.9320743498E+00  1.4646792886E+01
                       1.4933497432E+01  9.9320743498E+00  9.9341915057E+00
                       9.9320743498E+00  1.4933497432E+01  9.9341915057E+00
                       9.9320743498E+00  4.9306512675E+00  9.9341915057E+00
                       4.9306512675E+00  9.9320743498E+00  9.9341915057E+00
                      -7.1243588753E-13 -7.1243588753E-13  1.2627185356E-01
            xcart11    4.9636179798E+00  4.9636179798E+00  5.0059096077E+00
                       1.4890853939E+01  1.4890853939E+01  1.4940805310E+01
                       9.9272359596E+00  9.9272359596E+00  5.0543361008E+00
                       9.9272359595E+00  9.9272359595E+00  1.4637510909E+01
                       1.4924543048E+01  9.9272359596E+00  9.9284985214E+00
                       9.9272359596E+00  1.4924543048E+01  9.9284985214E+00
                       9.9272359595E+00  4.9299288708E+00  9.9284985214E+00
                       4.9299288708E+00  9.9272359595E+00  9.9284985214E+00
                      -1.2774048181E-12 -1.2774048181E-12  1.2660960269E-01
            xcart12    4.9609249559E+00  4.9609249559E+00  5.0034425262E+00
                       1.4882774868E+01  1.4882774868E+01  1.4934080995E+01
                       9.9218499118E+00  9.9218499118E+00  5.0540359373E+00
                       9.9218499118E+00  9.9218499118E+00  1.4630508405E+01
                       1.4914425224E+01  9.9218499118E+00  9.9240394058E+00
                       9.9218499118E+00  1.4914425224E+01  9.9240394058E+00
                       9.9218499118E+00  4.9292745998E+00  9.9240394058E+00
                       4.9292745998E+00  9.9218499118E+00  9.9240394058E+00
                      -2.3369055603E-13 -2.3369055603E-13  1.2688226624E-01
            xcart13    4.9582749691E+00  4.9582749691E+00  5.0007240439E+00
                       1.4874824907E+01  1.4874824907E+01  1.4926933048E+01
                       9.9165499384E+00  9.9165499384E+00  5.0536943154E+00
                       9.9165499381E+00  9.9165499381E+00  1.4623191547E+01
                       1.4904535876E+01  9.9165499384E+00  9.9194812734E+00
                       9.9165499384E+00  1.4904535876E+01  9.9194812734E+00
                       9.9165499381E+00  4.9285640004E+00  9.9194812734E+00
                       4.9285640004E+00  9.9165499381E+00  9.9194812734E+00
                      -4.3831693343E-12 -4.3831693343E-12  1.2720398773E-01
             xred1     2.5203510860E-01  2.5203510860E-01  2.4796489140E-01
                       7.5203510860E-01  7.5203510860E-01  7.4796489140E-01
                       2.5276467033E-01  2.5276467033E-01  7.4723532967E-01
                       7.3751840098E-01  7.3751840098E-01  2.6248159902E-01
                       2.4665605449E-01  7.5309625326E-01  7.5334394551E-01
                       7.5309625326E-01  2.4665605449E-01  7.5334394551E-01
                       2.4665605449E-01  7.5309625326E-01  2.4690374674E-01
                       7.5309625326E-01  2.4665605449E-01  2.4690374674E-01
                       6.1420960096E-03  6.1420960096E-03 -6.1420960096E-03
             xred2     2.5205896392E-01  2.5205896392E-01  2.4794103608E-01
                       7.5205896392E-01  7.5205896392E-01  7.4794103608E-01
                       2.5300038274E-01  2.5300038274E-01  7.4699961726E-01
                       7.3736733927E-01  7.3736733927E-01  2.6263266073E-01
                       2.4678702149E-01  7.5288609799E-01  7.5321297851E-01
                       7.5288609799E-01  2.4678702149E-01  7.5321297851E-01
                       2.4678702149E-01  7.5288609799E-01  2.4711390201E-01
                       7.5288609799E-01  2.4678702149E-01  2.4711390201E-01
                       6.1681111808E-03  6.1681111808E-03 -6.1681111808E-03
             xred3     2.5202445411E-01  2.5202445411E-01  2.4797554589E-01
                       7.5202445411E-01  7.5202445411E-01  7.4797554589E-01
                       2.5318889084E-01  2.5318889084E-01  7.4681110916E-01
                       7.3726601094E-01  7.3726601094E-01  2.6273398906E-01
                       2.4696784524E-01  7.5268484020E-01  7.5303215476E-01
                       7.5268484020E-01  2.4696784524E-01  7.5303215476E-01
                       2.4696784524E-01  7.5268484020E-01  2.4731515980E-01
                       7.5268484020E-01  2.4696784524E-01  2.4731515980E-01
                       6.1908191192E-03  6.1908191192E-03 -6.1908191192E-03
             xred4     2.5201169712E-01  2.5201169712E-01  2.4798830288E-01
                       7.5201169712E-01  7.5201169712E-01  7.4798830288E-01
                       2.5340495508E-01  2.5340495508E-01  7.4659504492E-01
                       7.3715028872E-01  7.3715028872E-01  2.6284971128E-01
                       2.4712611910E-01  7.5247395184E-01  7.5287388090E-01
                       7.5247395184E-01  2.4712611910E-01  7.5287388090E-01
                       2.4712611910E-01  7.5247395184E-01  2.4752604816E-01
                       7.5247395184E-01  2.4712611910E-01  2.4752604816E-01
                       6.2212200878E-03  6.2212200878E-03 -6.2212200878E-03
             xred5     2.5195531080E-01  2.5195531080E-01  2.4804468920E-01
                       7.5195531080E-01  7.5195531080E-01  7.4804468920E-01
                       2.5354990589E-01  2.5354990589E-01  7.4645009411E-01
                       7.3710906397E-01  7.3710906397E-01  2.6289093603E-01
                       2.4734012583E-01  7.5224652359E-01  7.5265987417E-01
                       7.5224652359E-01  2.4734012583E-01  7.5265987417E-01
                       2.4734012583E-01  7.5224652359E-01  2.4775347641E-01
                       7.5224652359E-01  2.4734012583E-01  2.4775347641E-01
                       6.2571097146E-03  6.2571097146E-03 -6.2571097146E-03
             xred6     2.5191809955E-01  2.5191809955E-01  2.4808190045E-01
                       7.5191809955E-01  7.5191809955E-01  7.4808190045E-01
                       2.5372306494E-01  2.5372306494E-01  7.4627693506E-01
                       7.3703281275E-01  7.3703281275E-01  2.6296718725E-01
                       2.4754007157E-01  7.5202239818E-01  7.5245992843E-01
                       7.5202239818E-01  2.4754007157E-01  7.5245992843E-01
                       2.4754007157E-01  7.5202239818E-01  2.4797760182E-01
                       7.5202239818E-01  2.4754007157E-01  2.4797760182E-01
                       6.2829837047E-03  6.2829837047E-03 -6.2829837047E-03
             xred7     2.5194640267E-01  2.5194640267E-01  2.4805359733E-01
                       7.5194640267E-01  7.5194640267E-01  7.4805359733E-01
                       2.5402758061E-01  2.5402758061E-01  7.4597241939E-01
                       7.3685403532E-01  7.3685403532E-01  2.6314596468E-01
                       2.4763494937E-01  7.5181563325E-01  7.5236505063E-01
                       7.5181563325E-01  2.4763494937E-01  7.5236505063E-01
                       2.4763494937E-01  7.5181563325E-01  2.4818436675E-01
                       7.5181563325E-01  2.4763494937E-01  2.4818436675E-01
                       6.3244134863E-03  6.3244134863E-03 -6.3244134863E-03
             xred8     2.5192370117E-01  2.5192370117E-01  2.4807629883E-01
                       7.5192370117E-01  7.5192370117E-01  7.4807629883E-01
                       2.5412153403E-01  2.5412153403E-01  7.4587846597E-01
                       7.3682825011E-01  7.3682825011E-01  2.6317174989E-01
                       2.4772562468E-01  7.5169945982E-01  7.5227437532E-01
                       7.5169945982E-01  2.4772562468E-01  7.5227437532E-01
                       2.4772562468E-01  7.5169945982E-01  2.4830054018E-01
                       7.5169945982E-01  2.4772562468E-01  2.4830054018E-01
                       6.3526445099E-03  6.3526445099E-03 -6.3526445099E-03
             xred9     2.5194015045E-01  2.5194015045E-01  2.4805984955E-01
                       7.5194015045E-01  7.5194015045E-01  7.4805984955E-01
                       2.5418419484E-01  2.5418419484E-01  7.4581580516E-01
                       7.3677904712E-01  7.3677904712E-01  2.6322095288E-01
                       2.4781824214E-01  7.5158755050E-01  7.5218175786E-01
                       7.5158755050E-01  2.4781824214E-01  7.5218175786E-01
                       2.4781824214E-01  7.5158755050E-01  2.4841244950E-01
                       7.5158755050E-01  2.4781824214E-01  2.4841244950E-01
                       6.3448718677E-03  6.3448718677E-03 -6.3448718677E-03
             xred10    2.5193912634E-01  2.5193912634E-01  2.4806087366E-01
                       7.5193912634E-01  7.5193912634E-01  7.4806087366E-01
                       2.5424727514E-01  2.5424727514E-01  7.4575272486E-01
                       7.3674173910E-01  7.3674173910E-01  2.6325826090E-01
                       2.4791390173E-01  7.5147669296E-01  7.5208609827E-01
                       7.5147669296E-01  2.4791390173E-01  7.5208609827E-01
                       2.4791390173E-01  7.5147669296E-01  2.4852330704E-01
                       7.5147669296E-01  2.4791390173E-01  2.4852330704E-01
                       6.3515436937E-03  6.3515436937E-03 -6.3515436937E-03
             xred11    2.5193569001E-01  2.5193569001E-01  2.4806430999E-01
                       7.5193569001E-01  7.5193569001E-01  7.4806430999E-01
                       2.5437288183E-01  2.5437288183E-01  7.4562711817E-01
                       7.3667159416E-01  7.3667159416E-01  2.6332840584E-01
                       2.4798124284E-01  7.5137484697E-01  7.5201875716E-01
                       7.5137484697E-01  2.4798124284E-01  7.5201875716E-01
                       2.4798124284E-01  7.5137484697E-01  2.4862515303E-01
                       7.5137484697E-01  2.4798124284E-01  2.4862515303E-01
                       6.3719643612E-03  6.3719643612E-03 -6.3719643612E-03
             xred12    2.5191947838E-01  2.5191947838E-01  2.4808052162E-01
                       7.5191947838E-01  7.5191947838E-01  7.4808052162E-01
                       2.5446681767E-01  2.5446681767E-01  7.4553318233E-01
                       7.3663483221E-01  7.3663483221E-01  2.6336516779E-01
                       2.4807275964E-01  7.5126272485E-01  7.5192724036E-01
                       7.5126272485E-01  2.4807275964E-01  7.5192724036E-01
                       2.4807275964E-01  7.5126272485E-01  2.4873727515E-01
                       7.5126272485E-01  2.4807275964E-01  2.4873727515E-01
                       6.3884244018E-03  6.3884244018E-03 -6.3884244018E-03
             xred13    2.5189496018E-01  2.5189496018E-01  2.4810503982E-01
                       7.5189496018E-01  7.5189496018E-01  7.4810503982E-01
                       2.5456316269E-01  2.5456316269E-01  7.4543683731E-01
                       7.3659498508E-01  7.3659498508E-01  2.6340501492E-01
                       2.4816306309E-01  7.5115916243E-01  7.5183693691E-01
                       7.5115916243E-01  2.4816306309E-01  7.5183693691E-01
                       2.4816306309E-01  7.5115916243E-01  2.4884083757E-01
                       7.5115916243E-01  2.4816306309E-01  2.4884083757E-01
                       6.4074808255E-03  6.4074808255E-03 -6.4074808255E-03
            znucl       55.00000   53.00000   40.00000   35.00000

================================================================================

 chkinp: Checking input parameters for consistency, jdtset=   1.

 chkinp: Checking input parameters for consistency, jdtset=   2.

 chkinp: Checking input parameters for consistency, jdtset=   3.

 chkinp: Checking input parameters for consistency, jdtset=   4.

 chkinp: Checking input parameters for consistency, jdtset=   5.

 chkinp: Checking input parameters for consistency, jdtset=   6.

 chkinp: Checking input parameters for consistency, jdtset=   7.

 chkinp: Checking input parameters for consistency, jdtset=   8.

 chkinp: Checking input parameters for consistency, jdtset=   9.

 chkinp: Checking input parameters for consistency, jdtset=  10.

 chkinp: Checking input parameters for consistency, jdtset=  11.

 chkinp: Checking input parameters for consistency, jdtset=  12.

 chkinp: Checking input parameters for consistency, jdtset=  13.

================================================================================
== DATASET  1 ==================================================================
-   mpi_nproc: 6, omp_nthreads: -1 (-1 if OMP is not activated)


--- !DatasetInfo
iteration_state: {dtset: 1, }
dimensions: {natom: 9, nkpt: 163, mband: 42, nsppol: 1, nspinor: 1, nspden: 1, mpw: 6166, }
cutoff_energies: {ecut:  16.0, pawecutdg:  40.0, }
electrons: {nelect:   7.20000000E+01, charge:   0.00000000E+00, occopt:   1.00000000E+00, tsmear:   1.00000000E-02, }
meta: {optdriver: 0, ionmov: 0, optcell: 0, iscf: 17, paral_kgb: 0, }
...

 Real(R)+Recip(G) space primitive vectors, cartesian coordinates (Bohr,Bohr^-1):
 R(1)=  0.0000000 10.0098876 10.0100698  G(1)= -0.0499506  0.0499506  0.0499497
 R(2)= 10.0098876  0.0000000 10.0100698  G(2)=  0.0499506 -0.0499506  0.0499497
 R(3)= 10.0098876 10.0098876  0.0000000  G(3)=  0.0499506  0.0499506 -0.0499497
 Unit cell volume ucvol=  2.0059749E+03 bohr^3
 Angles (23,13,12)=  6.00003011E+01  6.00003011E+01  5.99993978E+01 degrees

 Coarse grid specifications (used for wave-functions):

 getcut: wavevector=  0.0000  0.0000  0.0000  ngfft=  54  54  54
         ecut(hartree)=     16.000   => boxcut(ratio)=   2.11919

 Fine grid specifications (used for densities):

 getcut: wavevector=  0.0000  0.0000  0.0000  ngfft=  90  90  90
         ecut(hartree)=     40.000   => boxcut(ratio)=   2.23333

 getcut : COMMENT -
  Note that boxcut > 2.2 ; recall that boxcut=Gcut(box)/Gcut(sphere) = 2
  is sufficient for exact treatment of convolution.
  Such a large boxcut is a waste : you could raise ecut
  e.g. ecut=   49.877617 Hartrees makes boxcut=2


--- Pseudopotential description ------------------------------------------------
- pspini: atom type   1  psp file is ../../../Psps_for_tests/ATOMICDATA/Cs.GGA_PBE-JTH.xml
- pspatm: opening atomic psp file    ../../../Psps_for_tests/ATOMICDATA/Cs.GGA_PBE-JTH.xml
- pspatm : Reading pseudopotential header in XML form from ../../../Psps_for_tests/ATOMICDATA/Cs.GGA_PBE-JTH.xml
 Pseudopotential format is: paw10
 basis_size (lnmax)=  6 (lmn_size= 18), orbitals=   0   0   1   1   2   2
 Spheres core radius: rc_sph= 2.20660278
 1 radial meshes are used:
  - mesh 1: r(i)=AA*[exp(BB*(i-1))-1], size=1500 , AA= 0.15922E-03 BB= 0.87573E-02
 Shapefunction is SIN type: shapef(r)=[sin(pi*r/rshp)/(pi*r/rshp)]**2
 Radius for shape functions =  2.00394208
 mmax= 1500
 Radial grid used for partial waves is grid 1
 Radial grid used for projectors is grid 1
 Radial grid used for (t)core density is grid 1
 Radial grid used for Vloc is grid 1
 Radial grid used for pseudo valence density is grid 1
 Mesh size for Vloc has been set to 1341 to avoid numerical noise.
 Compensation charge density is not taken into account in XC energy/potential
 pspatm: atomic psp has been read  and splines computed

- pspini: atom type   2  psp file is ../../../Psps_for_tests/ATOMICDATA/I.GGA_PBE-JTH.xml
- pspatm: opening atomic psp file    ../../../Psps_for_tests/ATOMICDATA/I.GGA_PBE-JTH.xml
- pspatm : Reading pseudopotential header in XML form from ../../../Psps_for_tests/ATOMICDATA/I.GGA_PBE-JTH.xml
 Pseudopotential format is: paw10
 basis_size (lnmax)=  4 (lmn_size=  8), orbitals=   0   0   1   1
 Spheres core radius: rc_sph= 2.30022271
 1 radial meshes are used:
  - mesh 1: r(i)=AA*[exp(BB*(i-1))-1], size=2000 , AA= 0.12610E-03 BB= 0.66836E-02
 Shapefunction is SIN type: shapef(r)=[sin(pi*r/rshp)/(pi*r/rshp)]**2
 Radius for shape functions =  2.10879093
 mmax= 2000
 Radial grid used for partial waves is grid 1
 Radial grid used for projectors is grid 1
 Radial grid used for (t)core density is grid 1
 Radial grid used for Vloc is grid 1
 Radial grid used for pseudo valence density is grid 1
 Mesh size for Vloc has been set to 1792 to avoid numerical noise.
 Compensation charge density is not taken into account in XC energy/potential
 pspatm: atomic psp has been read  and splines computed

- pspini: atom type   3  psp file is ../../../Psps_for_tests/ATOMICDATA/Zr.GGA_PBE-JTH.xml
- pspatm: opening atomic psp file    ../../../Psps_for_tests/ATOMICDATA/Zr.GGA_PBE-JTH.xml
- pspatm : Reading pseudopotential header in XML form from ../../../Psps_for_tests/ATOMICDATA/Zr.GGA_PBE-JTH.xml
 Pseudopotential format is: paw10
 basis_size (lnmax)=  6 (lmn_size= 18), orbitals=   0   0   1   1   2   2
 Spheres core radius: rc_sph= 2.21000000
 1 radial meshes are used:
  - mesh 1: r(i)=AA*[exp(BB*(i-1))-1], size= 941 , AA= 0.35256E-03 BB= 0.14102E-01
 Shapefunction is BESSEL type: shapef(r,l)=aa(1,l)*jl(q(1,l)*r)+aa(2,l)*jl(q(2,l)*r)
 Radius for shape functions =  2.21000000
 mmax=  941
 Radial grid used for partial waves is grid 1
 Radial grid used for projectors is grid 1
 Radial grid used for (t)core density is grid 1
 Radial grid used for Vloc is grid 1
 Radial grid used for pseudo valence density is grid 1
 Mesh size for Vloc has been set to  777 to avoid numerical noise.
 Compensation charge density is not taken into account in XC energy/potential
 pspatm: atomic psp has been read  and splines computed

- pspini: atom type   4  psp file is ../../../Psps_for_tests/ATOMICDATA/Br.GGA_PBE-JTH.xml
- pspatm: opening atomic psp file    ../../../Psps_for_tests/ATOMICDATA/Br.GGA_PBE-JTH.xml
- pspatm : Reading pseudopotential header in XML form from ../../../Psps_for_tests/ATOMICDATA/Br.GGA_PBE-JTH.xml
 Pseudopotential format is: paw10
 basis_size (lnmax)=  4 (lmn_size=  8), orbitals=   0   0   1   1
 Spheres core radius: rc_sph= 2.20000000
 1 radial meshes are used:
  - mesh 1: r(i)=AA*[exp(BB*(i-1))-1], size= 927 , AA= 0.40483E-03 BB= 0.14169E-01
 Shapefunction is BESSEL type: shapef(r,l)=aa(1,l)*jl(q(1,l)*r)+aa(2,l)*jl(q(2,l)*r)
 Radius for shape functions =  2.02066386
 mmax=  927
 Radial grid used for partial waves is grid 1
 Radial grid used for projectors is grid 1
 Radial grid used for (t)core density is grid 1
 Radial grid used for Vloc is grid 1
 Radial grid used for pseudo valence density is grid 1
 Mesh size for Vloc has been set to  763 to avoid numerical noise.
 Compensation charge density is not taken into account in XC energy/potential
 pspatm: atomic psp has been read  and splines computed

   2.54645917E+04                                ecore*ucvol(ha*bohr**3)
--------------------------------------------------------------------------------

_setup2: Arith. and geom. avg. npw (full set) are    6132.144    6132.134

================================================================================

--- !BeginCycle
iteration_state: {dtset: 1, }
solver: {iscf: 17, nstep: 2500, nline: 4, wfoptalg: 10, }
tolerances: {toldfe: 1.00E-08, }
...

     iter   Etot(hartree)      deltaE(h)  residm     nres2
 ETOT  1  -168.41725458120    -1.684E+02 2.447E-01 2.105E+01
 ETOT  2  -168.60158307251    -1.843E-01 1.654E-02 5.102E+00
 ETOT  3  -168.59852081285     3.062E-03 3.780E-03 1.088E+00
 ETOT  4  -168.59914579346    -6.250E-04 3.671E-03 5.075E-02
 ETOT  5  -168.59894216798     2.036E-04 6.803E-04 5.745E-03
 ETOT  6  -168.59898028287    -3.811E-05 1.131E-03 3.188E-04
 ETOT  7  -168.59898144749    -1.165E-06 4.943E-04 6.729E-05
 ETOT  8  -168.59898267446    -1.227E-06 1.025E-03 1.296E-05
 ETOT  9  -168.59898272599    -5.153E-08 2.901E-04 1.740E-06
 ETOT 10  -168.59898274680    -2.081E-08 4.334E-04 1.949E-07
 ETOT 11  -168.59898274948    -2.678E-09 1.911E-04 5.027E-08
 ETOT 12  -168.59898275008    -6.040E-10 2.910E-04 9.955E-09

 At SCF step   12, etot is converged : 
  for the second time, diff in etot=  6.040E-10 < toldfe=  1.000E-08

 Cartesian components of stress tensor (hartree/bohr^3)
  sigma(1 1)= -1.14247001E-04  sigma(3 2)=  2.32210677E-13
  sigma(2 2)= -1.14247001E-04  sigma(3 1)=  2.32211105E-13
  sigma(3 3)= -1.14271128E-04  sigma(2 1)= -4.64428776E-13


--- !ResultsGS
iteration_state: {dtset: 1, }
comment   : Summary of ground state results
lattice_vectors:
- [  0.0000000,  10.0098876,  10.0100698, ]
- [ 10.0098876,   0.0000000,  10.0100698, ]
- [ 10.0098876,  10.0098876,   0.0000000, ]
lattice_lengths: [  14.15625,   14.15625,   14.15612, ]
lattice_angles: [ 60.000,  60.000,  59.999, ] # degrees, (23, 13, 12)
lattice_volume:   2.0059749E+03
convergence: {deltae: -6.040E-10, res2:  9.955E-09, residm:  2.910E-04, diffor: null, }
etotal    :  -1.68598983E+02
entropy   :   0.00000000E+00
fermie    :  -8.76050156E-03
cartesian_stress_tensor: # hartree/bohr^3
- [ -1.14247001E-04,  -4.64428776E-13,   2.32211105E-13, ]
- [ -4.64428776E-13,  -1.14247001E-04,   2.32210677E-13, ]
- [  2.32211105E-13,   2.32210677E-13,  -1.14271128E-04, ]
pressure_GPa:   3.3615E+00
xred      :
- [  2.5204E-01,   2.5204E-01,   2.4796E-01, Cs]
- [  7.5204E-01,   7.5204E-01,   7.4796E-01, Cs]
- [  2.5276E-01,   2.5276E-01,   7.4724E-01, Br]
- [  7.3752E-01,   7.3752E-01,   2.6248E-01,  I]
- [  2.4666E-01,   7.5310E-01,   7.5334E-01, Br]
- [  7.5310E-01,   2.4666E-01,   7.5334E-01, Br]
- [  2.4666E-01,   7.5310E-01,   2.4690E-01, Br]
- [  7.5310E-01,   2.4666E-01,   2.4690E-01, Br]
- [  6.1421E-03,   6.1421E-03,  -6.1421E-03, Zr]
cartesian_forces: # hartree/bohr
- [  1.45328963E-21,  -1.37985189E-21,   1.67705933E-05, ]
- [  4.39527468E-22,  -3.66089728E-22,   1.67705933E-05, ]
- [ -7.69325659E-22,   8.42763399E-22,  -7.65660590E-06, ]
- [ -4.39733054E-22,   5.13170794E-22,  -2.95840243E-05, ]
- [ -6.82105990E-06,   2.54898483E-16,   3.78230191E-06, ]
- [  2.54898585E-16,  -6.82105990E-06,   3.78230191E-06, ]
- [ -2.54898833E-16,   6.82105990E-06,   3.78230191E-06, ]
- [  6.82105990E-06,  -2.54898088E-16,   3.78230191E-06, ]
- [  1.45745026E-22,  -7.23072858E-23,  -1.14297641E-05, ]
force_length_stats: {min:   7.65660590E-06, max:   2.95840243E-05, mean:   1.26010778E-05, }
...

 Integrated electronic density in atomic spheres:
 ------------------------------------------------
 Atom  Sphere_radius  Integrated_density
    1        2.20660          5.37294057
    2        2.20660          5.37294057
    3        2.20000          4.94821471
    4        2.30022          4.04896481
    5        2.20000          4.94865497
    6        2.20000          4.94865497
    7        2.20000          4.94865497
    8        2.20000          4.94865497
    9        2.21000          8.85328894

 PAW TEST:
 ==== Compensation charge inside spheres ============
 The following values must be close to each other ...
 Compensation charge over spherical meshes =     -4.946486689880894
 Compensation charge over fine fft grid    =     -4.946491057517101

 ==== Results concerning PAW augmentation regions ====

 Total pseudopotential strength Dij (hartree):
 Atom #  1
   0.41633  -0.13800   0.00000  -0.00000   0.00000   0.00000   0.00001   0.00000   0.00000   0.00000   0.00000   0.00000 ...
  -0.13800   0.04141   0.00000   0.00000   0.00000   0.00000  -0.00000   0.00000  -0.00000   0.00000  -0.00000   0.00000 ...
   0.00000   0.00000  -0.09063   0.00000  -0.00000  -0.16834   0.00000  -0.00000   0.00000  -0.00000   0.00000  -0.00000 ...
  -0.00000   0.00000   0.00000  -0.09063   0.00000   0.00000  -0.16834   0.00000  -0.00000   0.00000  -0.00000   0.00000 ...
   0.00000   0.00000  -0.00000   0.00000  -0.09063  -0.00000   0.00000  -0.16834   0.00000  -0.00000   0.00000  -0.00000 ...
   0.00000   0.00000  -0.16834   0.00000  -0.00000   0.39679   0.00000   0.00001   0.00000   0.00000   0.00000   0.00000 ...
   0.00001  -0.00000   0.00000  -0.16834   0.00000   0.00000   0.39680   0.00000   0.00000   0.00000   0.00000   0.00000 ...
   0.00000   0.00000  -0.00000   0.00000  -0.16834   0.00001   0.00000   0.39679   0.00000   0.00000   0.00000   0.00000 ...
   0.00000  -0.00000   0.00000  -0.00000   0.00000   0.00000   0.00000   0.00000   0.00564   0.00000  -0.00000   0.00000 ...
   0.00000   0.00000  -0.00000   0.00000  -0.00000   0.00000   0.00000   0.00000   0.00000   0.00564   0.00000   0.00000 ...
   0.00000  -0.00000   0.00000  -0.00000   0.00000   0.00000   0.00000   0.00000  -0.00000   0.00000   0.00564   0.00000 ...
   0.00000   0.00000  -0.00000   0.00000  -0.00000   0.00000   0.00000   0.00000   0.00000   0.00000   0.00000   0.00564 ...
   ...  only 12  components have been written...
 Atom #  9
   3.05205  -0.88845   0.00000  -0.00003   0.00000   0.00000   0.00000   0.00000   0.00000   0.00000  -0.00001   0.00000 ...
  -0.88845   0.26537   0.00000   0.00001   0.00000   0.00000  -0.00000   0.00000   0.00000   0.00000  -0.00000   0.00000 ...
   0.00000   0.00000   0.27726   0.00000   0.00000  -0.05668   0.00000   0.00000   0.00000   0.00005   0.00000   0.00000 ...
  -0.00003   0.00001   0.00000   0.27723   0.00000   0.00000  -0.05668   0.00000   0.00000   0.00000   0.00006   0.00000 ...
   0.00000   0.00000   0.00000   0.00000   0.27726   0.00000   0.00000  -0.05668   0.00000   0.00000   0.00000   0.00005 ...
   0.00000   0.00000  -0.05668   0.00000   0.00000   0.01544   0.00000   0.00000   0.00000  -0.00001   0.00000   0.00000 ...
   0.00000  -0.00000   0.00000  -0.05668   0.00000   0.00000   0.01544   0.00000   0.00000   0.00000  -0.00001   0.00000 ...
   0.00000   0.00000   0.00000   0.00000  -0.05668   0.00000   0.00000   0.01544   0.00000   0.00000   0.00000  -0.00001 ...
   0.00000   0.00000   0.00000   0.00000   0.00000   0.00000   0.00000   0.00000  -0.00495   0.00000   0.00000   0.00000 ...
   0.00000   0.00000   0.00005   0.00000   0.00000  -0.00001   0.00000   0.00000   0.00000  -0.00495   0.00000   0.00000 ...
  -0.00001  -0.00000   0.00000   0.00006   0.00000   0.00000  -0.00001   0.00000   0.00000   0.00000  -0.00486   0.00000 ...
   0.00000   0.00000   0.00000   0.00000   0.00005   0.00000   0.00000  -0.00001   0.00000   0.00000   0.00000  -0.00495 ...
   ...  only 12  components have been written...


 Augmentation waves occupancies Rhoij:
 Atom #  1
   1.99908  -0.01163   0.00000  -0.00000   0.00000   0.00000  -0.00002   0.00000   0.00250   0.00000   0.00114   0.00000 ...
  -0.01163   0.19701   0.00000  -0.00191   0.00000   0.00000   0.00004   0.00000  -0.02420   0.00000  -0.01561   0.00000 ...
   0.00000   0.00000   2.00962   0.00000  -0.00185  -0.00491   0.00000   0.00030   0.00000  -0.00096   0.00000  -0.00198 ...
  -0.00000  -0.00191   0.00000   2.00814   0.00000   0.00000  -0.00465   0.00000  -0.00185   0.00000  -0.00166   0.00000 ...
   0.00000   0.00000  -0.00185   0.00000   2.00962   0.00030   0.00000  -0.00491   0.00000  -0.00198   0.00000  -0.00096 ...
   0.00000   0.00000  -0.00491   0.00000   0.00030   0.00016   0.00000  -0.00002   0.00000  -0.00001   0.00000   0.00003 ...
  -0.00002   0.00004   0.00000  -0.00465   0.00000   0.00000   0.00014   0.00000   0.00002   0.00000   0.00008   0.00000 ...
   0.00000   0.00000   0.00030   0.00000  -0.00491  -0.00002   0.00000   0.00016   0.00000   0.00003   0.00000  -0.00001 ...
   0.00250  -0.02420   0.00000  -0.00185   0.00000   0.00000   0.00002   0.00000   0.08865   0.00000   0.01729   0.00000 ...
   0.00000   0.00000  -0.00096   0.00000  -0.00198  -0.00001   0.00000   0.00003   0.00000   0.06376   0.00000  -0.00068 ...
   0.00114  -0.01561   0.00000  -0.00166   0.00000   0.00000   0.00008   0.00000   0.01729   0.00000   0.05117   0.00000 ...
   0.00000   0.00000  -0.00198   0.00000  -0.00096   0.00003   0.00000  -0.00001   0.00000  -0.00068   0.00000   0.06376 ...
   ...  only 12  components have been written...
 Atom #  9
   1.99353  -0.06418   0.00000   0.00049   0.00000   0.00000   0.00189   0.00000   0.00000   0.00000   0.00205   0.00000 ...
  -0.06418   1.07693   0.00000  -0.00022   0.00000   0.00000   0.00834   0.00000   0.00000   0.00000  -0.01366   0.00000 ...
   0.00000   0.00000   1.96843   0.00000   0.00000  -0.19241   0.00000   0.00000   0.00000   0.00330   0.00000   0.00000 ...
   0.00049  -0.00022   0.00000   1.96897   0.00000   0.00000  -0.18750   0.00000   0.00000   0.00000   0.00058   0.00000 ...
   0.00000   0.00000   0.00000   0.00000   1.96843   0.00000   0.00000  -0.19241   0.00000   0.00000   0.00000   0.00330 ...
   0.00000   0.00000  -0.19241   0.00000   0.00000   1.72330   0.00000   0.00000   0.00000  -0.04963   0.00000   0.00000 ...
   0.00189   0.00834   0.00000  -0.18750   0.00000   0.00000   1.64547   0.00000   0.00000   0.00000   0.07369   0.00000 ...
   0.00000   0.00000   0.00000   0.00000  -0.19241   0.00000   0.00000   1.72330   0.00000   0.00000   0.00000  -0.04963 ...
   0.00000   0.00000   0.00000   0.00000   0.00000   0.00000   0.00000   0.00000   0.51159   0.00000   0.00000   0.00000 ...
   0.00000   0.00000   0.00330   0.00000   0.00000  -0.04963   0.00000   0.00000   0.00000   0.51307   0.00000   0.00000 ...
   0.00205  -0.01366   0.00000   0.00058   0.00000   0.00000   0.07369   0.00000   0.00000   0.00000   1.45457   0.00000 ...
   0.00000   0.00000   0.00000   0.00000   0.00330   0.00000   0.00000  -0.04963   0.00000   0.00000   0.00000   0.51307 ...
   ...  only 12  components have been written...


================================================================================

 ----iterations are completed or convergence reached----

 Mean square residual over all n,k,spin=   62.823E-08; max=  29.103E-05
 reduced coordinates (array xred) for    9 atoms
       0.252035108600      0.252035108600      0.247964891400
       0.752035108600      0.752035108600      0.747964891400
       0.252764670330      0.252764670330      0.747235329670
       0.737518400980      0.737518400980      0.262481599020
       0.246656054490      0.753096253260      0.753343945510
       0.753096253260      0.246656054490      0.753343945510
       0.246656054490      0.753096253260      0.246903746740
       0.753096253260      0.246656054490      0.246903746740
       0.006142096010      0.006142096010     -0.006142096010
 rms dE/dt=  1.1831E-04; max dE/dt=  2.8294E-04; dE/dt below (all hartree)
    1      -0.000181072226     -0.000181072226      0.000000000000
    2      -0.000181072226     -0.000181072226      0.000000000000
    3       0.000063445743      0.000063445743      0.000000000000
    4       0.000282940731      0.000282940731      0.000000000000
    5      -0.000051058522      0.000017219520      0.000068278043
[...]
                       9.9682495701E+00  4.9352165878E+00  9.9689845286E+00
                       4.9352165878E+00  9.9682495701E+00  9.9689845286E+00
                      -5.3864026646E-12 -5.3864026646E-12  1.2480564836E-01
            xcart6     4.9786394491E+00  4.9786394491E+00  5.0207224631E+00
                       1.4935918347E+01  1.4935918347E+01  1.4985712021E+01
                       9.9572788986E+00  9.9572788986E+00  5.0566953857E+00
                       9.9572788980E+00  9.9572788980E+00  1.4689048566E+01
                       1.4980550124E+01  9.9572788986E+00  9.9606295739E+00
                       9.9572788986E+00  1.4980550124E+01  9.9606295739E+00
                       9.9572788980E+00  4.9340076730E+00  9.9606295739E+00
                       4.9340076730E+00  9.9572788980E+00  9.9606295739E+00
                      -7.0268866623E-12 -7.0268866623E-12  1.2521973402E-01
            xcart7     4.9743118759E+00  4.9743118759E+00  5.0148613240E+00
                       1.4922935628E+01  1.4922935628E+01  1.4967099718E+01
                       9.9486237519E+00  9.9486237519E+00  5.0562860820E+00
                       9.9486237516E+00  9.9486237516E+00  1.4666694043E+01
                       1.4964527679E+01  9.9486237519E+00  9.9467704617E+00
                       9.9486237519E+00  1.4964527679E+01  9.9467704617E+00
                       9.9486237516E+00  4.9327198249E+00  9.9467704617E+00
                       4.9327198249E+00  9.9486237516E+00  9.9467704617E+00
                      -3.8356414954E-12 -3.8356414954E-12  1.2588414144E-01
            xcart8     4.9715805882E+00  4.9715805882E+00  5.0123414661E+00
                       1.4914741765E+01  1.4914741765E+01  1.4960475450E+01
                       9.9431611766E+00  9.9431611766E+00  5.0560701376E+00
                       9.9431611763E+00  9.9431611763E+00  1.4660132311E+01
                       1.4954254248E+01  9.9431611766E+00  9.9424146478E+00
                       9.9431611766E+00  1.4954254248E+01  9.9424146478E+00
                       9.9431611763E+00  4.9320681049E+00  9.9424146478E+00
                       4.9320681049E+00  9.9431611763E+00  9.9424146478E+00
                      -3.9827755904E-12 -3.9827755904E-12  1.2639391748E-01
            xcart9     4.9687578704E+00  4.9687578704E+00  5.0107850780E+00
                       1.4906273611E+01  1.4906273611E+01  1.4955180739E+01
                       9.9375157409E+00  9.9375157409E+00  5.0554164086E+00
                       9.9375157408E+00  9.9375157408E+00  1.4653644719E+01
                       1.4943731172E+01  9.9375157409E+00  9.9384866281E+00
                       9.9375157409E+00  1.4943731172E+01  9.9384866281E+00
                       9.9375157408E+00  4.9313003093E+00  9.9384866281E+00
                       4.9313003093E+00  9.9375157408E+00  9.9384866281E+00
                      -8.4862162008E-13 -8.4862162008E-13  1.2619183254E-01
            xcart10    4.9660371749E+00  4.9660371749E+00  5.0086753711E+00
                       1.4898111525E+01  1.4898111525E+01  1.4948924517E+01
                       9.9320743498E+00  9.9320743498E+00  5.0545625193E+00
                       9.9320743498E+00  9.9320743498E+00  1.4646792886E+01
                       1.4933497432E+01  9.9320743498E+00  9.9341915057E+00
                       9.9320743498E+00  1.4933497432E+01  9.9341915057E+00
                       9.9320743498E+00  4.9306512675E+00  9.9341915057E+00
                       4.9306512675E+00  9.9320743498E+00  9.9341915057E+00
                      -7.1243588753E-13 -7.1243588753E-13  1.2627185356E-01
            xcart11    4.9636179798E+00  4.9636179798E+00  5.0059096077E+00
                       1.4890853939E+01  1.4890853939E+01  1.4940805310E+01
                       9.9272359596E+00  9.9272359596E+00  5.0543361008E+00
                       9.9272359595E+00  9.9272359595E+00  1.4637510909E+01
                       1.4924543048E+01  9.9272359596E+00  9.9284985214E+00
                       9.9272359596E+00  1.4924543048E+01  9.9284985214E+00
                       9.9272359595E+00  4.9299288708E+00  9.9284985214E+00
                       4.9299288708E+00  9.9272359595E+00  9.9284985214E+00
                      -1.2774048181E-12 -1.2774048181E-12  1.2660960269E-01
            xcart12    4.9609249559E+00  4.9609249559E+00  5.0034425262E+00
                       1.4882774868E+01  1.4882774868E+01  1.4934080995E+01
                       9.9218499118E+00  9.9218499118E+00  5.0540359373E+00
                       9.9218499118E+00  9.9218499118E+00  1.4630508405E+01
                       1.4914425224E+01  9.9218499118E+00  9.9240394058E+00
                       9.9218499118E+00  1.4914425224E+01  9.9240394058E+00
                       9.9218499118E+00  4.9292745998E+00  9.9240394058E+00
                       4.9292745998E+00  9.9218499118E+00  9.9240394058E+00
                      -2.3369055603E-13 -2.3369055603E-13  1.2688226624E-01
            xcart13    4.9582749691E+00  4.9582749691E+00  5.0007240439E+00
                       1.4874824907E+01  1.4874824907E+01  1.4926933048E+01
                       9.9165499384E+00  9.9165499384E+00  5.0536943154E+00
                       9.9165499381E+00  9.9165499381E+00  1.4623191547E+01
                       1.4904535876E+01  9.9165499384E+00  9.9194812734E+00
                       9.9165499384E+00  1.4904535876E+01  9.9194812734E+00
                       9.9165499381E+00  4.9285640004E+00  9.9194812734E+00
                       4.9285640004E+00  9.9165499381E+00  9.9194812734E+00
                      -4.3831693343E-12 -4.3831693343E-12  1.2720398773E-01
             xred1     2.5203510860E-01  2.5203510860E-01  2.4796489140E-01
                       7.5203510860E-01  7.5203510860E-01  7.4796489140E-01
                       2.5276467033E-01  2.5276467033E-01  7.4723532967E-01
                       7.3751840098E-01  7.3751840098E-01  2.6248159902E-01
                       2.4665605449E-01  7.5309625326E-01  7.5334394551E-01
                       7.5309625326E-01  2.4665605449E-01  7.5334394551E-01
                       2.4665605449E-01  7.5309625326E-01  2.4690374674E-01
                       7.5309625326E-01  2.4665605449E-01  2.4690374674E-01
                       6.1420960096E-03  6.1420960096E-03 -6.1420960096E-03
             xred2     2.5205896392E-01  2.5205896392E-01  2.4794103608E-01
                       7.5205896392E-01  7.5205896392E-01  7.4794103608E-01
                       2.5300038274E-01  2.5300038274E-01  7.4699961726E-01
                       7.3736733927E-01  7.3736733927E-01  2.6263266073E-01
                       2.4678702149E-01  7.5288609799E-01  7.5321297851E-01
                       7.5288609799E-01  2.4678702149E-01  7.5321297851E-01
                       2.4678702149E-01  7.5288609799E-01  2.4711390201E-01
                       7.5288609799E-01  2.4678702149E-01  2.4711390201E-01
                       6.1681111808E-03  6.1681111808E-03 -6.1681111808E-03
             xred3     2.5202445411E-01  2.5202445411E-01  2.4797554589E-01
                       7.5202445411E-01  7.5202445411E-01  7.4797554589E-01
                       2.5318889084E-01  2.5318889084E-01  7.4681110916E-01
                       7.3726601094E-01  7.3726601094E-01  2.6273398906E-01
                       2.4696784524E-01  7.5268484020E-01  7.5303215476E-01
                       7.5268484020E-01  2.4696784524E-01  7.5303215476E-01
                       2.4696784524E-01  7.5268484020E-01  2.4731515980E-01
                       7.5268484020E-01  2.4696784524E-01  2.4731515980E-01
                       6.1908191192E-03  6.1908191192E-03 -6.1908191192E-03
             xred4     2.5201169712E-01  2.5201169712E-01  2.4798830288E-01
                       7.5201169712E-01  7.5201169712E-01  7.4798830288E-01
                       2.5340495508E-01  2.5340495508E-01  7.4659504492E-01
                       7.3715028872E-01  7.3715028872E-01  2.6284971128E-01
                       2.4712611910E-01  7.5247395184E-01  7.5287388090E-01
                       7.5247395184E-01  2.4712611910E-01  7.5287388090E-01
                       2.4712611910E-01  7.5247395184E-01  2.4752604816E-01
                       7.5247395184E-01  2.4712611910E-01  2.4752604816E-01
                       6.2212200878E-03  6.2212200878E-03 -6.2212200878E-03
             xred5     2.5195531080E-01  2.5195531080E-01  2.4804468920E-01
                       7.5195531080E-01  7.5195531080E-01  7.4804468920E-01
                       2.5354990589E-01  2.5354990589E-01  7.4645009411E-01
                       7.3710906397E-01  7.3710906397E-01  2.6289093603E-01
                       2.4734012583E-01  7.5224652359E-01  7.5265987417E-01
                       7.5224652359E-01  2.4734012583E-01  7.5265987417E-01
                       2.4734012583E-01  7.5224652359E-01  2.4775347641E-01
                       7.5224652359E-01  2.4734012583E-01  2.4775347641E-01
                       6.2571097146E-03  6.2571097146E-03 -6.2571097146E-03
             xred6     2.5191809955E-01  2.5191809955E-01  2.4808190045E-01
                       7.5191809955E-01  7.5191809955E-01  7.4808190045E-01
                       2.5372306494E-01  2.5372306494E-01  7.4627693506E-01
                       7.3703281275E-01  7.3703281275E-01  2.6296718725E-01
                       2.4754007157E-01  7.5202239818E-01  7.5245992843E-01
                       7.5202239818E-01  2.4754007157E-01  7.5245992843E-01
                       2.4754007157E-01  7.5202239818E-01  2.4797760182E-01
                       7.5202239818E-01  2.4754007157E-01  2.4797760182E-01
                       6.2829837047E-03  6.2829837047E-03 -6.2829837047E-03
             xred7     2.5194640267E-01  2.5194640267E-01  2.4805359733E-01
                       7.5194640267E-01  7.5194640267E-01  7.4805359733E-01
                       2.5402758061E-01  2.5402758061E-01  7.4597241939E-01
                       7.3685403532E-01  7.3685403532E-01  2.6314596468E-01
                       2.4763494937E-01  7.5181563325E-01  7.5236505063E-01
                       7.5181563325E-01  2.4763494937E-01  7.5236505063E-01
                       2.4763494937E-01  7.5181563325E-01  2.4818436675E-01
                       7.5181563325E-01  2.4763494937E-01  2.4818436675E-01
                       6.3244134863E-03  6.3244134863E-03 -6.3244134863E-03
             xred8     2.5192370117E-01  2.5192370117E-01  2.4807629883E-01
                       7.5192370117E-01  7.5192370117E-01  7.4807629883E-01
                       2.5412153403E-01  2.5412153403E-01  7.4587846597E-01
                       7.3682825011E-01  7.3682825011E-01  2.6317174989E-01
                       2.4772562468E-01  7.5169945982E-01  7.5227437532E-01
                       7.5169945982E-01  2.4772562468E-01  7.5227437532E-01
                       2.4772562468E-01  7.5169945982E-01  2.4830054018E-01
                       7.5169945982E-01  2.4772562468E-01  2.4830054018E-01
                       6.3526445099E-03  6.3526445099E-03 -6.3526445099E-03
             xred9     2.5194015045E-01  2.5194015045E-01  2.4805984955E-01
                       7.5194015045E-01  7.5194015045E-01  7.4805984955E-01
                       2.5418419484E-01  2.5418419484E-01  7.4581580516E-01
                       7.3677904712E-01  7.3677904712E-01  2.6322095288E-01
                       2.4781824214E-01  7.5158755050E-01  7.5218175786E-01
                       7.5158755050E-01  2.4781824214E-01  7.5218175786E-01
                       2.4781824214E-01  7.5158755050E-01  2.4841244950E-01
                       7.5158755050E-01  2.4781824214E-01  2.4841244950E-01
                       6.3448718677E-03  6.3448718677E-03 -6.3448718677E-03
             xred10    2.5193912634E-01  2.5193912634E-01  2.4806087366E-01
                       7.5193912634E-01  7.5193912634E-01  7.4806087366E-01
                       2.5424727514E-01  2.5424727514E-01  7.4575272486E-01
                       7.3674173910E-01  7.3674173910E-01  2.6325826090E-01
                       2.4791390173E-01  7.5147669296E-01  7.5208609827E-01
                       7.5147669296E-01  2.4791390173E-01  7.5208609827E-01
                       2.4791390173E-01  7.5147669296E-01  2.4852330704E-01
                       7.5147669296E-01  2.4791390173E-01  2.4852330704E-01
                       6.3515436937E-03  6.3515436937E-03 -6.3515436937E-03
             xred11    2.5193569001E-01  2.5193569001E-01  2.4806430999E-01
                       7.5193569001E-01  7.5193569001E-01  7.4806430999E-01
                       2.5437288183E-01  2.5437288183E-01  7.4562711817E-01
                       7.3667159416E-01  7.3667159416E-01  2.6332840584E-01
                       2.4798124284E-01  7.5137484697E-01  7.5201875716E-01
                       7.5137484697E-01  2.4798124284E-01  7.5201875716E-01
                       2.4798124284E-01  7.5137484697E-01  2.4862515303E-01
                       7.5137484697E-01  2.4798124284E-01  2.4862515303E-01
                       6.3719643612E-03  6.3719643612E-03 -6.3719643612E-03
             xred12    2.5191947838E-01  2.5191947838E-01  2.4808052162E-01
                       7.5191947838E-01  7.5191947838E-01  7.4808052162E-01
                       2.5446681767E-01  2.5446681767E-01  7.4553318233E-01
                       7.3663483221E-01  7.3663483221E-01  2.6336516779E-01
                       2.4807275964E-01  7.5126272485E-01  7.5192724036E-01
                       7.5126272485E-01  2.4807275964E-01  7.5192724036E-01
                       2.4807275964E-01  7.5126272485E-01  2.4873727515E-01
                       7.5126272485E-01  2.4807275964E-01  2.4873727515E-01
                       6.3884244018E-03  6.3884244018E-03 -6.3884244018E-03
             xred13    2.5189496018E-01  2.5189496018E-01  2.4810503982E-01
                       7.5189496018E-01  7.5189496018E-01  7.4810503982E-01
                       2.5456316269E-01  2.5456316269E-01  7.4543683731E-01
                       7.3659498508E-01  7.3659498508E-01  2.6340501492E-01
                       2.4816306309E-01  7.5115916243E-01  7.5183693691E-01
                       7.5115916243E-01  2.4816306309E-01  7.5183693691E-01
                       2.4816306309E-01  7.5115916243E-01  2.4884083757E-01
                       7.5115916243E-01  2.4816306309E-01  2.4884083757E-01
                       6.4074808255E-03  6.4074808255E-03 -6.4074808255E-03
            znucl       55.00000   53.00000   40.00000   35.00000

================================================================================


- Timing analysis has been suppressed with timopt=0



================================================================================

 Suggested references for the acknowledgment of ABINIT usage.

 The users of ABINIT have little formal obligations with respect to the ABINIT group
 (those specified in the GNU General Public License, http://www.gnu.org/copyleft/gpl.txt).
 However, it is common practice in the scientific literature,
 to acknowledge the efforts of people that have made the research possible.
 In this spirit, please find below suggested citations of work written by ABINIT developers,
 corresponding to implementations inside of ABINIT that you have used in the present run.
 Note also that it will be of great value to readers of publications presenting these results,
 to read papers enabling them to understand the theoretical formalism and details
 of the ABINIT implementation.
 For information on why they are suggested, see also https://docs.abinit.org/theory/acknowledgments.
-
- [1] Implementation of the Projector Augmented-Wave Method in the ABINIT code.
- M. Torrent, F. Jollet, F. Bottin, G. Zerah, and X. Gonze Comput. Mat. Science 42, 337, (2008).
- Comment: PAW calculations. Strong suggestion to cite this paper.
- DOI and bibtex: see https://docs.abinit.org/theory/bibliography/#torrent2008
-
- [2] Libxc: A library of exchange and correlation functionals for density functional theory.
- M.A.L. Marques, M.J.T. Oliveira, T. Burnus, Computer Physics Communications 183, 2227 (2012).
- Comment: to be cited when LibXC is used (negative value of ixc)
- Strong suggestion to cite this paper.
- DOI and bibtex: see https://docs.abinit.org/theory/bibliography/#marques2012
-
- [3] The Abinit project: Impact, environment and recent developments.
- Computer Phys. Comm. 248, 107042 (2020).
- X.Gonze, B. Amadon, G. Antonius, F.Arnardi, L.Baguet, J.-M.Beuken,
- J.Bieder, F.Bottin, J.Bouchet, E.Bousquet, N.Brouwer, F.Bruneval,
- G.Brunin, T.Cavignac, J.-B. Charraud, Wei Chen, M.Cote, S.Cottenier,
- J.Denier, G.Geneste, Ph.Ghosez, M.Giantomassi, Y.Gillet, O.Gingras,
- D.R.Hamann, G.Hautier, Xu He, N.Helbig, N.Holzwarth, Y.Jia, F.Jollet,
- W.Lafargue-Dit-Hauret, K.Lejaeghere, M.A.L.Marques, A.Martin, C.Martins,
- H.P.C. Miranda, F.Naccarato, K. Persson, G.Petretto, V.Planes, Y.Pouillon,
- S.Prokhorenko, F.Ricci, G.-M.Rignanese, A.H.Romero, M.M.Schmitt, M.Torrent,
- M.J.van Setten, B.Van Troeye, M.J.Verstraete, G.Zerah and J.W.Zwanzig
- Comment: the fifth generic paper describing the ABINIT project.
- Note that a version of this paper, that is not formatted for Computer Phys. Comm. 
- is available at https://www.abinit.org/sites/default/files/ABINIT20.pdf .
- The licence allows the authors to put it on the Web.
- DOI and bibtex: see https://docs.abinit.org/theory/bibliography/#gonze2020
-
- [4] ABINIT: Overview, and focus on selected capabilities
- J. Chem. Phys. 152, 124102 (2020).
- A. Romero, D.C. Allan, B. Amadon, G. Antonius, T. Applencourt, L.Baguet,
- J.Bieder, F.Bottin, J.Bouchet, E.Bousquet, F.Bruneval,
- G.Brunin, D.Caliste, M.Cote,
- J.Denier, C. Dreyer, Ph.Ghosez, M.Giantomassi, Y.Gillet, O.Gingras,
- D.R.Hamann, G.Hautier, F.Jollet, G. Jomard,
- A.Martin, 
- H.P.C. Miranda, F.Naccarato, G.Petretto, N.A. Pike, V.Planes,
- S.Prokhorenko, T. Rangel, F.Ricci, G.-M.Rignanese, M.Royo, M.Stengel, M.Torrent,
- M.J.van Setten, B.Van Troeye, M.J.Verstraete, J.Wiktor, J.W.Zwanziger, and X.Gonze.
- Comment: a global overview of ABINIT, with focus on selected capabilities .
- Note that a version of this paper, that is not formatted for J. Chem. Phys 
- is available at https://www.abinit.org/sites/default/files/ABINIT20_JPC.pdf .
- The licence allows the authors to put it on the Web.
- DOI and bibtex: see https://docs.abinit.org/theory/bibliography/#romero2020
-
- [5] Recent developments in the ABINIT software package.
- Computer Phys. Comm. 205, 106 (2016).
- X.Gonze, F.Jollet, F.Abreu Araujo, D.Adams, B.Amadon, T.Applencourt,
- C.Audouze, J.-M.Beuken, J.Bieder, A.Bokhanchuk, E.Bousquet, F.Bruneval
- D.Caliste, M.Cote, F.Dahm, F.Da Pieve, M.Delaveau, M.Di Gennaro,
- B.Dorado, C.Espejo, G.Geneste, L.Genovese, A.Gerossier, M.Giantomassi,
- Y.Gillet, D.R.Hamann, L.He, G.Jomard, J.Laflamme Janssen, S.Le Roux,
- A.Levitt, A.Lherbier, F.Liu, I.Lukacevic, A.Martin, C.Martins,
- M.J.T.Oliveira, S.Ponce, Y.Pouillon, T.Rangel, G.-M.Rignanese,
- A.H.Romero, B.Rousseau, O.Rubel, A.A.Shukri, M.Stankovski, M.Torrent,
- M.J.Van Setten, B.Van Troeye, M.J.Verstraete, D.Waroquier, J.Wiktor,
- B.Xu, A.Zhou, J.W.Zwanziger.
- Comment: the fourth generic paper describing the ABINIT project.
- Note that a version of this paper, that is not formatted for Computer Phys. Comm. 
- is available at https://www.abinit.org/sites/default/files/ABINIT16.pdf .
- The licence allows the authors to put it on the Web.
- DOI and bibtex: see https://docs.abinit.org/theory/bibliography/#gonze2016
-
- Proc.   0 individual time (sec): cpu=      12090.2  wall=      12115.9

================================================================================

 Calculation completed.
.Delivered   0 WARNINGs and  20 COMMENTs to log file.
+Overall time at end (sec) : cpu=      72561.2  wall=      72695.4
