
.Version 9.2.2 of ABINIT 
.(MPI version, prepared for a x86_64_linux_gnu9.3 computer) 

.Copyright (C) 1998-2020 ABINIT group . 
 ABINIT comes with ABSOLUTELY NO WARRANTY.
 It is free software, and you are welcome to redistribute it
 under certain conditions (GNU General Public License,
 see ~abinit/COPYING or http://www.gnu.org/copyleft/gpl.txt).

 ABINIT is a project of the Universite Catholique de Louvain,
 Corning Inc. and other collaborators, see ~abinit/doc/developers/contributors.txt .
 Please read https://docs.abinit.org/theory/acknowledgments for suggested
 acknowledgments of the ABINIT effort.
 For more information, see https://www.abinit.org .

.Starting date : Thu 27 Oct 2022.
- ( at 03h01 )
  
- input  file    -> Cs2TiI6.in
- output file    -> Cs2TiI6.out
- root for input  files -> Cs2TiI6i
- root for output files -> Cs2TiI6o

- inpspheads : Reading pseudopotential header in XML form from 
-   ../../../Psps_for_tests/ATOMICDATA/Cs.GGA_PBE-JTH.xml
- inpspheads : Reading pseudopotential header in XML form from 
-   ../../../Psps_for_tests/ATOMICDATA/I.GGA_PBE-JTH.xml
- inpspheads : Reading pseudopotential header in XML form from 
-   ../../../Psps_for_tests/ATOMICDATA/Hf.GGA_PBE-JTH.xml
- inpspheads : Reading pseudopotential header in XML form from 
-   ../../../Psps_for_tests/ATOMICDATA/Br.GGA_PBE-JTH.xml

 DATASET    1 : space group I4/m m m (#139); Bravais tI (body-center tetrag.)
================================================================================
 Values of the parameters that define the memory need for DATASET  1.
     intxc =       0    ionmov =       0      iscf =      17    lmnmax =      18
     lnmax =       6     mgfft =      60  mpssoang =       3    mqgrid =    3546
     natom =       9  nloc_mem =       2    nspden =       1   nspinor =       1
    nsppol =       1      nsym =      16    n1xccc =       1    ntypat =       4
    occopt =       1   xclevel =       2
-    mband =          42        mffmem =           1         mkmem =          28
       mpw =        7712          nfft =      216000          nkpt =         163
Pmy_natom=         2
 PAW method is used; the additional fine FFT grid is defined by:
   mgfftf=        90    nfftf =    729000
================================================================================
P This job should need less than                     366.503 Mbytes of memory.
  Rough estimation (10% accuracy) of disk space for files :
_ WF disk file :    805.610 Mbytes ; DEN or POT disk file :      5.564 Mbytes.
================================================================================


 DATASET    2 : space group I4/m m m (#139); Bravais tI (body-center tetrag.)
================================================================================
 Values of the parameters that define the memory need for DATASET  2.
     intxc =       0    ionmov =       0      iscf =      17    lmnmax =      18
     lnmax =       6     mgfft =      60  mpssoang =       3    mqgrid =    3510
     natom =       9  nloc_mem =       2    nspden =       1   nspinor =       1
    nsppol =       1      nsym =      16    n1xccc =       1    ntypat =       4
    occopt =       1   xclevel =       2
-    mband =          42        mffmem =           1         mkmem =          28
       mpw =        7491          nfft =      216000          nkpt =         163
Pmy_natom=         2
 PAW method is used; the additional fine FFT grid is defined by:
   mgfftf=        90    nfftf =    729000
================================================================================
P This job should need less than                     362.152 Mbytes of memory.
  Rough estimation (10% accuracy) of disk space for files :
_ WF disk file :    782.524 Mbytes ; DEN or POT disk file :      5.564 Mbytes.
================================================================================


 DATASET    3 : space group I4/m m m (#139); Bravais tI (body-center tetrag.)
================================================================================
 Values of the parameters that define the memory need for DATASET  3.
     intxc =       0    ionmov =       0      iscf =      17    lmnmax =      18
     lnmax =       6     mgfft =      54  mpssoang =       3    mqgrid =    3474
     natom =       9  nloc_mem =       2    nspden =       1   nspinor =       1
    nsppol =       1      nsym =      16    n1xccc =       1    ntypat =       4
    occopt =       1   xclevel =       2
-    mband =          42        mffmem =           1         mkmem =          28
       mpw =        7271          nfft =      157464          nkpt =         163
Pmy_natom=         2
 PAW method is used; the additional fine FFT grid is defined by:
   mgfftf=        90    nfftf =    729000
================================================================================
P This job should need less than                     349.114 Mbytes of memory.
  Rough estimation (10% accuracy) of disk space for files :
_ WF disk file :    759.543 Mbytes ; DEN or POT disk file :      5.564 Mbytes.
================================================================================


 DATASET    4 : space group I4/m m m (#139); Bravais tI (body-center tetrag.)
================================================================================
 Values of the parameters that define the memory need for DATASET  4.
     intxc =       0    ionmov =       0      iscf =      17    lmnmax =      18
     lnmax =       6     mgfft =      54  mpssoang =       3    mqgrid =    3439
     natom =       9  nloc_mem =       2    nspden =       1   nspinor =       1
    nsppol =       1      nsym =      16    n1xccc =       1    ntypat =       4
    occopt =       1   xclevel =       2
-    mband =          42        mffmem =           1         mkmem =          28
       mpw =        7018          nfft =      157464          nkpt =         163
Pmy_natom=         2
 PAW method is used; the additional fine FFT grid is defined by:
   mgfftf=        90    nfftf =    729000
================================================================================
P This job should need less than                     344.127 Mbytes of memory.
  Rough estimation (10% accuracy) of disk space for files :
_ WF disk file :    733.114 Mbytes ; DEN or POT disk file :      5.564 Mbytes.
================================================================================


 DATASET    5 : space group I4/m m m (#139); Bravais tI (body-center tetrag.)
================================================================================
 Values of the parameters that define the memory need for DATASET  5.
     intxc =       0    ionmov =       0      iscf =      17    lmnmax =      18
     lnmax =       6     mgfft =      54  mpssoang =       3    mqgrid =    3403
     natom =       9  nloc_mem =       2    nspden =       1   nspinor =       1
    nsppol =       1      nsym =      16    n1xccc =       1    ntypat =       4
    occopt =       1   xclevel =       2
-    mband =          42        mffmem =           1         mkmem =          28
       mpw =        6814          nfft =      157464          nkpt =         163
Pmy_natom=         2
 PAW method is used; the additional fine FFT grid is defined by:
   mgfftf=        90    nfftf =    729000
================================================================================
P This job should need less than                     340.136 Mbytes of memory.
  Rough estimation (10% accuracy) of disk space for files :
_ WF disk file :    711.804 Mbytes ; DEN or POT disk file :      5.564 Mbytes.
================================================================================


 DATASET    6 : space group I4/m m m (#139); Bravais tI (body-center tetrag.)
================================================================================
 Values of the parameters that define the memory need for DATASET  6.
     intxc =       0    ionmov =       0      iscf =      17    lmnmax =      18
     lnmax =       6     mgfft =      54  mpssoang =       3    mqgrid =    3367
     natom =       9  nloc_mem =       2    nspden =       1   nspinor =       1
    nsppol =       1      nsym =      16    n1xccc =       1    ntypat =       4
    occopt =       1   xclevel =       2
-    mband =          42        mffmem =           1         mkmem =          28
       mpw =        6612          nfft =      157464          nkpt =         163
Pmy_natom=         2
 PAW method is used; the additional fine FFT grid is defined by:
   mgfftf=        90    nfftf =    729000
================================================================================
P This job should need less than                     336.190 Mbytes of memory.
  Rough estimation (10% accuracy) of disk space for files :
_ WF disk file :    690.703 Mbytes ; DEN or POT disk file :      5.564 Mbytes.
================================================================================


 DATASET    7 : space group I4/m m m (#139); Bravais tI (body-center tetrag.)
================================================================================
 Values of the parameters that define the memory need for DATASET  7.
     intxc =       0    ionmov =       0      iscf =      17    lmnmax =      18
     lnmax =       6     mgfft =      54  mpssoang =       3    mqgrid =    3331
     natom =       9  nloc_mem =       2    nspden =       1   nspinor =       1
    nsppol =       1      nsym =      16    n1xccc =       1    ntypat =       4
    occopt =       1   xclevel =       2
-    mband =          42        mffmem =           1         mkmem =          28
       mpw =        6381          nfft =      157464          nkpt =         163
Pmy_natom=         2
 PAW method is used; the additional fine FFT grid is defined by:
   mgfftf=        90    nfftf =    729000
================================================================================
P This job should need less than                     331.665 Mbytes of memory.
  Rough estimation (10% accuracy) of disk space for files :
_ WF disk file :    666.572 Mbytes ; DEN or POT disk file :      5.564 Mbytes.
================================================================================


 DATASET    8 : space group I4/m m m (#139); Bravais tI (body-center tetrag.)
================================================================================
 Values of the parameters that define the memory need for DATASET  8.
     intxc =       0    ionmov =       0      iscf =      17    lmnmax =      18
     lnmax =       6     mgfft =      54  mpssoang =       3    mqgrid =    3295
     natom =       9  nloc_mem =       2    nspden =       1   nspinor =       1
    nsppol =       1      nsym =      16    n1xccc =       1    ntypat =       4
    occopt =       1   xclevel =       2
-    mband =          42        mffmem =           1         mkmem =          28
       mpw =        6178          nfft =      157464          nkpt =         163
Pmy_natom=         2
 PAW method is used; the additional fine FFT grid is defined by:
   mgfftf=        90    nfftf =    729000
================================================================================
P This job should need less than                     327.712 Mbytes of memory.
  Rough estimation (10% accuracy) of disk space for files :
_ WF disk file :    645.366 Mbytes ; DEN or POT disk file :      5.564 Mbytes.
================================================================================


 DATASET    9 : space group I4/m m m (#139); Bravais tI (body-center tetrag.)
================================================================================
 Values of the parameters that define the memory need for DATASET  9.
     intxc =       0    ionmov =       0      iscf =      17    lmnmax =      18
     lnmax =       6     mgfft =      54  mpssoang =       3    mqgrid =    3260
     natom =       9  nloc_mem =       2    nspden =       1   nspinor =       1
    nsppol =       1      nsym =      16    n1xccc =       1    ntypat =       4
    occopt =       1   xclevel =       2
-    mband =          42        mffmem =           1         mkmem =          28
       mpw =        5986          nfft =      157464          nkpt =         163
Pmy_natom=         2
 PAW method is used; the additional fine FFT grid is defined by:
   mgfftf=        80    nfftf =    512000
================================================================================
P This job should need less than                     271.971 Mbytes of memory.
  Rough estimation (10% accuracy) of disk space for files :
_ WF disk file :    625.310 Mbytes ; DEN or POT disk file :      3.908 Mbytes.
================================================================================


 DATASET   10 : space group I4/m m m (#139); Bravais tI (body-center tetrag.)
================================================================================
 Values of the parameters that define the memory need for DATASET 10.
     intxc =       0    ionmov =       0      iscf =      17    lmnmax =      18
     lnmax =       6     mgfft =      50  mpssoang =       3    mqgrid =    3224
     natom =       9  nloc_mem =       2    nspden =       1   nspinor =       1
    nsppol =       1      nsym =      16    n1xccc =       1    ntypat =       4
    occopt =       1   xclevel =       2
-    mband =          42        mffmem =           1         mkmem =          28
       mpw =        5817          nfft =      125000          nkpt =         163
Pmy_natom=         2
 PAW method is used; the additional fine FFT grid is defined by:
   mgfftf=        80    nfftf =    512000
================================================================================
P This job should need less than                     263.836 Mbytes of memory.
  Rough estimation (10% accuracy) of disk space for files :
_ WF disk file :    607.656 Mbytes ; DEN or POT disk file :      3.908 Mbytes.
================================================================================

--------------------------------------------------------------------------------
------------- Echo of variables that govern the present computation ------------
--------------------------------------------------------------------------------
-
- outvars: echo of selected default values                                      
-   iomode0 =  0 , fftalg0 =112 , wfoptalg0 = 10
-
- outvars: echo of global parameters not present in the input file              
-  max_nthreads =    0
-
 -outvars: echo values of preprocessed input variables --------
            acell1     1.5243583039E+01  1.5269542633E+01  1.5243583039E+01 Bohr
            acell2     1.5084511772E+01  1.5125656518E+01  1.5084511772E+01 Bohr
            acell3     1.4927853509E+01  1.4976899811E+01  1.4927853509E+01 Bohr
            acell4     1.4771417205E+01  1.4827709763E+01  1.4771417205E+01 Bohr
            acell5     1.4619649485E+01  1.4668943890E+01  1.4619649485E+01 Bohr
            acell6     1.4467512163E+01  1.4510946620E+01  1.4467512163E+01 Bohr
            acell7     1.4318558287E+01  1.4346488586E+01  1.4318558287E+01 Bohr
            acell8     1.4170552447E+01  1.4180200282E+01  1.4170552447E+01 Bohr
            acell9     1.4023560827E+01  1.4012002461E+01  1.4023560827E+01 Bohr
            acell10    1.3877174939E+01  1.3842762684E+01  1.3877174939E+01 Bohr
              amu      1.32905430E+02  1.26904470E+02  1.78490000E+02
                       7.99040000E+01
           diemac      1.20000000E+01
             ecut      1.60000000E+01 Hartree
-          fftalg         112
           istwfk        2    0    0    0    0    0    3    0    0    0
                         0    0    0    0    0    0    0    0    0    0
                         0    0    0    0    0    0    0    0    0    0
                         0    0    0    0    0    0    0    0    0    0
                         0    0    7    0    0    0    0    0    0    0
                       outvar_i_n : Printing only first  50 k-points.
              ixc     -101130
           jdtset        1    2    3    4    5    6    7    8    9   10
              kpt      0.00000000E+00  0.00000000E+00  0.00000000E+00
                       8.33333333E-02  0.00000000E+00  0.00000000E+00
                       1.66666667E-01  0.00000000E+00  0.00000000E+00
                       2.50000000E-01  0.00000000E+00  0.00000000E+00
                       3.33333333E-01  0.00000000E+00  0.00000000E+00
                       4.16666667E-01  0.00000000E+00  0.00000000E+00
                       5.00000000E-01  0.00000000E+00  0.00000000E+00
                       8.33333333E-02  8.33333333E-02  0.00000000E+00
                       1.66666667E-01  8.33333333E-02  0.00000000E+00
                       2.50000000E-01  8.33333333E-02  0.00000000E+00
                       3.33333333E-01  8.33333333E-02  0.00000000E+00
                       4.16666667E-01  8.33333333E-02  0.00000000E+00
                       5.00000000E-01  8.33333333E-02  0.00000000E+00
                      -4.16666667E-01  8.33333333E-02  0.00000000E+00
                      -3.33333333E-01  8.33333333E-02  0.00000000E+00
                      -2.50000000E-01  8.33333333E-02  0.00000000E+00
                      -1.66666667E-01  8.33333333E-02  0.00000000E+00
                      -8.33333333E-02  8.33333333E-02  0.00000000E+00
                       1.66666667E-01  1.66666667E-01  0.00000000E+00
                       2.50000000E-01  1.66666667E-01  0.00000000E+00
                       3.33333333E-01  1.66666667E-01  0.00000000E+00
                       4.16666667E-01  1.66666667E-01  0.00000000E+00
                       5.00000000E-01  1.66666667E-01  0.00000000E+00
                      -4.16666667E-01  1.66666667E-01  0.00000000E+00
                      -3.33333333E-01  1.66666667E-01  0.00000000E+00
                      -2.50000000E-01  1.66666667E-01  0.00000000E+00
                      -1.66666667E-01  1.66666667E-01  0.00000000E+00
                       2.50000000E-01  2.50000000E-01  0.00000000E+00
                       3.33333333E-01  2.50000000E-01  0.00000000E+00
                       4.16666667E-01  2.50000000E-01  0.00000000E+00
                       5.00000000E-01  2.50000000E-01  0.00000000E+00
                      -4.16666667E-01  2.50000000E-01  0.00000000E+00
                      -3.33333333E-01  2.50000000E-01  0.00000000E+00
                      -2.50000000E-01  2.50000000E-01  0.00000000E+00
                       3.33333333E-01  3.33333333E-01  0.00000000E+00
                       4.16666667E-01  3.33333333E-01  0.00000000E+00
                       5.00000000E-01  3.33333333E-01  0.00000000E+00
                      -4.16666667E-01  3.33333333E-01  0.00000000E+00
                      -3.33333333E-01  3.33333333E-01  0.00000000E+00
                       4.16666667E-01  4.16666667E-01  0.00000000E+00
                       5.00000000E-01  4.16666667E-01  0.00000000E+00
                      -4.16666667E-01  4.16666667E-01  0.00000000E+00
                       5.00000000E-01  5.00000000E-01  0.00000000E+00
                       8.33333333E-02  0.00000000E+00  8.33333333E-02
                       1.66666667E-01  0.00000000E+00  8.33333333E-02
                       2.50000000E-01  0.00000000E+00  8.33333333E-02
                       3.33333333E-01  0.00000000E+00  8.33333333E-02
                       4.16666667E-01  0.00000000E+00  8.33333333E-02
                       5.00000000E-01  0.00000000E+00  8.33333333E-02
                      -4.16666667E-01  0.00000000E+00  8.33333333E-02
                       outvar_i_n : Printing only first  50 k-points.
         kptrlatt       12    0    0      0   12    0      0    0   12
          kptrlen1     1.82922996E+02
          kptrlen2     1.81014141E+02
          kptrlen3     1.79134242E+02
          kptrlen4     1.77257006E+02
          kptrlen5     1.75435794E+02
          kptrlen6     1.73610146E+02
          kptrlen7     1.71822699E+02
          kptrlen8     1.70046629E+02
          kptrlen9     1.68144030E+02
          kptrlen10    1.66113152E+02
P           mkmem          28
            natom           9
            nband          42
           ndtset          10
            ngfft1         60      60      60
            ngfft2         60      60      60
            ngfft3         54      54      54
            ngfft4         54      54      54
            ngfft5         54      54      54
            ngfft6         54      54      54
            ngfft7         54      54      54
            ngfft8         54      54      54
            ngfft9         54      54      54
            ngfft10        50      50      50
          ngfftdg1         90      90      90
          ngfftdg2         90      90      90
          ngfftdg3         90      90      90
          ngfftdg4         90      90      90
          ngfftdg5         90      90      90
          ngfftdg6         90      90      90
          ngfftdg7         90      90      90
          ngfftdg8         90      90      90
          ngfftdg9         80      80      80
          ngfftdg10        80      80      80
             nkpt         163
            nstep        2500
             nsym          16
           ntypat           4
              occ      2.000000  2.000000  2.000000  2.000000  2.000000  2.000000
                       2.000000  2.000000  2.000000  2.000000  2.000000  2.000000
                       2.000000  2.000000  2.000000  2.000000  2.000000  2.000000
                       2.000000  2.000000  2.000000  2.000000  2.000000  2.000000
                       2.000000  2.000000  2.000000  2.000000  2.000000  2.000000
                       2.000000  2.000000  2.000000  2.000000  2.000000  2.000000
                       0.000000  0.000000  0.000000  0.000000  0.000000  0.000000
        pawecutdg      4.00000000E+01 Hartree
            prtwf           0
            rprim1     0.0000000000E+00  7.0590053462E-01  7.0831097353E-01
                       7.0710678119E-01  0.0000000000E+00  7.0710678119E-01
                       7.0831097353E-01  7.0590053462E-01  0.0000000000E+00
            rprim2     0.0000000000E+00  7.0517279064E-01  7.0903549653E-01
                       7.0710678119E-01  0.0000000000E+00  7.0710678119E-01
                       7.0903549653E-01  7.0517279064E-01  0.0000000000E+00
            rprim3     0.0000000000E+00  7.0477588372E-01  7.0943002032E-01
                       7.0710678119E-01  0.0000000000E+00  7.0710678119E-01
                       7.0943002032E-01  7.0477588372E-01  0.0000000000E+00
            rprim4     0.0000000000E+00  7.0440175136E-01  7.0980150231E-01
                       7.0710678119E-01  0.0000000000E+00  7.0710678119E-01
                       7.0980150231E-01  7.0440175136E-01  0.0000000000E+00
            rprim5     0.0000000000E+00  7.0471449841E-01  7.0949099764E-01
                       7.0710678119E-01  0.0000000000E+00  7.0710678119E-01
                       7.0949099764E-01  7.0471449841E-01  0.0000000000E+00
            rprim6     0.0000000000E+00  7.0497750814E-01  7.0922966169E-01
                       7.0710678119E-01  0.0000000000E+00  7.0710678119E-01
                       7.0922966169E-01  7.0497750814E-01  0.0000000000E+00
            rprim7     0.0000000000E+00  7.0572477724E-01  7.0848608935E-01
                       7.0710678119E-01  0.0000000000E+00  7.0710678119E-01
                       7.0848608935E-01  7.0572477724E-01  0.0000000000E+00
            rprim8     0.0000000000E+00  7.0662502875E-01  7.0758820563E-01
                       7.0710678119E-01  0.0000000000E+00  7.0710678119E-01
                       7.0758820563E-01  7.0662502875E-01  0.0000000000E+00
            rprim9     0.0000000000E+00  7.0768910600E-01  7.0652397642E-01
                       7.0710678119E-01  0.0000000000E+00  7.0710678119E-01
                       7.0652397642E-01  7.0768910600E-01  0.0000000000E+00
            rprim10    0.0000000000E+00  7.0885590859E-01  7.0535331633E-01
                       7.0710678119E-01  0.0000000000E+00  7.0710678119E-01
                       7.0535331633E-01  7.0885590859E-01  0.0000000000E+00
          spgroup         139
           symrel      1  0  0   0  1  0   0  0  1      -1  0  0   0 -1  0   0  0 -1
                       0  0 -1   0 -1  0  -1  0  0       0  0  1   0  1  0   1  0  0
                       0 -1  1   0 -1  0   1 -1  0       0  1 -1   0  1  0  -1  1  0
                      -1  1  0   0  1  0   0  1 -1       1 -1  0   0 -1  0   0 -1  1
                       0 -1  1  -1  0  1   0  0  1       0  1 -1   1  0 -1   0  0 -1
                       0  0 -1   1  0 -1   0  1 -1       0  0  1  -1  0  1   0 -1  1
                       1  0  0   1  0 -1   1 -1  0      -1  0  0  -1  0  1  -1  1  0
                      -1  1  0  -1  0  1  -1  0  0       1 -1  0   1  0 -1   1  0  0
           toldfe      1.00000000E-08 Hartree
            typat      1  1  2  4  4  2  4  4  3
           useylm           1
              wtk        0.00058    0.00463    0.00463    0.00463    0.00463    0.00463
                         0.00231    0.00231    0.00926    0.00926    0.00926    0.00926
                         0.00926    0.00926    0.00926    0.00926    0.00926    0.00463
                         0.00231    0.00926    0.00926    0.00926    0.00926    0.00926
                         0.00926    0.00926    0.00463    0.00231    0.00926    0.00926
                         0.00926    0.00926    0.00926    0.00463    0.00231    0.00926
                         0.00926    0.00926    0.00463    0.00231    0.00926    0.00463
                         0.00116    0.00116    0.00463    0.00463    0.00463    0.00463
                         0.00463    0.00463
                       outvars : Printing only first  50 k-points.
           xangst1     2.8568153221E+00  2.8470933511E+00  2.8568153221E+00
                       8.5704459663E+00  8.5412800534E+00  8.5704459663E+00
                       5.7136306443E+00  8.5079427397E+00  5.7136306443E+00
                       5.7136306443E+00  5.6941867022E+00  2.6170355895E+00
                       5.7136306440E+00  5.6941867022E+00  8.8102256988E+00
                       5.7136306440E+00  2.8804306648E+00  5.7136306440E+00
                       8.8102256988E+00  5.6941867022E+00  5.7136306440E+00
                       2.6170355895E+00  5.6941867022E+00  5.7136306443E+00
                       3.4336909332E-22  6.2140675721E-22 -1.6808900474E-21
           xangst2     2.8298953240E+00  2.8144785312E+00  2.8298953240E+00
                       8.4896859719E+00  8.4434355936E+00  8.4896859719E+00
                       5.6597906479E+00  8.3840880306E+00  5.6597906479E+00
                       5.6597906480E+00  5.6289570624E+00  2.6152179887E+00
                       5.6597906479E+00  5.6289570624E+00  8.7043633071E+00
                       5.6597906479E+00  2.8738260942E+00  5.6597906479E+00
                       8.7043633071E+00  5.6289570624E+00  5.6597906479E+00
                       2.6152179887E+00  5.6289570624E+00  5.6597906480E+00
                       1.0429500447E-21 -4.9237953740E-22  6.0332969682E-21
           xangst3     2.8020640752E+00  2.7836814462E+00  2.8020640752E+00
                       8.4061922256E+00  8.3510443385E+00  8.4061922256E+00
                       5.6041281505E+00  8.2681714522E+00  5.6041281505E+00
                       5.6041281505E+00  5.5673628923E+00  2.6128565266E+00
                       5.6041281503E+00  5.5673628923E+00  8.5953997742E+00
                       5.6041281503E+00  2.8665543324E+00  5.6041281503E+00
                       8.5953997742E+00  5.5673628923E+00  5.6041281503E+00
                       2.6128565266E+00  5.5673628923E+00  5.6041281505E+00
                       2.9138879210E-21 -1.8095744640E-21  5.5845507050E-22
           xangst4     2.7741517516E+00  2.7530476422E+00  2.7741517516E+00
                       8.3224552548E+00  8.2591429267E+00  8.3224552548E+00
                       5.5483035032E+00  8.1537573826E+00  5.5483035032E+00
                       5.5483035032E+00  5.5060952845E+00  2.6096387636E+00
                       5.5483035031E+00  5.5060952845E+00  8.4869682427E+00
                       5.5483035031E+00  2.8584331864E+00  5.5483035031E+00
                       8.4869682427E+00  5.5060952845E+00  5.5483035031E+00
                       2.6096387636E+00  5.5060952845E+00  5.5483035032E+00
                       3.2301309509E-21 -3.8924722224E-23  4.6894628295E-22
           xangst5     2.7444478640E+00  2.7259714449E+00  2.7444478640E+00
                       8.2333435920E+00  8.1779143346E+00  8.2333435920E+00
                       5.4888957281E+00  8.0545601383E+00  5.4888957281E+00
                       5.4888957281E+00  5.4519428897E+00  2.6058363351E+00
                       5.4888957279E+00  5.4519428897E+00  8.3719551209E+00
                       5.4888957279E+00  2.8493256412E+00  5.4888957279E+00
                       8.3719551209E+00  5.4519428897E+00  5.4888957279E+00
                       2.6058363351E+00  5.4519428897E+00  5.4888957281E+00
                       3.9813274480E-21 -5.7001292163E-21  3.4108816233E-21
           xangst6     2.7148877761E+00  2.6986107924E+00  2.7148877761E+00
                       8.1446633283E+00  8.0958323771E+00  8.1446633283E+00
                       5.4297755522E+00  7.9554402363E+00  5.4297755522E+00
                       5.4297755522E+00  5.3972215847E+00  2.6012506321E+00
                       5.4297755521E+00  5.3972215847E+00  8.2583004723E+00
                       5.4297755521E+00  2.8390029331E+00  5.4297755521E+00
                       8.2583004723E+00  5.3972215847E+00  5.4297755521E+00
                       2.6012506321E+00  5.3972215847E+00  5.4297755522E+00
                       5.3749106923E-22  9.4888708715E-23 -7.4374549114E-23
           xangst7     2.6841189284E+00  2.6736576220E+00  2.6841189284E+00
                       8.0523567853E+00  8.0209728661E+00  8.0523567853E+00
                       5.3682378569E+00  7.8670847487E+00  5.3682378569E+00
                       5.3682378569E+00  5.3473152441E+00  2.5956442906E+00
                       5.3682378568E+00  5.3473152441E+00  8.1408314231E+00
                       5.3682378568E+00  2.8275457394E+00  5.3682378568E+00
                       8.1408314231E+00  5.3473152441E+00  5.3682378568E+00
                       2.5956442906E+00  5.3473152441E+00  5.3682378569E+00
                       3.1898252057E-22  2.0110230739E-22 -1.4649446507E-22
           xangst8     2.6530076512E+00  2.6493963480E+00  2.6530076512E+00
                       7.9590229536E+00  7.9481890439E+00  7.9590229536E+00
                       5.3060153025E+00  7.7826999697E+00  5.3060153025E+00
                       5.3060153025E+00  5.2987926959E+00  2.5891368283E+00
                       5.3060153023E+00  5.2987926959E+00  8.0228937765E+00
                       5.3060153023E+00  2.8148854222E+00  5.3060153023E+00
                       8.0228937765E+00  5.2987926959E+00  5.3060153023E+00
                       2.5891368283E+00  5.2987926959E+00  5.3060153025E+00
                      -1.6158933738E-22 -7.8337705287E-22 -2.3654770445E-21
           xangst9     2.6215391178E+00  2.6258623014E+00  2.6215391178E+00
                       7.8646173535E+00  7.8775869042E+00  7.8646173535E+00
                       5.2430782357E+00  7.7025177886E+00  5.2430782357E+00
                       5.2430782357E+00  5.2517246028E+00  2.5815276512E+00
                       5.2430782355E+00  5.2517246028E+00  7.9046288201E+00
                       5.2430782355E+00  2.8009314170E+00  5.2430782355E+00
                       7.9046288201E+00  5.2517246028E+00  5.2430782355E+00
                       2.5815276512E+00  5.2517246028E+00  5.2430782357E+00
                       7.8576162713E-22 -2.1868441630E-22  1.4584553883E-21
           xangst10    2.5898756423E+00  2.6027362587E+00  2.5898756423E+00
                       7.7696269269E+00  7.8082087760E+00  7.7696269269E+00
                       5.1797512846E+00  7.6253058955E+00  5.1797512846E+00
                       5.1797512847E+00  5.2054725173E+00  2.5728011018E+00
                       5.1797512846E+00  5.2054725173E+00  7.7867014675E+00
                       5.1797512846E+00  2.7856391392E+00  5.1797512846E+00
                       7.7867014675E+00  5.2054725173E+00  5.1797512846E+00
                       2.5728011018E+00  5.2054725173E+00  5.1797512847E+00
                      -5.2996565475E-21 -2.6932731232E-21  6.7521593800E-21
            xcart1     5.3985985710E+00  5.3802267084E+00  5.3985985710E+00
                       1.6195795713E+01  1.6140680125E+01  1.6195795713E+01
                       1.0797197142E+01  1.6077681732E+01  1.0797197142E+01
                       1.0797197142E+01  1.0760453417E+01  4.9454805442E+00
                       1.0797197142E+01  1.0760453417E+01  1.6648913740E+01
                       1.0797197142E+01  5.4432251013E+00  1.0797197142E+01
                       1.6648913740E+01  1.0760453417E+01  1.0797197142E+01
                       4.9454805442E+00  1.0760453417E+01  1.0797197142E+01
                       6.4887354888E-22  1.1742885883E-21 -3.1764218490E-21
            xcart2     5.3477271470E+00  5.3185936309E+00  5.3477271470E+00
                       1.6043181441E+01  1.5955780893E+01  1.6043181441E+01
                       1.0695454294E+01  1.5843630252E+01  1.0695454294E+01
                       1.0695454294E+01  1.0637187262E+01  4.9420457765E+00
                       1.0695454294E+01  1.0637187262E+01  1.6448862812E+01
                       1.0695454294E+01  5.4307442716E+00  1.0695454294E+01
                       1.6448862812E+01  1.0637187262E+01  1.0695454294E+01
                       4.9420457765E+00  1.0637187262E+01  1.0695454294E+01
                       1.9708899549E-21 -9.3046247912E-22  1.1401278948E-20
            xcart3     5.2951337089E+00  5.2603955744E+00  5.2951337089E+00
                       1.5885401127E+01  1.5781186723E+01  1.5885401127E+01
                       1.0590267418E+01  1.5624579664E+01  1.0590267418E+01
                       1.0590267418E+01  1.0520791149E+01  4.9375832598E+00
                       1.0590267418E+01  1.0520791149E+01  1.6242951576E+01
                       1.0590267418E+01  5.4170026333E+00  1.0590267418E+01
                       1.6242951576E+01  1.0520791149E+01  1.0590267418E+01
                       4.9375832598E+00  1.0520791149E+01  1.0590267418E+01
                       5.5064501526E-21 -3.4196001540E-21  1.0553271408E-21
            xcart4     5.2423870616E+00  5.2025060746E+00  5.2423870616E+00
                       1.5727161185E+01  1.5607518224E+01  1.5727161185E+01
                       1.0484774123E+01  1.5408368407E+01  1.0484774123E+01
                       1.0484774123E+01  1.0405012149E+01  4.9315025690E+00
                       1.0484774123E+01  1.0405012149E+01  1.6038045677E+01
                       1.0484774123E+01  5.4016558914E+00  1.0484774123E+01
                       1.6038045677E+01  1.0405012149E+01  1.0484774123E+01
                       4.9315025690E+00  1.0405012149E+01  1.0484774123E+01
                       6.1040628706E-21 -7.3557064802E-23  8.8618004580E-22
            xcart5     5.1862548489E+00  5.1513394769E+00  5.1862548489E+00
                       1.5558764547E+01  1.5454018431E+01  1.5558764547E+01
                       1.0372509698E+01  1.5220912782E+01  1.0372509698E+01
                       1.0372509698E+01  1.0302678954E+01  4.9243170205E+00
                       1.0372509698E+01  1.0302678954E+01  1.5820702375E+01
                       1.0372509698E+01  5.3844451252E+00  1.0372509698E+01
                       1.5820702375E+01  1.0302678954E+01  1.0372509698E+01
                       4.9243170205E+00  1.0302678954E+01  1.0372509698E+01
                       7.5236185221E-21 -1.0771683141E-20  6.4456321398E-21
            xcart6     5.1303943783E+00  5.0996353368E+00  5.1303943783E+00
                       1.5391183135E+01  1.5298906010E+01  1.5391183135E+01
                       1.0260788757E+01  1.5033603313E+01  1.0260788757E+01
                       1.0260788757E+01  1.0199270674E+01  4.9156512977E+00
                       1.0260788757E+01  1.0199270674E+01  1.5605926216E+01
                       1.0260788757E+01  5.3649380341E+00  1.0260788757E+01
                       1.5605926216E+01  1.0199270674E+01  1.0260788757E+01
                       4.9156512977E+00  1.0199270674E+01  1.0260788757E+01
                       1.0157109197E-21  1.7931367257E-22 -1.4054752908E-22
            xcart7     5.0722496828E+00  5.0524806787E+00  5.0722496828E+00
                       1.5216749048E+01  1.5157442036E+01  1.5216749048E+01
                       1.0144499366E+01  1.4866635639E+01  1.0144499366E+01
                       1.0144499366E+01  1.0104961357E+01  4.9050568477E+00
                       1.0144499366E+01  1.0104961357E+01  1.5383941884E+01
                       1.0144499366E+01  5.3432870757E+00  1.0144499366E+01
                       1.5383941884E+01  1.0104961357E+01  1.0144499366E+01
                       4.9050568477E+00  1.0104961357E+01  1.0144499366E+01
                       6.0278960505E-22  3.8002828566E-22 -2.7683441896E-22
            xcart8     5.0134578892E+00  5.0066335151E+00  5.0134578892E+00
                       1.5040373668E+01  1.5019900545E+01  1.5040373668E+01
                       1.0026915779E+01  1.4707171517E+01  1.0026915779E+01
                       1.0026915779E+01  1.0013267030E+01  4.8927595260E+00
                       1.0026915778E+01  1.0013267030E+01  1.5161072031E+01
                       1.0026915778E+01  5.3193625434E+00  1.0026915778E+01
                       1.5161072031E+01  1.0013267030E+01  1.0026915778E+01
                       4.8927595260E+00  1.0013267030E+01  1.0026915779E+01
                      -3.0535959364E-22 -1.4803680887E-21 -4.4701037878E-21
            xcart9     4.9539909793E+00  4.9621606123E+00  4.9539909793E+00
                       1.4861972938E+01  1.4886481837E+01  1.4861972938E+01
                       9.9079819588E+00  1.4555649154E+01  9.9079819588E+00
                       9.9079819589E+00  9.9243212246E+00  4.8783802652E+00
                       9.9079819584E+00  9.9243212246E+00  1.4937583652E+01
                       9.9079819584E+00  5.2929932951E+00  9.9079819584E+00
                       1.4937583652E+01  9.9243212246E+00  9.9079819584E+00
                       4.8783802652E+00  9.9243212246E+00  9.9079819589E+00
                       1.4848742810E-21 -4.1325365633E-22  2.7560812610E-21
            xcart10    4.8941556822E+00  4.9184587250E+00  4.8941556822E+00
                       1.4682467047E+01  1.4755376175E+01  1.4682467047E+01
                       9.7883113644E+00  1.4409739822E+01  9.7883113644E+00
                       9.7883113645E+00  9.8369174500E+00  4.8618894768E+00
                       9.7883113643E+00  9.8369174500E+00  1.4714733252E+01
                       9.7883113643E+00  5.2640950781E+00  9.7883113643E+00
                       1.4714733252E+01  9.8369174500E+00  9.7883113643E+00
                       4.8618894768E+00  9.8369174500E+00  9.7883113645E+00
                      -1.0014899473E-20 -5.0895486039E-21  1.2759732034E-20
             xred1     2.5000000000E-01  2.5000000000E-01  2.5000000000E-01
                       7.5000000000E-01  7.5000000000E-01  7.5000000000E-01
                       7.4707268874E-01  2.5292731126E-01  7.4707268874E-01
                       2.2901686795E-01  2.2901686795E-01  7.7098313205E-01
                       7.7098313205E-01  7.7098313205E-01  2.2901686795E-01
                       2.5292731126E-01  7.4707268874E-01  2.5292731126E-01
                       2.2901686795E-01  7.7098313205E-01  7.7098313205E-01
                       7.7098313205E-01  2.2901686795E-01  2.2901686795E-01
                      -1.2257796773E-22 -1.7161151564E-22  2.3170799625E-22
             xred2     2.5000000000E-01  2.5000000000E-01  2.5000000000E-01
                       7.5000000000E-01  7.5000000000E-01  7.5000000000E-01
                       7.4472836954E-01  2.5527163046E-01  7.4472836954E-01
                       2.3103486961E-01  2.3103486961E-01  7.6896513039E-01
                       7.6896513039E-01  7.6896513039E-01  2.3103486961E-01
                       2.5527163046E-01  7.4472836954E-01  2.5527163046E-01
                       2.3103486961E-01  7.6896513039E-01  7.6896513039E-01
                       7.6896513039E-01  2.3103486961E-01  2.3103486961E-01
                       3.9712337183E-22  6.6886958507E-22 -4.8459597678E-22
             xred3     2.5000000000E-01  2.5000000000E-01  2.5000000000E-01
                       7.5000000000E-01  7.5000000000E-01  7.5000000000E-01
                       7.4255725845E-01  2.5744274155E-01  7.4255725845E-01
                       2.3311891310E-01  2.3311891310E-01  7.6688108690E-01
                       7.6688108690E-01  7.6688108690E-01  2.3311891310E-01
                       2.5744274155E-01  7.4255725845E-01  2.5744274155E-01
                       2.3311891310E-01  7.6688108690E-01  7.6688108690E-01
                       7.6688108690E-01  2.3311891310E-01  2.3311891310E-01
                      -3.7266788963E-22  4.7231854994E-22  4.7635284605E-23
             xred4     2.5000000000E-01  2.5000000000E-01  2.5000000000E-01
                       7.5000000000E-01  7.5000000000E-01  7.5000000000E-01
                       7.4043010167E-01  2.5956989833E-01  7.4043010167E-01
                       2.3517447830E-01  2.3517447830E-01  7.6482552170E-01
                       7.6482552170E-01  7.6482552170E-01  2.3517447830E-01
                       2.5956989833E-01  7.4043010167E-01  2.5956989833E-01
                       2.3517447830E-01  7.6482552170E-01  7.6482552170E-01
                       7.6482552170E-01  2.3517447830E-01  2.3517447830E-01
                      -2.5236613091E-22  3.3688679254E-22  2.4529674322E-22
             xred5     2.5000000000E-01  2.5000000000E-01  2.5000000000E-01
                       7.5000000000E-01  7.5000000000E-01  7.5000000000E-01
                       7.3868713422E-01  2.6131286578E-01  7.3868713422E-01
                       2.3737345946E-01  2.3737345946E-01  7.6262654054E-01
                       7.6262654054E-01  7.6262654054E-01  2.3737345946E-01
                       2.6131286578E-01  7.3868713422E-01  2.6131286578E-01
                       2.3737345946E-01  7.6262654054E-01  7.6262654054E-01
                       7.6262654054E-01  2.3737345946E-01  2.3737345946E-01
                      -5.7472489725E-22  1.1961398034E-21 -4.7079764978E-22
             xred6     2.5000000000E-01  2.5000000000E-01  2.5000000000E-01
                       7.5000000000E-01  7.5000000000E-01  7.5000000000E-01
                       7.3699403586E-01  2.6300596414E-01  7.3699403586E-01
                       2.3953574205E-01  2.3953574205E-01  7.6046425795E-01
                       7.6046425795E-01  7.6046425795E-01  2.3953574205E-01
                       2.6300596414E-01  7.3699403586E-01  2.6300596414E-01
                       2.3953574205E-01  7.6046425795E-01  7.6046425795E-01
                       7.6046425795E-01  2.3953574205E-01  2.3953574205E-01
                      -4.7553031650E-23  3.3855495096E-23  6.5134060560E-23
             xred7     2.5000000000E-01  2.5000000000E-01  2.5000000000E-01
                       7.5000000000E-01  7.5000000000E-01  7.5000000000E-01
                       7.3561071207E-01  2.6438928793E-01  7.3561071207E-01
                       2.4175943390E-01  2.4175943390E-01  7.5824056610E-01
                       7.5824056610E-01  7.5824056610E-01  2.4175943390E-01
                       2.6438928793E-01  7.3561071207E-01  2.6438928793E-01
                       2.4175943390E-01  7.5824056610E-01  7.5824056610E-01
                       7.5824056610E-01  2.4175943390E-01  2.4175943390E-01
                      -2.4550683649E-23 -2.7384322530E-24  6.2158772608E-23
             xred8     2.5000000000E-01  2.5000000000E-01  2.5000000000E-01
                       7.5000000000E-01  7.5000000000E-01  7.5000000000E-01
                       7.3438426603E-01  2.6561573397E-01  7.3438426603E-01
                       2.4398128169E-01  2.4398128169E-01  7.5601871831E-01
                       7.5601871831E-01  7.5601871831E-01  2.4398128169E-01
                       2.6561573397E-01  7.3438426603E-01  2.6561573397E-01
                       2.4398128169E-01  7.5601871831E-01  7.5601871831E-01
                       7.5601871831E-01  2.4398128169E-01  2.4398128169E-01
                      -2.8159856169E-22 -1.6421188357E-22  1.3375789348E-22
             xred9     2.5000000000E-01  2.5000000000E-01  2.5000000000E-01
                       7.5000000000E-01  7.5000000000E-01  7.5000000000E-01
                       7.3333222619E-01  2.6666777381E-01  7.3333222619E-01
                       2.4618435346E-01  2.4618435346E-01  7.5381564654E-01
                       7.5381564654E-01  7.5381564654E-01  2.4618435346E-01
                       2.6666777381E-01  7.3333222619E-01  2.6666777381E-01
                       2.4618435346E-01  7.5381564654E-01  7.5381564654E-01
                       7.5381564654E-01  2.4618435346E-01  2.4618435346E-01
                       4.3330402817E-23  2.3483736864E-22 -8.4970898623E-23
             xred10    2.5000000000E-01  2.5000000000E-01  2.5000000000E-01
                       7.5000000000E-01  7.5000000000E-01  7.5000000000E-01
                       7.3243167360E-01  2.6756832640E-01  7.3243167360E-01
                       2.4835179919E-01  2.4835179919E-01  7.5164820081E-01
                       7.5164820081E-01  7.5164820081E-01  2.4835179919E-01
                       2.6756832640E-01  7.3243167360E-01  2.6756832640E-01
                       2.4835179919E-01  7.5164820081E-01  7.5164820081E-01
                       7.5164820081E-01  2.4835179919E-01  2.4835179919E-01
                       9.0466223815E-22  3.9890602390E-22 -1.4220548695E-21
            znucl       55.00000   53.00000   72.00000   35.00000

================================================================================

 chkinp: Checking input parameters for consistency, jdtset=   1.

 chkinp: Checking input parameters for consistency, jdtset=   2.

 chkinp: Checking input parameters for consistency, jdtset=   3.

 chkinp: Checking input parameters for consistency, jdtset=   4.

 chkinp: Checking input parameters for consistency, jdtset=   5.

 chkinp: Checking input parameters for consistency, jdtset=   6.

 chkinp: Checking input parameters for consistency, jdtset=   7.

 chkinp: Checking input parameters for consistency, jdtset=   8.

 chkinp: Checking input parameters for consistency, jdtset=   9.

 chkinp: Checking input parameters for consistency, jdtset=  10.

================================================================================
== DATASET  1 ==================================================================
-   mpi_nproc: 6, omp_nthreads: -1 (-1 if OMP is not activated)


--- !DatasetInfo
iteration_state: {dtset: 1, }
dimensions: {natom: 9, nkpt: 163, mband: 42, nsppol: 1, nspinor: 1, nspden: 1, mpw: 7712, }
cutoff_energies: {ecut:  16.0, pawecutdg:  40.0, }
electrons: {nelect:   7.20000000E+01, charge:   0.00000000E+00, occopt:   1.00000000E+00, tsmear:   1.00000000E-02, }
meta: {optdriver: 0, ionmov: 0, optcell: 0, iscf: 17, paral_kgb: 0, }
...

 Real(R)+Recip(G) space primitive vectors, cartesian coordinates (Bohr,Bohr^-1):
 R(1)=  0.0000000 10.7604534 10.7971971  G(1)= -0.0463083  0.0464664  0.0463083
 R(2)= 10.7971971  0.0000000 10.7971971  G(2)=  0.0463083 -0.0464664  0.0463083
 R(3)= 10.7971971 10.7604534  0.0000000  G(3)=  0.0463083  0.0464664 -0.0463083
 Unit cell volume ucvol=  2.5088958E+03 bohr^3
 Angles (23,13,12)=  5.99436497E+01  6.01127006E+01  5.99436497E+01 degrees

 Coarse grid specifications (used for wave-functions):

 getcut: wavevector=  0.0000  0.0000  0.0000  ngfft=  60  60  60
         ecut(hartree)=     16.000   => boxcut(ratio)=   2.18223

 Fine grid specifications (used for densities):

 getcut: wavevector=  0.0000  0.0000  0.0000  ngfft=  90  90  90
         ecut(hartree)=     40.000   => boxcut(ratio)=   2.07050

--- Pseudopotential description ------------------------------------------------
- pspini: atom type   1  psp file is ../../../Psps_for_tests/ATOMICDATA/Cs.GGA_PBE-JTH.xml
- pspatm: opening atomic psp file    ../../../Psps_for_tests/ATOMICDATA/Cs.GGA_PBE-JTH.xml
- pspatm : Reading pseudopotential header in XML form from ../../../Psps_for_tests/ATOMICDATA/Cs.GGA_PBE-JTH.xml
 Pseudopotential format is: paw10
 basis_size (lnmax)=  6 (lmn_size= 18), orbitals=   0   0   1   1   2   2
 Spheres core radius: rc_sph= 2.20660278
 1 radial meshes are used:
  - mesh 1: r(i)=AA*[exp(BB*(i-1))-1], size=1500 , AA= 0.15922E-03 BB= 0.87573E-02
 Shapefunction is SIN type: shapef(r)=[sin(pi*r/rshp)/(pi*r/rshp)]**2
 Radius for shape functions =  2.00394208
 mmax= 1500
 Radial grid used for partial waves is grid 1
 Radial grid used for projectors is grid 1
 Radial grid used for (t)core density is grid 1
 Radial grid used for Vloc is grid 1
 Radial grid used for pseudo valence density is grid 1
 Mesh size for Vloc has been set to 1341 to avoid numerical noise.
 Compensation charge density is not taken into account in XC energy/potential
 pspatm: atomic psp has been read  and splines computed

- pspini: atom type   2  psp file is ../../../Psps_for_tests/ATOMICDATA/I.GGA_PBE-JTH.xml
- pspatm: opening atomic psp file    ../../../Psps_for_tests/ATOMICDATA/I.GGA_PBE-JTH.xml
- pspatm : Reading pseudopotential header in XML form from ../../../Psps_for_tests/ATOMICDATA/I.GGA_PBE-JTH.xml
 Pseudopotential format is: paw10
 basis_size (lnmax)=  4 (lmn_size=  8), orbitals=   0   0   1   1
 Spheres core radius: rc_sph= 2.30022271
 1 radial meshes are used:
  - mesh 1: r(i)=AA*[exp(BB*(i-1))-1], size=2000 , AA= 0.12610E-03 BB= 0.66836E-02
 Shapefunction is SIN type: shapef(r)=[sin(pi*r/rshp)/(pi*r/rshp)]**2
 Radius for shape functions =  2.10879093
 mmax= 2000
 Radial grid used for partial waves is grid 1
 Radial grid used for projectors is grid 1
 Radial grid used for (t)core density is grid 1
 Radial grid used for Vloc is grid 1
 Radial grid used for pseudo valence density is grid 1
 Mesh size for Vloc has been set to 1792 to avoid numerical noise.
 Compensation charge density is not taken into account in XC energy/potential
 pspatm: atomic psp has been read  and splines computed

- pspini: atom type   3  psp file is ../../../Psps_for_tests/ATOMICDATA/Hf.GGA_PBE-JTH.xml
- pspatm: opening atomic psp file    ../../../Psps_for_tests/ATOMICDATA/Hf.GGA_PBE-JTH.xml
- pspatm : Reading pseudopotential header in XML form from ../../../Psps_for_tests/ATOMICDATA/Hf.GGA_PBE-JTH.xml
 Pseudopotential format is: paw10
 basis_size (lnmax)=  6 (lmn_size= 18), orbitals=   0   0   1   1   2   2
 Spheres core radius: rc_sph= 2.41000000
 1 radial meshes are used:
  - mesh 1: r(i)=AA*[exp(BB*(i-1))-1], size= 972 , AA= 0.19796E-03 BB= 0.14253E-01
 Shapefunction is SIN type: shapef(r)=[sin(pi*r/rshp)/(pi*r/rshp)]**2
 Radius for shape functions =  2.41000000
 mmax=  972
 Radial grid used for partial waves is grid 1
 Radial grid used for projectors is grid 1
 Radial grid used for (t)core density is grid 1
 Radial grid used for Vloc is grid 1
 Radial grid used for pseudo valence density is grid 1
 Mesh size for Vloc has been set to  809 to avoid numerical noise.
 Compensation charge density is not taken into account in XC energy/potential
 pspatm: atomic psp has been read  and splines computed

- pspini: atom type   4  psp file is ../../../Psps_for_tests/ATOMICDATA/Br.GGA_PBE-JTH.xml
- pspatm: opening atomic psp file    ../../../Psps_for_tests/ATOMICDATA/Br.GGA_PBE-JTH.xml
- pspatm : Reading pseudopotential header in XML form from ../../../Psps_for_tests/ATOMICDATA/Br.GGA_PBE-JTH.xml
 Pseudopotential format is: paw10
 basis_size (lnmax)=  4 (lmn_size=  8), orbitals=   0   0   1   1
 Spheres core radius: rc_sph= 2.20000000
 1 radial meshes are used:
  - mesh 1: r(i)=AA*[exp(BB*(i-1))-1], size= 927 , AA= 0.40483E-03 BB= 0.14169E-01
 Shapefunction is BESSEL type: shapef(r,l)=aa(1,l)*jl(q(1,l)*r)+aa(2,l)*jl(q(2,l)*r)
 Radius for shape functions =  2.02066386
 mmax=  927
 Radial grid used for partial waves is grid 1
 Radial grid used for projectors is grid 1
 Radial grid used for (t)core density is grid 1
 Radial grid used for Vloc is grid 1
 Radial grid used for pseudo valence density is grid 1
 Mesh size for Vloc has been set to  763 to avoid numerical noise.
 Compensation charge density is not taken into account in XC energy/potential
 pspatm: atomic psp has been read  and splines computed

   3.47331270E+04                                ecore*ucvol(ha*bohr**3)
--------------------------------------------------------------------------------

_setup2: Arith. and geom. avg. npw (full set) are    7669.482    7669.479

================================================================================

--- !BeginCycle
iteration_state: {dtset: 1, }
solver: {iscf: 17, nstep: 2500, nline: 4, wfoptalg: 10, }
tolerances: {toldfe: 1.00E-08, }
...

     iter   Etot(hartree)      deltaE(h)  residm     nres2
 ETOT  1  -167.30788562601    -1.673E+02 1.092E+01 5.151E+00
 ETOT  2  -169.20022670072    -1.892E+00 2.679E-02 2.682E+00
 ETOT  3  -169.18691075427     1.332E-02 1.748E-02 4.640E-01
 ETOT  4  -169.18722293378    -3.122E-04 5.788E-03 9.743E-02
 ETOT  5  -169.18730002995    -7.710E-05 5.354E-03 1.093E-02
 ETOT  6  -169.18738243913    -8.241E-05 4.402E-03 1.119E-03
 ETOT  7  -169.18739538221    -1.294E-05 1.916E-03 3.240E-04
 ETOT  8  -169.18739934626    -3.964E-06 1.305E-03 9.054E-06
 ETOT  9  -169.18739947956    -1.333E-07 1.042E-03 1.704E-06
 ETOT 10  -169.18739949838    -1.882E-08 9.239E-04 2.602E-07
 ETOT 11  -169.18739950081    -2.433E-09 9.792E-04 5.425E-08
 ETOT 12  -169.18739950083    -1.748E-11 5.607E-04 9.248E-09

 At SCF step   12, etot is converged : 
  for the second time, diff in etot=  1.748E-11 < toldfe=  1.000E-08

 Cartesian components of stress tensor (hartree/bohr^3)
  sigma(1 1)= -4.38754431E-06  sigma(3 2)= -2.49888105E-13
  sigma(2 2)= -4.32218235E-06  sigma(3 1)=  4.98073667E-13
  sigma(3 3)= -4.38754431E-06  sigma(2 1)= -2.49887211E-13


--- !ResultsGS
iteration_state: {dtset: 1, }
comment   : Summary of ground state results
lattice_vectors:
- [  0.0000000,  10.7604534,  10.7971971, ]
- [ 10.7971971,   0.0000000,  10.7971971, ]
- [ 10.7971971,  10.7604534,   0.0000000, ]
lattice_lengths: [  15.24358,   15.26954,   15.24358, ]
lattice_angles: [ 59.944,  60.113,  59.944, ] # degrees, (23, 13, 12)
lattice_volume:   2.5088958E+03
convergence: {deltae: -1.748E-11, res2:  9.248E-09, residm:  5.607E-04, diffor: null, }
etotal    :  -1.69187400E+02
entropy   :   0.00000000E+00
fermie    :  -9.56187858E-02
cartesian_stress_tensor: # hartree/bohr^3
- [ -4.38754431E-06,  -2.49887211E-13,   4.98073667E-13, ]
- [ -2.49887211E-13,  -4.32218235E-06,  -2.49888105E-13, ]
- [  4.98073667E-13,  -2.49888105E-13,  -4.38754431E-06, ]
pressure_GPa:   1.2844E-01
xred      :
- [  2.5000E-01,   2.5000E-01,   2.5000E-01, Cs]
- [  7.5000E-01,   7.5000E-01,   7.5000E-01, Cs]
- [  7.4707E-01,   2.5293E-01,   7.4707E-01,  I]
- [  2.2902E-01,   2.2902E-01,   7.7098E-01, Br]
- [  7.7098E-01,   7.7098E-01,   2.2902E-01, Br]
- [  2.5293E-01,   7.4707E-01,   2.5293E-01,  I]
- [  2.2902E-01,   7.7098E-01,   7.7098E-01, Br]
- [  7.7098E-01,   2.2902E-01,   2.2902E-01, Br]
- [ -1.2258E-22,  -1.7161E-22,   2.3171E-22, Hf]
cartesian_forces: # hartree/bohr
- [ -2.58816595E-22,  -3.76460214E-22,   2.32741683E-22, ]
- [ -2.58816371E-22,  -3.76459688E-22,   2.32740261E-22, ]
- [ -4.78369892E-22,   2.57485662E-05,   4.52294082E-22, ]
- [  6.54306518E-17,  -6.56545739E-17,   1.44861073E-06, ]
- [ -6.54312715E-17,   6.56540300E-17,  -1.44861073E-06, ]
- [  2.47111740E-21,  -2.57485662E-05,  -2.49719321E-21, ]
- [ -1.44861073E-06,   6.56539785E-17,  -6.54308348E-17, ]
- [  1.44861073E-06,  -6.56547314E-17,   6.54313003E-17, ]
- [ -2.58815623E-22,  -3.76459088E-22,   2.32739813E-22, ]
force_length_stats: {min:   5.12713167E-22, max:   2.57485662E-05, mean:   6.36573058E-06, }
...

 Integrated electronic density in atomic spheres:
 ------------------------------------------------
 Atom  Sphere_radius  Integrated_density
    1        2.20660          5.34674170
    2        2.20660          5.34674170
    3        2.30022          4.01956419
    4        2.20000          4.93413163
    5        2.20000          4.93413163
    6        2.30022          4.01956419
    7        2.20000          4.93413163
    8        2.20000          4.93413163
    9        2.41000          9.27258693

 PAW TEST:
 ==== Compensation charge inside spheres ============
 The following values must be close to each other ...
 Compensation charge over spherical meshes =     -0.374713119384836
 Compensation charge over fine fft grid    =     -0.374720456355754

 ==== Results concerning PAW augmentation regions ====

 Total pseudopotential strength Dij (hartree):
 Atom #  1
   0.43948  -0.14554   0.00000   0.00000   0.00000   0.00000   0.00000   0.00000   0.00000   0.00000  -0.00000   0.00000 ...
  -0.14554   0.04385   0.00000   0.00000   0.00000   0.00000   0.00000   0.00000   0.00000   0.00000   0.00000   0.00000 ...
   0.00000   0.00000  -0.09349   0.00000   0.00000  -0.16660   0.00000   0.00000   0.00000   0.00000   0.00000  -0.00000 ...
   0.00000   0.00000   0.00000  -0.09349   0.00000   0.00000  -0.16660   0.00000  -0.00000   0.00000   0.00000   0.00000 ...
   0.00000   0.00000   0.00000   0.00000  -0.09349   0.00000   0.00000  -0.16660   0.00000  -0.00000   0.00000   0.00000 ...
   0.00000   0.00000  -0.16660   0.00000   0.00000   0.40376   0.00000   0.00000   0.00000   0.00000   0.00000   0.00000 ...
   0.00000   0.00000   0.00000  -0.16660   0.00000   0.00000   0.40375   0.00000   0.00000   0.00000   0.00000   0.00000 ...
   0.00000   0.00000   0.00000   0.00000  -0.16660   0.00000   0.00000   0.40375   0.00000   0.00000   0.00000   0.00000 ...
   0.00000   0.00000   0.00000  -0.00000   0.00000   0.00000   0.00000   0.00000   0.00524   0.00000   0.00000   0.00000 ...
   0.00000   0.00000   0.00000   0.00000  -0.00000   0.00000   0.00000   0.00000   0.00000   0.00524   0.00000   0.00000 ...
  -0.00000   0.00000   0.00000   0.00000   0.00000   0.00000   0.00000   0.00000   0.00000   0.00000   0.00524   0.00000 ...
   0.00000   0.00000  -0.00000   0.00000   0.00000   0.00000   0.00000   0.00000   0.00000   0.00000   0.00000   0.00524 ...
   ...  only 12  components have been written...
 Atom #  9
  -3.51770   0.42800   0.00000   0.00000   0.00000   0.00000   0.00000   0.00000   0.00000   0.00000   0.00009   0.00000 ...
   0.42800   0.00287   0.00000   0.00000   0.00000   0.00000   0.00000   0.00000   0.00000   0.00000  -0.00001   0.00000 ...
   0.00000   0.00000  -1.45511   0.00000   0.00000   0.12321   0.00000   0.00000   0.00000   0.00000   0.00000   0.00000 ...
   0.00000   0.00000   0.00000  -1.45450   0.00000   0.00000   0.12311   0.00000   0.00000   0.00000   0.00000   0.00000 ...
   0.00000   0.00000   0.00000   0.00000  -1.45450   0.00000   0.00000   0.12311   0.00000   0.00000   0.00000   0.00000 ...
   0.00000   0.00000   0.12321   0.00000   0.00000   0.01341   0.00000   0.00000   0.00000   0.00000   0.00000   0.00000 ...
   0.00000   0.00000   0.00000   0.12311   0.00000   0.00000   0.01343   0.00000   0.00000   0.00000   0.00000   0.00000 ...
   0.00000   0.00000   0.00000   0.00000   0.12311   0.00000   0.00000   0.01343   0.00000   0.00000   0.00000   0.00000 ...
   0.00000   0.00000   0.00000   0.00000   0.00000   0.00000   0.00000   0.00000  -0.39381   0.00000   0.00000   0.00000 ...
   0.00000   0.00000   0.00000   0.00000   0.00000   0.00000   0.00000   0.00000   0.00000  -0.39381   0.00000   0.00000 ...
   0.00009  -0.00001   0.00000   0.00000   0.00000   0.00000   0.00000   0.00000   0.00000   0.00000  -0.39306   0.00000 ...
   0.00000   0.00000   0.00000   0.00000   0.00000   0.00000   0.00000   0.00000   0.00000   0.00000   0.00000  -0.39370 ...
   ...  only 12  components have been written...


 Augmentation waves occupancies Rhoij:
 Atom #  1
   1.99723  -0.01591   0.00000   0.00000   0.00000   0.00000   0.00000   0.00000   0.00000   0.00000  -0.00125   0.00000 ...
  -0.01591   0.12654   0.00000   0.00000   0.00000   0.00000   0.00000   0.00000   0.00000   0.00000   0.00919   0.00000 ...
   0.00000   0.00000   2.00703   0.00000   0.00000  -0.00466   0.00000   0.00000   0.00000   0.00000   0.00000   0.00042 ...
   0.00000   0.00000   0.00000   2.00989   0.00000   0.00000  -0.00511   0.00000   0.00048   0.00000   0.00000   0.00000 ...
   0.00000   0.00000   0.00000   0.00000   2.00989   0.00000   0.00000  -0.00511   0.00000   0.00048   0.00000   0.00000 ...
   0.00000   0.00000  -0.00466   0.00000   0.00000   0.00007   0.00000   0.00000   0.00000   0.00000   0.00000  -0.00002 ...
   0.00000   0.00000   0.00000  -0.00511   0.00000   0.00000   0.00010   0.00000  -0.00003   0.00000   0.00000   0.00000 ...
   0.00000   0.00000   0.00000   0.00000  -0.00511   0.00000   0.00000   0.00010   0.00000  -0.00003   0.00000   0.00000 ...
   0.00000   0.00000   0.00000   0.00048   0.00000   0.00000  -0.00003   0.00000   0.02963   0.00000   0.00000   0.00000 ...
   0.00000   0.00000   0.00000   0.00000   0.00048   0.00000   0.00000  -0.00003   0.00000   0.02963   0.00000   0.00000 ...
  -0.00125   0.00919   0.00000   0.00000   0.00000   0.00000   0.00000   0.00000   0.00000   0.00000   0.02248   0.00000 ...
   0.00000   0.00000   0.00042   0.00000   0.00000  -0.00002   0.00000   0.00000   0.00000   0.00000   0.00000   0.05700 ...
   ...  only 12  components have been written...
 Atom #  9
   1.99779  -0.02230   0.00000   0.00000   0.00000   0.00000   0.00000   0.00000   0.00000   0.00000   0.00043   0.00000 ...
  -0.02230   1.00101   0.00000   0.00000   0.00000   0.00000   0.00000   0.00000   0.00000   0.00000   0.02360   0.00000 ...
   0.00000   0.00000   1.99223   0.00000   0.00000  -0.06565   0.00000   0.00000   0.00000   0.00000   0.00000   0.00000 ...
   0.00000   0.00000   0.00000   1.99193   0.00000   0.00000  -0.07046   0.00000   0.00000   0.00000   0.00000   0.00000 ...
   0.00000   0.00000   0.00000   0.00000   1.99193   0.00000   0.00000  -0.07046   0.00000   0.00000   0.00000   0.00000 ...
   0.00000   0.00000  -0.06565   0.00000   0.00000   1.12306   0.00000   0.00000   0.00000   0.00000   0.00000   0.00000 ...
   0.00000   0.00000   0.00000  -0.07046   0.00000   0.00000   1.32237   0.00000   0.00000   0.00000   0.00000   0.00000 ...
   0.00000   0.00000   0.00000   0.00000  -0.07046   0.00000   0.00000   1.32237   0.00000   0.00000   0.00000   0.00000 ...
   0.00000   0.00000   0.00000   0.00000   0.00000   0.00000   0.00000   0.00000   0.45324   0.00000   0.00000   0.00000 ...
   0.00000   0.00000   0.00000   0.00000   0.00000   0.00000   0.00000   0.00000   0.00000   0.45324   0.00000   0.00000 ...
   0.00043   0.02360   0.00000   0.00000   0.00000   0.00000   0.00000   0.00000   0.00000   0.00000   1.46707   0.00000 ...
   0.00000   0.00000   0.00000   0.00000   0.00000   0.00000   0.00000   0.00000   0.00000   0.00000   0.00000   0.49013 ...
   ...  only 12  components have been written...


================================================================================

 ----iterations are completed or convergence reached----

 Mean square residual over all n,k,spin=   20.268E-07; max=  56.071E-05
 reduced coordinates (array xred) for    9 atoms
       0.250000000000      0.250000000000      0.250000000000
       0.750000000000      0.750000000000      0.750000000000
       0.747072688740      0.252927311260      0.747072688740
       0.229016867950      0.229016867950      0.770983132050
       0.770983132050      0.770983132050      0.229016867950
       0.252927311260      0.747072688740      0.252927311260
       0.229016867950      0.770983132050      0.770983132050
       0.770983132050      0.229016867950      0.229016867950
      -0.000000000000     -0.000000000000      0.000000000000
 rms dE/dt=  1.0698E-04; max dE/dt=  2.7707E-04; dE/dt below (all hartree)
    1      -0.000000000000     -0.000000000000      0.000000000000
    2       0.000000000000      0.000000000000      0.000000000000
    3      -0.000277066247      0.000000000000     -0.000277066247
    4      -0.000015640936     -0.000015640936      0.000000000000
    5       0.000015640936      0.000015640936      0.000000000000
    6       0.000277066247      0.000000000000      0.000277066247
    7       0.000000000000      0.000015640936      0.000015640936
    8      -0.000000000000     -0.000015640936     -0.000015640936
    9       0.000000000000      0.000000000000      0.000000000000

 cartesian coordinates (angstrom) at end:
    1      2.85681532208699     2.84709335112043     2.85681532208699
    2      8.57044596626097     8.54128005336128     8.57044596626097
    3      5.71363064430150     8.50794273966126     5.71363064430150
    4      5.71363064431384     5.69418670224086     2.61703558950373
    5      5.71363064403411     5.69418670224086     8.81022569884422
    6      5.71363064404645     2.88043066482045     5.71363064404645
    7      8.81022569884422     5.69418670224086     5.71363064403411
    8      2.61703558950373     5.69418670224086     5.71363064431384
    9      0.00000000000000     0.00000000000000    -0.00000000000000

 cartesian forces (hartree/bohr) at end:
    1     -0.00000000000000    -0.00000000000000     0.00000000000000
    2     -0.00000000000000    -0.00000000000000     0.00000000000000
    3     -0.00000000000000     0.00002574856617     0.00000000000000
    4      0.00000000000000    -0.00000000000000     0.00000144861073
    5     -0.00000000000000     0.00000000000000    -0.00000144861073
    6      0.00000000000000    -0.00002574856617    -0.00000000000000
    7     -0.00000144861073     0.00000000000000    -0.00000000000000
    8      0.00000144861073    -0.00000000000000     0.00000000000000
    9     -0.00000000000000    -0.00000000000000     0.00000000000000
 frms,max,avg= 7.0300182E-06 2.5748566E-05   0.000E+00  0.000E+00  0.000E+00 h/b

 cartesian forces (eV/Angstrom) at end:
    1     -0.00000000000000    -0.00000000000000     0.00000000000000
    2     -0.00000000000000    -0.00000000000000     0.00000000000000
    3     -0.00000000000000     0.00132404439678     0.00000000000000
    4      0.00000000000000    -0.00000000000000     0.00007449055227
    5     -0.00000000000000     0.00000000000000    -0.00007449055227
    6      0.00000000000000    -0.00132404439678    -0.00000000000000
    7     -0.00007449055227     0.00000000000000    -0.00000000000000
    8      0.00007449055227    -0.00000000000000     0.00000000000000
    9     -0.00000000000000    -0.00000000000000     0.00000000000000
 frms,max,avg= 3.6149804E-04 1.3240444E-03   0.000E+00  0.000E+00  0.000E+00 e/A
 length scales= 15.243583039000 15.269542633000 15.243583039000 bohr
              =  8.066556721488  8.080293946977  8.066556721488 angstroms
 prteigrs : about to open file Cs2TiI6o_DS1_EIG
 Fermi (or HOMO) energy (hartree) =  -0.09562   Average Vxc (hartree)=  -0.28737
 Eigenvalues (hartree) for nkpt= 163  k points:
 kpt#   1, nband= 42, wtk=  0.00058, kpt=  0.0000  0.0000  0.0000 (reduced coord)
  -2.38470   -1.22873   -1.22873   -1.22843   -0.83669   -0.83651   -0.60015   -0.58779
  -0.58742   -0.58742   -0.49846   -0.49488   -0.35462   -0.35462   -0.35419   -0.35229
  -0.35229   -0.35210   -0.23713   -0.18657   -0.18568   -0.18010   -0.18010   -0.17727
  -0.17722   -0.17722   -0.15929   -0.13804   -0.13160   -0.13160   -0.11402   -0.10662
  -0.10662   -0.10303   -0.09562   -0.09562    0.00444    0.00444    0.01194    0.06303
   0.07970    0.08607
 prteigrs : prtvol=0 or 1, do not print more k-points.


--- !EnergyTerms
iteration_state     : {dtset: 1, }
comment             : Components of total free energy in Hartree
kinetic             :  4.16935700413540E+01
hartree             :  3.91191656573836E+01
xc                  : -6.58497928104658E+01
Ewald energy        : -1.17158221990967E+02
psp_core            :  1.38439892892613E+01
local_psp           : -8.51604110919888E+01
spherical_terms     :  4.32426781605818E+00
total_energy        : -1.69187433089364E+02
total_energy_eV     : -4.60382418608276E+03
...


--- !EnergyTermsDC
iteration_state     : {dtset: 1, }
comment             : '"Double-counting" decomposition of free energy'
band_energy         : -3.19304347704184E+01
Ewald energy        : -1.17158221990967E+02
psp_core            :  1.38439892892613E+01
xc_dc               : -6.56315888747159E+01
spherical_terms     :  3.16888568460100E+01
total_energy_dc     : -1.69187399500830E+02
total_energy_dc_eV  : -4.60382327209226E+03
...


 Cartesian components of stress tensor (hartree/bohr^3)
  sigma(1 1)= -4.38754431E-06  sigma(3 2)= -2.49888105E-13
  sigma(2 2)= -4.32218235E-06  sigma(3 1)=  4.98073667E-13
  sigma(3 3)= -4.38754431E-06  sigma(2 1)= -2.49887211E-13

-Cartesian components of stress tensor (GPa)         [Pressure=  1.2844E-01 GPa]
- sigma(1 1)= -1.29085989E-01  sigma(3 2)= -7.35196065E-09
- sigma(2 2)= -1.27162974E-01  sigma(3 1)=  1.46538307E-08
- sigma(3 3)= -1.29085989E-01  sigma(2 1)= -7.35193434E-09

================================================================================
== DATASET  2 ==================================================================
-   mpi_nproc: 6, omp_nthreads: -1 (-1 if OMP is not activated)


--- !DatasetInfo
iteration_state: {dtset: 2, }
dimensions: {natom: 9, nkpt: 163, mband: 42, nsppol: 1, nspinor: 1, nspden: 1, mpw: 7491, }
cutoff_energies: {ecut:  16.0, pawecutdg:  40.0, }
electrons: {nelect:   7.20000000E+01, charge:   0.00000000E+00, occopt:   1.00000000E+00, tsmear:   1.00000000E-02, }
meta: {optdriver: 0, ionmov: 0, optcell: 0, iscf: 17, paral_kgb: 0, }
...

 Real(R)+Recip(G) space primitive vectors, cartesian coordinates (Bohr,Bohr^-1):
 R(1)=  0.0000000 10.6371873 10.6954543  G(1)= -0.0467488  0.0470049  0.0467488
 R(2)= 10.6954543  0.0000000 10.6954543  G(2)=  0.0467488 -0.0470049  0.0467488
 R(3)= 10.6954543 10.6371873  0.0000000  G(3)=  0.0467488  0.0470049 -0.0467488
 Unit cell volume ucvol=  2.4336340E+03 bohr^3
 Angles (23,13,12)=  5.99097301E+01  6.01805398E+01  5.99097301E+01 degrees

 Coarse grid specifications (used for wave-functions):

 getcut: wavevector=  0.0000  0.0000  0.0000  ngfft=  60  60  60
         ecut(hartree)=     16.000   => boxcut(ratio)=   2.20299

 getcut : COMMENT -
  Note that boxcut > 2.2 ; recall that boxcut=Gcut(box)/Gcut(sphere) = 2
  is sufficient for exact treatment of convolution.
  Such a large boxcut is a waste : you could raise ecut
  e.g. ecut=   19.412604 Hartrees makes boxcut=2


 Fine grid specifications (used for densities):

 getcut: wavevector=  0.0000  0.0000  0.0000  ngfft=  90  90  90
         ecut(hartree)=     40.000   => boxcut(ratio)=   2.09020

--- Pseudopotential description ------------------------------------------------
- pspini: atom type   1  psp file is ../../../Psps_for_tests/ATOMICDATA/Cs.GGA_PBE-JTH.xml
- pspatm: opening atomic psp file    ../../../Psps_for_tests/ATOMICDATA/Cs.GGA_PBE-JTH.xml
- pspatm : Reading pseudopotential header in XML form from ../../../Psps_for_tests/ATOMICDATA/Cs.GGA_PBE-JTH.xml
 Pseudopotential format is: paw10
 basis_size (lnmax)=  6 (lmn_size= 18), orbitals=   0   0   1   1   2   2
 Spheres core radius: rc_sph= 2.20660278
 1 radial meshes are used:
  - mesh 1: r(i)=AA*[exp(BB*(i-1))-1], size=1500 , AA= 0.15922E-03 BB= 0.87573E-02
 Shapefunction is SIN type: shapef(r)=[sin(pi*r/rshp)/(pi*r/rshp)]**2
 Radius for shape functions =  2.00394208
 mmax= 1500
 Radial grid used for partial waves is grid 1
 Radial grid used for projectors is grid 1
 Radial grid used for (t)core density is grid 1
 Radial grid used for Vloc is grid 1
 Radial grid used for pseudo valence density is grid 1
 Mesh size for Vloc has been set to 1341 to avoid numerical noise.
 Compensation charge density is not taken into account in XC energy/potential
 pspatm: atomic psp has been read  and splines computed

- pspini: atom type   2  psp file is ../../../Psps_for_tests/ATOMICDATA/I.GGA_PBE-JTH.xml
- pspatm: opening atomic psp file    ../../../Psps_for_tests/ATOMICDATA/I.GGA_PBE-JTH.xml
- pspatm : Reading pseudopotential header in XML form from ../../../Psps_for_tests/ATOMICDATA/I.GGA_PBE-JTH.xml
 Pseudopotential format is: paw10
 basis_size (lnmax)=  4 (lmn_size=  8), orbitals=   0   0   1   1
 Spheres core radius: rc_sph= 2.30022271
 1 radial meshes are used:
  - mesh 1: r(i)=AA*[exp(BB*(i-1))-1], size=2000 , AA= 0.12610E-03 BB= 0.66836E-02
 Shapefunction is SIN type: shapef(r)=[sin(pi*r/rshp)/(pi*r/rshp)]**2
 Radius for shape functions =  2.10879093
 mmax= 2000
 Radial grid used for partial waves is grid 1
 Radial grid used for projectors is grid 1
 Radial grid used for (t)core density is grid 1
 Radial grid used for Vloc is grid 1
 Radial grid used for pseudo valence density is grid 1
 Mesh size for Vloc has been set to 1792 to avoid numerical noise.
 Compensation charge density is not taken into account in XC energy/potential
 pspatm: atomic psp has been read  and splines computed

- pspini: atom type   3  psp file is ../../../Psps_for_tests/ATOMICDATA/Hf.GGA_PBE-JTH.xml
- pspatm: opening atomic psp file    ../../../Psps_for_tests/ATOMICDATA/Hf.GGA_PBE-JTH.xml
- pspatm : Reading pseudopotential header in XML form from ../../../Psps_for_tests/ATOMICDATA/Hf.GGA_PBE-JTH.xml
 Pseudopotential format is: paw10
 basis_size (lnmax)=  6 (lmn_size= 18), orbitals=   0   0   1   1   2   2
 Spheres core radius: rc_sph= 2.41000000
 1 radial meshes are used:
  - mesh 1: r(i)=AA*[exp(BB*(i-1))-1], size= 972 , AA= 0.19796E-03 BB= 0.14253E-01
 Shapefunction is SIN type: shapef(r)=[sin(pi*r/rshp)/(pi*r/rshp)]**2
 Radius for shape functions =  2.41000000
 mmax=  972
 Radial grid used for partial waves is grid 1
 Radial grid used for projectors is grid 1
 Radial grid used for (t)core density is grid 1
 Radial grid used for Vloc is grid 1
 Radial grid used for pseudo valence density is grid 1
 Mesh size for Vloc has been set to  809 to avoid numerical noise.
 Compensation charge density is not taken into account in XC energy/potential
 pspatm: atomic psp has been read  and splines computed

- pspini: atom type   4  psp file is ../../../Psps_for_tests/ATOMICDATA/Br.GGA_PBE-JTH.xml
- pspatm: opening atomic psp file    ../../../Psps_for_tests/ATOMICDATA/Br.GGA_PBE-JTH.xml
- pspatm : Reading pseudopotential header in XML form from ../../../Psps_for_tests/ATOMICDATA/Br.GGA_PBE-JTH.xml
 Pseudopotential format is: paw10
 basis_size (lnmax)=  4 (lmn_size=  8), orbitals=   0   0   1   1
 Spheres core radius: rc_sph= 2.20000000
 1 radial meshes are used:
  - mesh 1: r(i)=AA*[exp(BB*(i-1))-1], size= 927 , AA= 0.40483E-03 BB= 0.14169E-01
 Shapefunction is BESSEL type: shapef(r,l)=aa(1,l)*jl(q(1,l)*r)+aa(2,l)*jl(q(2,l)*r)
 Radius for shape functions =  2.02066386
 mmax=  927
 Radial grid used for partial waves is grid 1
 Radial grid used for projectors is grid 1
 Radial grid used for (t)core density is grid 1
 Radial grid used for Vloc is grid 1
 Radial grid used for pseudo valence density is grid 1
 Mesh size for Vloc has been set to  763 to avoid numerical noise.
 Compensation charge density is not taken into account in XC energy/potential
 pspatm: atomic psp has been read  and splines computed

--------------------------------------------------------------------------------

_setup2: Arith. and geom. avg. npw (full set) are    7438.531    7438.520

================================================================================

--- !BeginCycle
iteration_state: {dtset: 2, }
solver: {iscf: 17, nstep: 2500, nline: 4, wfoptalg: 10, }
tolerances: {toldfe: 1.00E-08, }
...

     iter   Etot(hartree)      deltaE(h)  residm     nres2
 ETOT  1  -167.46276608246    -1.675E+02 7.309E+00 5.839E+00
 ETOT  2  -169.19660234989    -1.734E+00 3.107E-02 2.428E+00
 ETOT  3  -169.18567583501     1.093E-02 2.694E-02 4.274E-01
 ETOT  4  -169.18623535643    -5.595E-04 5.251E-03 9.237E-02
 ETOT  5  -169.18628810406    -5.275E-05 4.234E-03 8.535E-03
 ETOT  6  -169.18636633106    -7.823E-05 3.367E-03 9.353E-04
 ETOT  7  -169.18637828418    -1.195E-05 2.401E-03 2.314E-04
 ETOT  8  -169.18638146312    -3.179E-06 1.371E-03 6.131E-06
 ETOT  9  -169.18638157431    -1.112E-07 1.079E-03 1.166E-06
 ETOT 10  -169.18638159313    -1.881E-08 9.952E-04 1.581E-07
 ETOT 11  -169.18638159474    -1.608E-09 6.165E-04 3.973E-08
 ETOT 12  -169.18638159472     1.248E-11 5.864E-04 4.578E-09

 At SCF step   12, etot is converged : 
  for the second time, diff in etot=  1.248E-11 < toldfe=  1.000E-08

 Cartesian components of stress tensor (hartree/bohr^3)
  sigma(1 1)= -1.41988650E-05  sigma(3 2)= -9.46310580E-14
  sigma(2 2)= -1.42012595E-05  sigma(3 1)=  1.88234795E-13
  sigma(3 3)= -1.41988650E-05  sigma(2 1)= -9.46335261E-14


--- !ResultsGS
iteration_state: {dtset: 2, }
comment   : Summary of ground state results
lattice_vectors:
- [  0.0000000,  10.6371873,  10.6954543, ]
- [ 10.6954543,   0.0000000,  10.6954543, ]
- [ 10.6954543,  10.6371873,   0.0000000, ]
lattice_lengths: [  15.08451,   15.12566,   15.08451, ]
lattice_angles: [ 59.910,  60.181,  59.910, ] # degrees, (23, 13, 12)
lattice_volume:   2.4336340E+03
convergence: {deltae:  1.248E-11, res2:  4.578E-09, residm:  5.864E-04, diffor: null, }
etotal    :  -1.69186382E+02
entropy   :   0.00000000E+00
fermie    :  -9.11721936E-02
cartesian_stress_tensor: # hartree/bohr^3
- [ -1.41988650E-05,  -9.46335261E-14,   1.88234795E-13, ]
- [ -9.46335261E-14,  -1.42012595E-05,  -9.46310580E-14, ]
- [  1.88234795E-13,  -9.46310580E-14,  -1.41988650E-05, ]
pressure_GPa:   4.1777E-01
xred      :
- [  2.5000E-01,   2.5000E-01,   2.5000E-01, Cs]
- [  7.5000E-01,   7.5000E-01,   7.5000E-01, Cs]
- [  7.4473E-01,   2.5527E-01,   7.4473E-01,  I]
- [  2.3103E-01,   2.3103E-01,   7.6897E-01, Br]
- [  7.6897E-01,   7.6897E-01,   2.3103E-01, Br]
- [  2.5527E-01,   7.4473E-01,   2.5527E-01,  I]
- [  2.3103E-01,   7.6897E-01,   7.6897E-01, Br]
- [  7.6897E-01,   2.3103E-01,   2.3103E-01, Br]
- [  3.9712E-22,   6.6887E-22,  -4.8460E-22, Hf]
cartesian_forces: # hartree/bohr
- [  1.88817030E-28,  -8.84797803E-24,   9.33094992E-24, ]
- [  3.77634061E-29,  -8.84752239E-24,   9.33049676E-24, ]
- [ -2.16540164E-22,  -1.06709417E-05,   2.25871001E-22, ]
- [  1.67668415E-17,  -1.68586512E-17,   1.04222975E-06, ]
- [ -1.67667623E-17,   1.68585539E-17,  -1.04222975E-06, ]
- [  2.16540164E-22,   1.06709417E-05,  -2.07209327E-22, ]
- [ -1.04222975E-06,   1.68586335E-17,  -1.67668322E-17, ]
- [  1.04222975E-06,  -1.68585716E-17,   1.67667716E-17, ]
- [ -0.00000000E+00,  -8.84771224E-24,   9.33083663E-24, ]
force_length_stats: {min:   1.28583367E-23, max:   1.06709417E-05, mean:   2.83453360E-06, }
...

 Integrated electronic density in atomic spheres:
 ------------------------------------------------
 Atom  Sphere_radius  Integrated_density
    1        2.20660          5.37655981
    2        2.20660          5.37655981
    3        2.30022          4.03749613
    4        2.20000          4.93252870
    5        2.20000          4.93252870
    6        2.30022          4.03749613
    7        2.20000          4.93252870
    8        2.20000          4.93252870
[...]
                       7.9046288201E+00  5.2517246028E+00  5.2430782355E+00
                       2.5815276512E+00  5.2517246028E+00  5.2430782357E+00
                       7.8576162713E-22 -2.1868441630E-22  1.4584553883E-21
           xangst10    2.5898756423E+00  2.6027362587E+00  2.5898756423E+00
                       7.7696269269E+00  7.8082087760E+00  7.7696269269E+00
                       5.1797512846E+00  7.6253058955E+00  5.1797512846E+00
                       5.1797512847E+00  5.2054725173E+00  2.5728011018E+00
                       5.1797512846E+00  5.2054725173E+00  7.7867014675E+00
                       5.1797512846E+00  2.7856391392E+00  5.1797512846E+00
                       7.7867014675E+00  5.2054725173E+00  5.1797512846E+00
                       2.5728011018E+00  5.2054725173E+00  5.1797512847E+00
                      -5.2996565475E-21 -2.6932731232E-21  6.7521593800E-21
            xcart1     5.3985985710E+00  5.3802267084E+00  5.3985985710E+00
                       1.6195795713E+01  1.6140680125E+01  1.6195795713E+01
                       1.0797197142E+01  1.6077681732E+01  1.0797197142E+01
                       1.0797197142E+01  1.0760453417E+01  4.9454805442E+00
                       1.0797197142E+01  1.0760453417E+01  1.6648913740E+01
                       1.0797197142E+01  5.4432251013E+00  1.0797197142E+01
                       1.6648913740E+01  1.0760453417E+01  1.0797197142E+01
                       4.9454805442E+00  1.0760453417E+01  1.0797197142E+01
                       6.4887354888E-22  1.1742885883E-21 -3.1764218490E-21
            xcart2     5.3477271470E+00  5.3185936309E+00  5.3477271470E+00
                       1.6043181441E+01  1.5955780893E+01  1.6043181441E+01
                       1.0695454294E+01  1.5843630252E+01  1.0695454294E+01
                       1.0695454294E+01  1.0637187262E+01  4.9420457765E+00
                       1.0695454294E+01  1.0637187262E+01  1.6448862812E+01
                       1.0695454294E+01  5.4307442716E+00  1.0695454294E+01
                       1.6448862812E+01  1.0637187262E+01  1.0695454294E+01
                       4.9420457765E+00  1.0637187262E+01  1.0695454294E+01
                       1.9708899549E-21 -9.3046247912E-22  1.1401278948E-20
            xcart3     5.2951337089E+00  5.2603955744E+00  5.2951337089E+00
                       1.5885401127E+01  1.5781186723E+01  1.5885401127E+01
                       1.0590267418E+01  1.5624579664E+01  1.0590267418E+01
                       1.0590267418E+01  1.0520791149E+01  4.9375832598E+00
                       1.0590267418E+01  1.0520791149E+01  1.6242951576E+01
                       1.0590267418E+01  5.4170026333E+00  1.0590267418E+01
                       1.6242951576E+01  1.0520791149E+01  1.0590267418E+01
                       4.9375832598E+00  1.0520791149E+01  1.0590267418E+01
                       5.5064501526E-21 -3.4196001540E-21  1.0553271408E-21
            xcart4     5.2423870616E+00  5.2025060746E+00  5.2423870616E+00
                       1.5727161185E+01  1.5607518224E+01  1.5727161185E+01
                       1.0484774123E+01  1.5408368407E+01  1.0484774123E+01
                       1.0484774123E+01  1.0405012149E+01  4.9315025690E+00
                       1.0484774123E+01  1.0405012149E+01  1.6038045677E+01
                       1.0484774123E+01  5.4016558914E+00  1.0484774123E+01
                       1.6038045677E+01  1.0405012149E+01  1.0484774123E+01
                       4.9315025690E+00  1.0405012149E+01  1.0484774123E+01
                       6.1040628706E-21 -7.3557064802E-23  8.8618004580E-22
            xcart5     5.1862548489E+00  5.1513394769E+00  5.1862548489E+00
                       1.5558764547E+01  1.5454018431E+01  1.5558764547E+01
                       1.0372509698E+01  1.5220912782E+01  1.0372509698E+01
                       1.0372509698E+01  1.0302678954E+01  4.9243170205E+00
                       1.0372509698E+01  1.0302678954E+01  1.5820702375E+01
                       1.0372509698E+01  5.3844451252E+00  1.0372509698E+01
                       1.5820702375E+01  1.0302678954E+01  1.0372509698E+01
                       4.9243170205E+00  1.0302678954E+01  1.0372509698E+01
                       7.5236185221E-21 -1.0771683141E-20  6.4456321398E-21
            xcart6     5.1303943783E+00  5.0996353368E+00  5.1303943783E+00
                       1.5391183135E+01  1.5298906010E+01  1.5391183135E+01
                       1.0260788757E+01  1.5033603313E+01  1.0260788757E+01
                       1.0260788757E+01  1.0199270674E+01  4.9156512977E+00
                       1.0260788757E+01  1.0199270674E+01  1.5605926216E+01
                       1.0260788757E+01  5.3649380341E+00  1.0260788757E+01
                       1.5605926216E+01  1.0199270674E+01  1.0260788757E+01
                       4.9156512977E+00  1.0199270674E+01  1.0260788757E+01
                       1.0157109197E-21  1.7931367257E-22 -1.4054752908E-22
            xcart7     5.0722496828E+00  5.0524806787E+00  5.0722496828E+00
                       1.5216749048E+01  1.5157442036E+01  1.5216749048E+01
                       1.0144499366E+01  1.4866635639E+01  1.0144499366E+01
                       1.0144499366E+01  1.0104961357E+01  4.9050568477E+00
                       1.0144499366E+01  1.0104961357E+01  1.5383941884E+01
                       1.0144499366E+01  5.3432870757E+00  1.0144499366E+01
                       1.5383941884E+01  1.0104961357E+01  1.0144499366E+01
                       4.9050568477E+00  1.0104961357E+01  1.0144499366E+01
                       6.0278960505E-22  3.8002828566E-22 -2.7683441896E-22
            xcart8     5.0134578892E+00  5.0066335151E+00  5.0134578892E+00
                       1.5040373668E+01  1.5019900545E+01  1.5040373668E+01
                       1.0026915779E+01  1.4707171517E+01  1.0026915779E+01
                       1.0026915779E+01  1.0013267030E+01  4.8927595260E+00
                       1.0026915778E+01  1.0013267030E+01  1.5161072031E+01
                       1.0026915778E+01  5.3193625434E+00  1.0026915778E+01
                       1.5161072031E+01  1.0013267030E+01  1.0026915778E+01
                       4.8927595260E+00  1.0013267030E+01  1.0026915779E+01
                      -3.0535959364E-22 -1.4803680887E-21 -4.4701037878E-21
            xcart9     4.9539909793E+00  4.9621606123E+00  4.9539909793E+00
                       1.4861972938E+01  1.4886481837E+01  1.4861972938E+01
                       9.9079819588E+00  1.4555649154E+01  9.9079819588E+00
                       9.9079819589E+00  9.9243212246E+00  4.8783802652E+00
                       9.9079819584E+00  9.9243212246E+00  1.4937583652E+01
                       9.9079819584E+00  5.2929932951E+00  9.9079819584E+00
                       1.4937583652E+01  9.9243212246E+00  9.9079819584E+00
                       4.8783802652E+00  9.9243212246E+00  9.9079819589E+00
                       1.4848742810E-21 -4.1325365633E-22  2.7560812610E-21
            xcart10    4.8941556822E+00  4.9184587250E+00  4.8941556822E+00
                       1.4682467047E+01  1.4755376175E+01  1.4682467047E+01
                       9.7883113644E+00  1.4409739822E+01  9.7883113644E+00
                       9.7883113645E+00  9.8369174500E+00  4.8618894768E+00
                       9.7883113643E+00  9.8369174500E+00  1.4714733252E+01
                       9.7883113643E+00  5.2640950781E+00  9.7883113643E+00
                       1.4714733252E+01  9.8369174500E+00  9.7883113643E+00
                       4.8618894768E+00  9.8369174500E+00  9.7883113645E+00
                      -1.0014899473E-20 -5.0895486039E-21  1.2759732034E-20
             xred1     2.5000000000E-01  2.5000000000E-01  2.5000000000E-01
                       7.5000000000E-01  7.5000000000E-01  7.5000000000E-01
                       7.4707268874E-01  2.5292731126E-01  7.4707268874E-01
                       2.2901686795E-01  2.2901686795E-01  7.7098313205E-01
                       7.7098313205E-01  7.7098313205E-01  2.2901686795E-01
                       2.5292731126E-01  7.4707268874E-01  2.5292731126E-01
                       2.2901686795E-01  7.7098313205E-01  7.7098313205E-01
                       7.7098313205E-01  2.2901686795E-01  2.2901686795E-01
                      -1.2257796773E-22 -1.7161151564E-22  2.3170799625E-22
             xred2     2.5000000000E-01  2.5000000000E-01  2.5000000000E-01
                       7.5000000000E-01  7.5000000000E-01  7.5000000000E-01
                       7.4472836954E-01  2.5527163046E-01  7.4472836954E-01
                       2.3103486961E-01  2.3103486961E-01  7.6896513039E-01
                       7.6896513039E-01  7.6896513039E-01  2.3103486961E-01
                       2.5527163046E-01  7.4472836954E-01  2.5527163046E-01
                       2.3103486961E-01  7.6896513039E-01  7.6896513039E-01
                       7.6896513039E-01  2.3103486961E-01  2.3103486961E-01
                       3.9712337183E-22  6.6886958507E-22 -4.8459597678E-22
             xred3     2.5000000000E-01  2.5000000000E-01  2.5000000000E-01
                       7.5000000000E-01  7.5000000000E-01  7.5000000000E-01
                       7.4255725845E-01  2.5744274155E-01  7.4255725845E-01
                       2.3311891310E-01  2.3311891310E-01  7.6688108690E-01
                       7.6688108690E-01  7.6688108690E-01  2.3311891310E-01
                       2.5744274155E-01  7.4255725845E-01  2.5744274155E-01
                       2.3311891310E-01  7.6688108690E-01  7.6688108690E-01
                       7.6688108690E-01  2.3311891310E-01  2.3311891310E-01
                      -3.7266788963E-22  4.7231854994E-22  4.7635284605E-23
             xred4     2.5000000000E-01  2.5000000000E-01  2.5000000000E-01
                       7.5000000000E-01  7.5000000000E-01  7.5000000000E-01
                       7.4043010167E-01  2.5956989833E-01  7.4043010167E-01
                       2.3517447830E-01  2.3517447830E-01  7.6482552170E-01
                       7.6482552170E-01  7.6482552170E-01  2.3517447830E-01
                       2.5956989833E-01  7.4043010167E-01  2.5956989833E-01
                       2.3517447830E-01  7.6482552170E-01  7.6482552170E-01
                       7.6482552170E-01  2.3517447830E-01  2.3517447830E-01
                      -2.5236613091E-22  3.3688679254E-22  2.4529674322E-22
             xred5     2.5000000000E-01  2.5000000000E-01  2.5000000000E-01
                       7.5000000000E-01  7.5000000000E-01  7.5000000000E-01
                       7.3868713422E-01  2.6131286578E-01  7.3868713422E-01
                       2.3737345946E-01  2.3737345946E-01  7.6262654054E-01
                       7.6262654054E-01  7.6262654054E-01  2.3737345946E-01
                       2.6131286578E-01  7.3868713422E-01  2.6131286578E-01
                       2.3737345946E-01  7.6262654054E-01  7.6262654054E-01
                       7.6262654054E-01  2.3737345946E-01  2.3737345946E-01
                      -5.7472489725E-22  1.1961398034E-21 -4.7079764978E-22
             xred6     2.5000000000E-01  2.5000000000E-01  2.5000000000E-01
                       7.5000000000E-01  7.5000000000E-01  7.5000000000E-01
                       7.3699403586E-01  2.6300596414E-01  7.3699403586E-01
                       2.3953574205E-01  2.3953574205E-01  7.6046425795E-01
                       7.6046425795E-01  7.6046425795E-01  2.3953574205E-01
                       2.6300596414E-01  7.3699403586E-01  2.6300596414E-01
                       2.3953574205E-01  7.6046425795E-01  7.6046425795E-01
                       7.6046425795E-01  2.3953574205E-01  2.3953574205E-01
                      -4.7553031650E-23  3.3855495096E-23  6.5134060560E-23
             xred7     2.5000000000E-01  2.5000000000E-01  2.5000000000E-01
                       7.5000000000E-01  7.5000000000E-01  7.5000000000E-01
                       7.3561071207E-01  2.6438928793E-01  7.3561071207E-01
                       2.4175943390E-01  2.4175943390E-01  7.5824056610E-01
                       7.5824056610E-01  7.5824056610E-01  2.4175943390E-01
                       2.6438928793E-01  7.3561071207E-01  2.6438928793E-01
                       2.4175943390E-01  7.5824056610E-01  7.5824056610E-01
                       7.5824056610E-01  2.4175943390E-01  2.4175943390E-01
                      -2.4550683649E-23 -2.7384322530E-24  6.2158772608E-23
             xred8     2.5000000000E-01  2.5000000000E-01  2.5000000000E-01
                       7.5000000000E-01  7.5000000000E-01  7.5000000000E-01
                       7.3438426603E-01  2.6561573397E-01  7.3438426603E-01
                       2.4398128169E-01  2.4398128169E-01  7.5601871831E-01
                       7.5601871831E-01  7.5601871831E-01  2.4398128169E-01
                       2.6561573397E-01  7.3438426603E-01  2.6561573397E-01
                       2.4398128169E-01  7.5601871831E-01  7.5601871831E-01
                       7.5601871831E-01  2.4398128169E-01  2.4398128169E-01
                      -2.8159856169E-22 -1.6421188357E-22  1.3375789348E-22
             xred9     2.5000000000E-01  2.5000000000E-01  2.5000000000E-01
                       7.5000000000E-01  7.5000000000E-01  7.5000000000E-01
                       7.3333222619E-01  2.6666777381E-01  7.3333222619E-01
                       2.4618435346E-01  2.4618435346E-01  7.5381564654E-01
                       7.5381564654E-01  7.5381564654E-01  2.4618435346E-01
                       2.6666777381E-01  7.3333222619E-01  2.6666777381E-01
                       2.4618435346E-01  7.5381564654E-01  7.5381564654E-01
                       7.5381564654E-01  2.4618435346E-01  2.4618435346E-01
                       4.3330402817E-23  2.3483736864E-22 -8.4970898623E-23
             xred10    2.5000000000E-01  2.5000000000E-01  2.5000000000E-01
                       7.5000000000E-01  7.5000000000E-01  7.5000000000E-01
                       7.3243167360E-01  2.6756832640E-01  7.3243167360E-01
                       2.4835179919E-01  2.4835179919E-01  7.5164820081E-01
                       7.5164820081E-01  7.5164820081E-01  2.4835179919E-01
                       2.6756832640E-01  7.3243167360E-01  2.6756832640E-01
                       2.4835179919E-01  7.5164820081E-01  7.5164820081E-01
                       7.5164820081E-01  2.4835179919E-01  2.4835179919E-01
                       9.0466223815E-22  3.9890602390E-22 -1.4220548695E-21
            znucl       55.00000   53.00000   72.00000   35.00000

================================================================================


- Timing analysis has been suppressed with timopt=0



================================================================================

 Suggested references for the acknowledgment of ABINIT usage.

 The users of ABINIT have little formal obligations with respect to the ABINIT group
 (those specified in the GNU General Public License, http://www.gnu.org/copyleft/gpl.txt).
 However, it is common practice in the scientific literature,
 to acknowledge the efforts of people that have made the research possible.
 In this spirit, please find below suggested citations of work written by ABINIT developers,
 corresponding to implementations inside of ABINIT that you have used in the present run.
 Note also that it will be of great value to readers of publications presenting these results,
 to read papers enabling them to understand the theoretical formalism and details
 of the ABINIT implementation.
 For information on why they are suggested, see also https://docs.abinit.org/theory/acknowledgments.
-
- [1] Implementation of the Projector Augmented-Wave Method in the ABINIT code.
- M. Torrent, F. Jollet, F. Bottin, G. Zerah, and X. Gonze Comput. Mat. Science 42, 337, (2008).
- Comment: PAW calculations. Strong suggestion to cite this paper.
- DOI and bibtex: see https://docs.abinit.org/theory/bibliography/#torrent2008
-
- [2] Libxc: A library of exchange and correlation functionals for density functional theory.
- M.A.L. Marques, M.J.T. Oliveira, T. Burnus, Computer Physics Communications 183, 2227 (2012).
- Comment: to be cited when LibXC is used (negative value of ixc)
- Strong suggestion to cite this paper.
- DOI and bibtex: see https://docs.abinit.org/theory/bibliography/#marques2012
-
- [3] The Abinit project: Impact, environment and recent developments.
- Computer Phys. Comm. 248, 107042 (2020).
- X.Gonze, B. Amadon, G. Antonius, F.Arnardi, L.Baguet, J.-M.Beuken,
- J.Bieder, F.Bottin, J.Bouchet, E.Bousquet, N.Brouwer, F.Bruneval,
- G.Brunin, T.Cavignac, J.-B. Charraud, Wei Chen, M.Cote, S.Cottenier,
- J.Denier, G.Geneste, Ph.Ghosez, M.Giantomassi, Y.Gillet, O.Gingras,
- D.R.Hamann, G.Hautier, Xu He, N.Helbig, N.Holzwarth, Y.Jia, F.Jollet,
- W.Lafargue-Dit-Hauret, K.Lejaeghere, M.A.L.Marques, A.Martin, C.Martins,
- H.P.C. Miranda, F.Naccarato, K. Persson, G.Petretto, V.Planes, Y.Pouillon,
- S.Prokhorenko, F.Ricci, G.-M.Rignanese, A.H.Romero, M.M.Schmitt, M.Torrent,
- M.J.van Setten, B.Van Troeye, M.J.Verstraete, G.Zerah and J.W.Zwanzig
- Comment: the fifth generic paper describing the ABINIT project.
- Note that a version of this paper, that is not formatted for Computer Phys. Comm. 
- is available at https://www.abinit.org/sites/default/files/ABINIT20.pdf .
- The licence allows the authors to put it on the Web.
- DOI and bibtex: see https://docs.abinit.org/theory/bibliography/#gonze2020
-
- [4] ABINIT: Overview, and focus on selected capabilities
- J. Chem. Phys. 152, 124102 (2020).
- A. Romero, D.C. Allan, B. Amadon, G. Antonius, T. Applencourt, L.Baguet,
- J.Bieder, F.Bottin, J.Bouchet, E.Bousquet, F.Bruneval,
- G.Brunin, D.Caliste, M.Cote,
- J.Denier, C. Dreyer, Ph.Ghosez, M.Giantomassi, Y.Gillet, O.Gingras,
- D.R.Hamann, G.Hautier, F.Jollet, G. Jomard,
- A.Martin, 
- H.P.C. Miranda, F.Naccarato, G.Petretto, N.A. Pike, V.Planes,
- S.Prokhorenko, T. Rangel, F.Ricci, G.-M.Rignanese, M.Royo, M.Stengel, M.Torrent,
- M.J.van Setten, B.Van Troeye, M.J.Verstraete, J.Wiktor, J.W.Zwanziger, and X.Gonze.
- Comment: a global overview of ABINIT, with focus on selected capabilities .
- Note that a version of this paper, that is not formatted for J. Chem. Phys 
- is available at https://www.abinit.org/sites/default/files/ABINIT20_JPC.pdf .
- The licence allows the authors to put it on the Web.
- DOI and bibtex: see https://docs.abinit.org/theory/bibliography/#romero2020
-
- [5] Recent developments in the ABINIT software package.
- Computer Phys. Comm. 205, 106 (2016).
- X.Gonze, F.Jollet, F.Abreu Araujo, D.Adams, B.Amadon, T.Applencourt,
- C.Audouze, J.-M.Beuken, J.Bieder, A.Bokhanchuk, E.Bousquet, F.Bruneval
- D.Caliste, M.Cote, F.Dahm, F.Da Pieve, M.Delaveau, M.Di Gennaro,
- B.Dorado, C.Espejo, G.Geneste, L.Genovese, A.Gerossier, M.Giantomassi,
- Y.Gillet, D.R.Hamann, L.He, G.Jomard, J.Laflamme Janssen, S.Le Roux,
- A.Levitt, A.Lherbier, F.Liu, I.Lukacevic, A.Martin, C.Martins,
- M.J.T.Oliveira, S.Ponce, Y.Pouillon, T.Rangel, G.-M.Rignanese,
- A.H.Romero, B.Rousseau, O.Rubel, A.A.Shukri, M.Stankovski, M.Torrent,
- M.J.Van Setten, B.Van Troeye, M.J.Verstraete, D.Waroquier, J.Wiktor,
- B.Xu, A.Zhou, J.W.Zwanziger.
- Comment: the fourth generic paper describing the ABINIT project.
- Note that a version of this paper, that is not formatted for Computer Phys. Comm. 
- is available at https://www.abinit.org/sites/default/files/ABINIT16.pdf .
- The licence allows the authors to put it on the Web.
- DOI and bibtex: see https://docs.abinit.org/theory/bibliography/#gonze2016
-
- Proc.   0 individual time (sec): cpu=       6633.4  wall=       6633.5

================================================================================

 Calculation completed.
.Delivered   0 WARNINGs and   5 COMMENTs to log file.
+Overall time at end (sec) : cpu=      39800.4  wall=      39801.2
