
.Version 9.2.2 of ABINIT 
.(MPI version, prepared for a x86_64_linux_gnu9.3 computer) 

.Copyright (C) 1998-2020 ABINIT group . 
 ABINIT comes with ABSOLUTELY NO WARRANTY.
 It is free software, and you are welcome to redistribute it
 under certain conditions (GNU General Public License,
 see ~abinit/COPYING or http://www.gnu.org/copyleft/gpl.txt).

 ABINIT is a project of the Universite Catholique de Louvain,
 Corning Inc. and other collaborators, see ~abinit/doc/developers/contributors.txt .
 Please read https://docs.abinit.org/theory/acknowledgments for suggested
 acknowledgments of the ABINIT effort.
 For more information, see https://www.abinit.org .

.Starting date : Tue  8 Nov 2022.
- ( at 10h16 )
  
- input  file    -> Cs2TiI6.in
- output file    -> Cs2TiI6.out
- root for input  files -> Cs2TiI6i
- root for output files -> Cs2TiI6o

- inpspheads : Reading pseudopotential header in XML form from 
-   ../../../Psps_for_tests/ATOMICDATA/Cs.GGA_PBE-JTH.xml
- inpspheads : Reading pseudopotential header in XML form from 
-   ../../../Psps_for_tests/ATOMICDATA/I.GGA_PBE-JTH.xml
- inpspheads : Reading pseudopotential header in XML form from 
-   ../../../Psps_for_tests/ATOMICDATA/Hf.GGA_PBE-JTH.xml
- inpspheads : Reading pseudopotential header in XML form from 
-   ../../../Psps_for_tests/ATOMICDATA/Br.GGA_PBE-JTH.xml

 DATASET    1 : space group I4 m m (#107); Bravais tI (body-center tetrag.)
================================================================================
 Values of the parameters that define the memory need for DATASET  1.
     intxc =       0    ionmov =       2      iscf =      17    lmnmax =      18
     lnmax =       6     mgfft =      64  mpssoang =       3    mqgrid =    3996
     natom =       9  nloc_mem =       2    nspden =       1   nspinor =       1
    nsppol =       1      nsym =       8    n1xccc =       1    ntypat =       4
    occopt =       1   xclevel =       2
-    mband =          42        mffmem =           1         mkmem =           4
       mpw =       11014          nfft =      262144          nkpt =          20
Pmy_natom=         2
 PAW method is used; the additional fine FFT grid is defined by:
   mgfftf=       100    nfftf =   1000000
================================================================================
P This job should need less than                     331.258 Mbytes of memory.
  Rough estimation (10% accuracy) of disk space for files :
_ WF disk file :    141.173 Mbytes ; DEN or POT disk file :      7.631 Mbytes.
================================================================================


 DATASET    2 : space group I4 m m (#107); Bravais tI (body-center tetrag.)
================================================================================
 Values of the parameters that define the memory need for DATASET  2.
     intxc =       0    ionmov =       2      iscf =      17    lmnmax =      18
     lnmax =       6     mgfft =      64  mpssoang =       3    mqgrid =    3992
     natom =       9  nloc_mem =       2    nspden =       1   nspinor =       1
    nsppol =       1      nsym =       8    n1xccc =       1    ntypat =       4
    occopt =       1   xclevel =       2
-    mband =          42        mffmem =           1         mkmem =           4
       mpw =       10982          nfft =      262144          nkpt =          20
Pmy_natom=         2
 PAW method is used; the additional fine FFT grid is defined by:
   mgfftf=       100    nfftf =   1000000
================================================================================
P This job should need less than                     331.233 Mbytes of memory.
  Rough estimation (10% accuracy) of disk space for files :
_ WF disk file :    140.762 Mbytes ; DEN or POT disk file :      7.631 Mbytes.
================================================================================


 DATASET    3 : space group I4 m m (#107); Bravais tI (body-center tetrag.)
================================================================================
 Values of the parameters that define the memory need for DATASET  3.
     intxc =       0    ionmov =       2      iscf =      17    lmnmax =      18
     lnmax =       6     mgfft =      64  mpssoang =       3    mqgrid =    3988
     natom =       9  nloc_mem =       2    nspden =       1   nspinor =       1
    nsppol =       1      nsym =       8    n1xccc =       1    ntypat =       4
    occopt =       1   xclevel =       2
-    mband =          42        mffmem =           1         mkmem =           4
       mpw =       10947          nfft =      262144          nkpt =          20
Pmy_natom=         2
 PAW method is used; the additional fine FFT grid is defined by:
   mgfftf=       100    nfftf =   1000000
================================================================================
P This job should need less than                     331.199 Mbytes of memory.
  Rough estimation (10% accuracy) of disk space for files :
_ WF disk file :    140.314 Mbytes ; DEN or POT disk file :      7.631 Mbytes.
================================================================================


 DATASET    4 : space group I4 m m (#107); Bravais tI (body-center tetrag.)
================================================================================
 Values of the parameters that define the memory need for DATASET  4.
     intxc =       0    ionmov =       2      iscf =      17    lmnmax =      18
     lnmax =       6     mgfft =      64  mpssoang =       3    mqgrid =    3984
     natom =       9  nloc_mem =       2    nspden =       1   nspinor =       1
    nsppol =       1      nsym =       8    n1xccc =       1    ntypat =       4
    occopt =       1   xclevel =       2
-    mband =          42        mffmem =           1         mkmem =           4
       mpw =       10907          nfft =      262144          nkpt =          20
Pmy_natom=         2
 PAW method is used; the additional fine FFT grid is defined by:
   mgfftf=       100    nfftf =   1000000
================================================================================
P This job should need less than                     331.152 Mbytes of memory.
  Rough estimation (10% accuracy) of disk space for files :
_ WF disk file :    139.801 Mbytes ; DEN or POT disk file :      7.631 Mbytes.
================================================================================


 DATASET    5 : space group I4 m m (#107); Bravais tI (body-center tetrag.)
================================================================================
 Values of the parameters that define the memory need for DATASET  5.
     intxc =       0    ionmov =       2      iscf =      17    lmnmax =      18
     lnmax =       6     mgfft =      64  mpssoang =       3    mqgrid =    3980
     natom =       9  nloc_mem =       2    nspden =       1   nspinor =       1
    nsppol =       1      nsym =       8    n1xccc =       1    ntypat =       4
    occopt =       1   xclevel =       2
-    mband =          42        mffmem =           1         mkmem =           4
       mpw =       10877          nfft =      262144          nkpt =          20
Pmy_natom=         2
 PAW method is used; the additional fine FFT grid is defined by:
   mgfftf=       100    nfftf =   1000000
================================================================================
P This job should need less than                     331.133 Mbytes of memory.
  Rough estimation (10% accuracy) of disk space for files :
_ WF disk file :    139.417 Mbytes ; DEN or POT disk file :      7.631 Mbytes.
================================================================================


 DATASET    6 : space group I4 m m (#107); Bravais tI (body-center tetrag.)
================================================================================
 Values of the parameters that define the memory need for DATASET  6.
     intxc =       0    ionmov =       2      iscf =      17    lmnmax =      18
     lnmax =       6     mgfft =      64  mpssoang =       3    mqgrid =    3976
     natom =       9  nloc_mem =       2    nspden =       1   nspinor =       1
    nsppol =       1      nsym =       8    n1xccc =       1    ntypat =       4
    occopt =       1   xclevel =       2
-    mband =          42        mffmem =           1         mkmem =           4
       mpw =       10846          nfft =      262144          nkpt =          20
Pmy_natom=         2
 PAW method is used; the additional fine FFT grid is defined by:
   mgfftf=       100    nfftf =   1000000
================================================================================
P This job should need less than                     331.112 Mbytes of memory.
  Rough estimation (10% accuracy) of disk space for files :
_ WF disk file :    139.019 Mbytes ; DEN or POT disk file :      7.631 Mbytes.
================================================================================


 DATASET    7 : space group I4 m m (#107); Bravais tI (body-center tetrag.)
================================================================================
 Values of the parameters that define the memory need for DATASET  7.
     intxc =       0    ionmov =       2      iscf =      17    lmnmax =      18
     lnmax =       6     mgfft =      64  mpssoang =       3    mqgrid =    3972
     natom =       9  nloc_mem =       2    nspden =       1   nspinor =       1
    nsppol =       1      nsym =       8    n1xccc =       1    ntypat =       4
    occopt =       1   xclevel =       2
-    mband =          42        mffmem =           1         mkmem =           4
       mpw =       10817          nfft =      262144          nkpt =          20
Pmy_natom=         2
 PAW method is used; the additional fine FFT grid is defined by:
   mgfftf=       100    nfftf =   1000000
================================================================================
P This job should need less than                     331.097 Mbytes of memory.
  Rough estimation (10% accuracy) of disk space for files :
_ WF disk file :    138.648 Mbytes ; DEN or POT disk file :      7.631 Mbytes.
================================================================================


 DATASET    8 : space group I4 m m (#107); Bravais tI (body-center tetrag.)
================================================================================
 Values of the parameters that define the memory need for DATASET  8.
     intxc =       0    ionmov =       2      iscf =      17    lmnmax =      18
     lnmax =       6     mgfft =      64  mpssoang =       3    mqgrid =    3968
     natom =       9  nloc_mem =       2    nspden =       1   nspinor =       1
    nsppol =       1      nsym =       8    n1xccc =       1    ntypat =       4
    occopt =       1   xclevel =       2
-    mband =          42        mffmem =           1         mkmem =           4
       mpw =       10781          nfft =      262144          nkpt =          20
Pmy_natom=         2
 PAW method is used; the additional fine FFT grid is defined by:
   mgfftf=       100    nfftf =   1000000
================================================================================
P This job should need less than                     331.062 Mbytes of memory.
  Rough estimation (10% accuracy) of disk space for files :
_ WF disk file :    138.186 Mbytes ; DEN or POT disk file :      7.631 Mbytes.
================================================================================


 DATASET    9 : space group I4 m m (#107); Bravais tI (body-center tetrag.)
================================================================================
 Values of the parameters that define the memory need for DATASET  9.
     intxc =       0    ionmov =       2      iscf =      17    lmnmax =      18
     lnmax =       6     mgfft =      64  mpssoang =       3    mqgrid =    3964
     natom =       9  nloc_mem =       2    nspden =       1   nspinor =       1
    nsppol =       1      nsym =       8    n1xccc =       1    ntypat =       4
    occopt =       1   xclevel =       2
-    mband =          42        mffmem =           1         mkmem =           4
       mpw =       10754          nfft =      262144          nkpt =          20
Pmy_natom=         2
 PAW method is used; the additional fine FFT grid is defined by:
   mgfftf=       100    nfftf =   1000000
================================================================================
P This job should need less than                     331.053 Mbytes of memory.
  Rough estimation (10% accuracy) of disk space for files :
_ WF disk file :    137.840 Mbytes ; DEN or POT disk file :      7.631 Mbytes.
================================================================================


 DATASET   10 : space group I4 m m (#107); Bravais tI (body-center tetrag.)
================================================================================
 Values of the parameters that define the memory need for DATASET 10.
     intxc =       0    ionmov =       2      iscf =      17    lmnmax =      18
     lnmax =       6     mgfft =      64  mpssoang =       3    mqgrid =    3960
     natom =       9  nloc_mem =       2    nspden =       1   nspinor =       1
    nsppol =       1      nsym =       8    n1xccc =       1    ntypat =       4
    occopt =       1   xclevel =       2
-    mband =          42        mffmem =           1         mkmem =           4
       mpw =       10730          nfft =      262144          nkpt =          20
Pmy_natom=         2
 PAW method is used; the additional fine FFT grid is defined by:
   mgfftf=       100    nfftf =   1000000
================================================================================
P This job should need less than                     331.053 Mbytes of memory.
  Rough estimation (10% accuracy) of disk space for files :
_ WF disk file :    137.533 Mbytes ; DEN or POT disk file :      7.631 Mbytes.
================================================================================

--------------------------------------------------------------------------------
------------- Echo of variables that govern the present computation ------------
--------------------------------------------------------------------------------
-
- outvars: echo of selected default values                                      
-   iomode0 =  0 , fftalg0 =112 , wfoptalg0 = 10
-
- outvars: echo of global parameters not present in the input file              
-  max_nthreads =    0
-
 -outvars: echo values of preprocessed input variables --------
            acell1     1.4900987769E+01  1.5045313857E+01  1.4900987769E+01 Bohr
            acell2     1.4886071866E+01  1.5030253483E+01  1.4886071866E+01 Bohr
            acell3     1.4871155962E+01  1.5015193108E+01  1.4871155962E+01 Bohr
            acell4     1.4856240058E+01  1.5000132734E+01  1.4856240058E+01 Bohr
            acell5     1.4841324155E+01  1.4985072360E+01  1.4841324155E+01 Bohr
            acell6     1.4826408251E+01  1.4970011986E+01  1.4826408251E+01 Bohr
            acell7     1.4811492347E+01  1.4954951611E+01  1.4811492347E+01 Bohr
            acell8     1.4796576444E+01  1.4939891237E+01  1.4796576444E+01 Bohr
            acell9     1.4781660540E+01  1.4924830863E+01  1.4781660540E+01 Bohr
            acell10    1.4766744636E+01  1.4909770489E+01  1.4766744636E+01 Bohr
              amu      1.32905430E+02  1.26904470E+02  1.78490000E+02
                       7.99040000E+01
           diemac      1.20000000E+01
          dilatmx      1.15000000E+00
             ecut      1.60000000E+01 Hartree
           ecutsm      5.00000000E-01 Hartree
-          fftalg         112
          getxred1          0
          getxred2         -1
          getxred3         -1
          getxred4         -1
          getxred5         -1
          getxred6         -1
          getxred7         -1
          getxred8         -1
          getxred9         -1
          getxred10        -1
           ionmov           2
              ixc     -101130
           jdtset        1    2    3    4    5    6    7    8    9   10
              kpt      0.00000000E+00 -1.25000000E-01  0.00000000E+00
                       0.00000000E+00 -3.75000000E-01  0.00000000E+00
                       1.25000000E-01 -2.50000000E-01  0.00000000E+00
                       1.25000000E-01 -1.25000000E-01  1.25000000E-01
                       1.25000000E-01  5.00000000E-01  0.00000000E+00
                       2.50000000E-01 -3.75000000E-01  0.00000000E+00
                       1.25000000E-01 -3.75000000E-01  1.25000000E-01
                       2.50000000E-01 -2.50000000E-01  1.25000000E-01
                       2.50000000E-01 -1.25000000E-01  2.50000000E-01
                       1.25000000E-01  2.50000000E-01  0.00000000E+00
                       2.50000000E-01  3.75000000E-01  0.00000000E+00
                       3.75000000E-01  5.00000000E-01  0.00000000E+00
                       1.25000000E-01  3.75000000E-01  1.25000000E-01
                       2.50000000E-01  5.00000000E-01  1.25000000E-01
                       3.75000000E-01 -3.75000000E-01  1.25000000E-01
                       2.50000000E-01 -3.75000000E-01  2.50000000E-01
                       3.75000000E-01 -2.50000000E-01  2.50000000E-01
                       3.75000000E-01 -1.25000000E-01  3.75000000E-01
                       5.00000000E-01  2.50000000E-01  1.25000000E-01
                      -3.75000000E-01  3.75000000E-01  1.25000000E-01
         kptrlatt        4    4   -4     -4    4    4      4   -4    4
          kptrlen1     8.34682989E+01
          kptrlen2     8.33847471E+01
          kptrlen3     8.33011952E+01
          kptrlen4     8.32176434E+01
          kptrlen5     8.31340915E+01
          kptrlen6     8.30505397E+01
          kptrlen7     8.29669878E+01
          kptrlen8     8.28834360E+01
          kptrlen9     8.27998841E+01
          kptrlen10    8.27163323E+01
P           mkmem           4
            natom           9
            nband          42
           ndtset          10
            ngfft          64      64      64
          ngfftdg         100     100     100
             nkpt          20
            nstep        2500
             nsym           8
            ntime        1000
           ntypat           4
              occ      2.000000  2.000000  2.000000  2.000000  2.000000  2.000000
                       2.000000  2.000000  2.000000  2.000000  2.000000  2.000000
                       2.000000  2.000000  2.000000  2.000000  2.000000  2.000000
                       2.000000  2.000000  2.000000  2.000000  2.000000  2.000000
                       2.000000  2.000000  2.000000  2.000000  2.000000  2.000000
                       2.000000  2.000000  2.000000  2.000000  2.000000  2.000000
                       0.000000  0.000000  0.000000  0.000000  0.000000  0.000000
          optcell           3
        optforces           1
        pawecutdg      4.00000000E+01 Hartree
            prtwf           0
            rprim      0.0000000000E+00  7.0019098923E-01  7.1395558587E-01
                       7.0710678119E-01  0.0000000000E+00  7.0710678119E-01
                       7.1395558587E-01  7.0019098923E-01  0.0000000000E+00
           shiftk     -5.00000000E-01  5.00000000E-01  5.00000000E-01
          spgroup         107
           symrel      1  0  0   0  1  0   0  0  1       0  0  1   0  1  0   1  0  0
                       0 -1  1   0 -1  0   1 -1  0       1 -1  0   0 -1  0   0 -1  1
                       0 -1  1  -1  0  1   0  0  1       0  0  1  -1  0  1   0 -1  1
                       1  0  0   1  0 -1   1 -1  0       1 -1  0   1  0 -1   1  0  0
           toldff      1.00000000E-08
           tolmxf      1.00000000E-05
            typat      1  1  4  2  2  2  2  2  3
           useylm           1
              wtk        0.03125    0.03125    0.06250    0.03125    0.06250    0.06250
                         0.03125    0.06250    0.03125    0.06250    0.06250    0.06250
                         0.03125    0.06250    0.06250    0.03125    0.06250    0.03125
                         0.06250    0.06250
           xangst1     2.8148638228E+00  2.7489103760E+00  2.8148638228E+00
                       8.4445914685E+00  8.2701005554E+00  8.4445914685E+00
                       5.6297276456E+00  8.3921903605E+00  5.6297276456E+00
                       5.6297276456E+00  5.5161700316E+00  2.8305260707E+00
                       5.6297276457E+00  5.5161700316E+00  8.4289292207E+00
                       5.6297276457E+00  2.7616216523E+00  5.6297276457E+00
                       8.4289292207E+00  5.5161700316E+00  5.6297276457E+00
                       2.8305260707E+00  5.5161700316E+00  5.6297276456E+00
                       1.1776565821E-12 -6.7946299934E-02  1.1776565821E-12
           xangst2     2.8120461413E+00  2.7461587139E+00  2.8120461413E+00
                       8.4361384240E+00  8.2618221765E+00  8.4361384240E+00
                       5.6240922826E+00  8.3837897696E+00  5.6240922826E+00
                       5.6240922826E+00  5.5106483399E+00  2.8276927113E+00
                       5.6240922827E+00  5.5106483399E+00  8.4204918541E+00
                       5.6240922827E+00  2.7588572663E+00  5.6240922827E+00
                       8.4204918541E+00  5.5106483399E+00  5.6240922827E+00
                       2.8276927113E+00  5.5106483399E+00  5.6240922826E+00
                       1.1764773340E-12 -6.7878285620E-02  1.1764773340E-12
           xangst3     2.8092284598E+00  2.7434070519E+00  2.8092284598E+00
                       8.4276853795E+00  8.2535437975E+00  8.4276853795E+00
                       5.6184569196E+00  8.3753891786E+00  5.6184569196E+00
                       5.6184569196E+00  5.5051266482E+00  2.8248593518E+00
                       5.6184569197E+00  5.5051266482E+00  8.4120544875E+00
                       5.6184569197E+00  2.7560928803E+00  5.6184569197E+00
                       8.4120544875E+00  5.5051266482E+00  5.6184569197E+00
                       2.8248593518E+00  5.5051266482E+00  5.6184569196E+00
                       1.1752980858E-12 -6.7810271305E-02  1.1752980858E-12
           xangst4     2.8064107783E+00  2.7406553899E+00  2.8064107783E+00
                       8.4192323350E+00  8.2452654186E+00  8.4192323350E+00
                       5.6128215566E+00  8.3669885877E+00  5.6128215566E+00
                       5.6128215566E+00  5.4996049565E+00  2.8220259924E+00
                       5.6128215567E+00  5.4996049565E+00  8.4036171209E+00
                       5.6128215567E+00  2.7533284942E+00  5.6128215567E+00
                       8.4036171209E+00  5.4996049565E+00  5.6128215567E+00
                       2.8220259924E+00  5.4996049565E+00  5.6128215566E+00
                       1.1741188377E-12 -6.7742256991E-02  1.1741188377E-12
           xangst5     2.8035930968E+00  2.7379037278E+00  2.8035930968E+00
                       8.4107792905E+00  8.2369870397E+00  8.4107792905E+00
                       5.6071861936E+00  8.3585879967E+00  5.6071861936E+00
                       5.6071861936E+00  5.4940832647E+00  2.8191926330E+00
                       5.6071861937E+00  5.4940832647E+00  8.3951797543E+00
                       5.6071861937E+00  2.7505641082E+00  5.6071861937E+00
                       8.3951797543E+00  5.4940832647E+00  5.6071861937E+00
                       2.8191926330E+00  5.4940832647E+00  5.6071861936E+00
                       1.1729405102E-12 -6.7674242677E-02  1.1729405102E-12
           xangst6     2.8007754153E+00  2.7351520658E+00  2.8007754153E+00
                       8.4023262460E+00  8.2287086607E+00  8.4023262460E+00
                       5.6015508306E+00  8.3501874058E+00  5.6015508306E+00
                       5.6015508306E+00  5.4885615730E+00  2.8163592736E+00
                       5.6015508307E+00  5.4885615730E+00  8.3867423877E+00
                       5.6015508307E+00  2.7477997221E+00  5.6015508307E+00
                       8.3867423877E+00  5.4885615730E+00  5.6015508307E+00
                       2.8163592736E+00  5.4885615730E+00  5.6015508306E+00
                       1.1717612670E-12 -6.7606228363E-02  1.1717612670E-12
           xangst7     2.7979577338E+00  2.7324004037E+00  2.7979577338E+00
                       8.3938732014E+00  8.2204302818E+00  8.3938732014E+00
                       5.5959154676E+00  8.3417868148E+00  5.5959154676E+00
                       5.5959154676E+00  5.4830398813E+00  2.8135259141E+00
                       5.5959154677E+00  5.4830398813E+00  8.3783050211E+00
                       5.5959154677E+00  2.7450353361E+00  5.5959154677E+00
                       8.3783050211E+00  5.4830398813E+00  5.5959154677E+00
                       2.8135259141E+00  5.4830398813E+00  5.5959154676E+00
                       1.1705673361E-12 -6.7538214048E-02  1.1705673361E-12
           xangst8     2.7951400523E+00  2.7296487417E+00  2.7951400523E+00
                       8.3854201569E+00  8.2121519029E+00  8.3854201569E+00
                       5.5902801046E+00  8.3333862239E+00  5.5902801046E+00
                       5.5902801046E+00  5.4775181896E+00  2.8106925547E+00
                       5.5902801047E+00  5.4775181896E+00  8.3698676545E+00
                       5.5902801047E+00  2.7422709501E+00  5.5902801047E+00
                       8.3698676545E+00  5.4775181896E+00  5.5902801047E+00
                       2.8106925547E+00  5.4775181896E+00  5.5902801046E+00
                       1.1694012207E-12 -6.7470199734E-02  1.1694012207E-12
           xangst9     2.7923223708E+00  2.7268970797E+00  2.7923223708E+00
                       8.3769671124E+00  8.2038735239E+00  8.3769671124E+00
                       5.5846447416E+00  8.3249856329E+00  5.5846447416E+00
                       5.5846447416E+00  5.4719964978E+00  2.8078591953E+00
                       5.5846447417E+00  5.4719964978E+00  8.3614302880E+00
                       5.5846447417E+00  2.7395065640E+00  5.5846447417E+00
                       8.3614302880E+00  5.4719964978E+00  5.5846447417E+00
                       2.8078591953E+00  5.4719964978E+00  5.5846447416E+00
                       1.1682204178E-12 -6.7402185420E-02  1.1682204178E-12
           xangst10    2.7895046893E+00  2.7241454176E+00  2.7895046893E+00
                       8.3685140679E+00  8.1955951450E+00  8.3685140679E+00
                       5.5790093786E+00  8.3165850420E+00  5.5790093786E+00
                       5.5790093786E+00  5.4664748061E+00  2.8050258358E+00
                       5.5790093787E+00  5.4664748061E+00  8.3529929214E+00
                       5.5790093787E+00  2.7367421780E+00  5.5790093787E+00
                       8.3529929214E+00  5.4664748061E+00  5.5790093787E+00
                       2.8050258358E+00  5.4664748061E+00  5.5790093786E+00
                       1.1670485183E-12 -6.7334171106E-02  1.1670485183E-12
            xcart1     5.3193217265E+00  5.1946877744E+00  5.3193217265E+00
                       1.5957965180E+01  1.5628225141E+01  1.5957965180E+01
                       1.0638643453E+01  1.5858941436E+01  1.0638643453E+01
                       1.0638643453E+01  1.0424050662E+01  5.3489190856E+00
                       1.0638643453E+01  1.0424050662E+01  1.5928367821E+01
                       1.0638643453E+01  5.2187086056E+00  1.0638643453E+01
                       1.5928367821E+01  1.0424050662E+01  1.0638643453E+01
                       5.3489190856E+00  1.0424050662E+01  1.0638643453E+01
                       2.2254484187E-12 -1.2839989862E-01  2.2254484187E-12
            xcart2     5.3139970802E+00  5.1894878868E+00  5.3139970802E+00
                       1.5941991240E+01  1.5612581272E+01  1.5941991240E+01
                       1.0627994160E+01  1.5843066620E+01  1.0627994160E+01
                       1.0627994160E+01  1.0413616177E+01  5.3435648123E+00
                       1.0627994160E+01  1.0413616177E+01  1.5912423508E+01
                       1.0627994160E+01  5.2134846730E+00  1.0627994160E+01
                       1.5912423508E+01  1.0413616177E+01  1.0627994160E+01
                       5.3435648123E+00  1.0413616177E+01  1.0627994160E+01
                       2.2232199627E-12 -1.2827137019E-01  2.2232199627E-12
            xcart3     5.3086724338E+00  5.1842879991E+00  5.3086724338E+00
                       1.5926017301E+01  1.5596937403E+01  1.5926017301E+01
                       1.0617344867E+01  1.5827191804E+01  1.0617344867E+01
                       1.0617344867E+01  1.0403181692E+01  5.3382105389E+00
                       1.0617344868E+01  1.0403181692E+01  1.5896479196E+01
                       1.0617344868E+01  5.2082607405E+00  1.0617344868E+01
                       1.5896479196E+01  1.0403181692E+01  1.0617344868E+01
                       5.3382105389E+00  1.0403181692E+01  1.0617344867E+01
                       2.2209915067E-12 -1.2814284176E-01  2.2209915067E-12
            xcart4     5.3033477874E+00  5.1790881114E+00  5.3033477874E+00
                       1.5910043362E+01  1.5581293534E+01  1.5910043362E+01
                       1.0606695575E+01  1.5811316988E+01  1.0606695575E+01
                       1.0606695575E+01  1.0392747207E+01  5.3328562655E+00
                       1.0606695575E+01  1.0392747207E+01  1.5880534884E+01
                       1.0606695575E+01  5.2030368079E+00  1.0606695575E+01
                       1.5880534884E+01  1.0392747207E+01  1.0606695575E+01
                       5.3328562655E+00  1.0392747207E+01  1.0606695575E+01
                       2.2187630507E-12 -1.2801431334E-01  2.2187630507E-12
            xcart5     5.2980231410E+00  5.1738882238E+00  5.2980231410E+00
                       1.5894069423E+01  1.5565649665E+01  1.5894069423E+01
                       1.0596046282E+01  1.5795442171E+01  1.0596046282E+01
                       1.0596046282E+01  1.0382312722E+01  5.3275019922E+00
                       1.0596046282E+01  1.0382312722E+01  1.5864590572E+01
                       1.0596046282E+01  5.1978128754E+00  1.0596046282E+01
                       1.5864590572E+01  1.0382312722E+01  1.0596046282E+01
                       5.3275019922E+00  1.0382312722E+01  1.0596046282E+01
                       2.2165363344E-12 -1.2788578491E-01  2.2165363344E-12
            xcart6     5.2926984947E+00  5.1686883361E+00  5.2926984947E+00
                       1.5878095484E+01  1.5550005796E+01  1.5878095484E+01
                       1.0585396989E+01  1.5779567355E+01  1.0585396989E+01
                       1.0585396989E+01  1.0371878236E+01  5.3221477188E+00
                       1.0585396989E+01  1.0371878236E+01  1.5848646260E+01
                       1.0585396989E+01  5.1925889429E+00  1.0585396989E+01
                       1.5848646260E+01  1.0371878236E+01  1.0585396989E+01
                       5.3221477188E+00  1.0371878236E+01  1.0585396989E+01
                       2.2143078877E-12 -1.2775725648E-01  2.2143078877E-12
            xcart7     5.2873738483E+00  5.1634884485E+00  5.2873738483E+00
                       1.5862121545E+01  1.5534361927E+01  1.5862121545E+01
                       1.0574747697E+01  1.5763692539E+01  1.0574747697E+01
                       1.0574747697E+01  1.0361443751E+01  5.3167934455E+00
                       1.0574747697E+01  1.0361443751E+01  1.5832701948E+01
                       1.0574747697E+01  5.1873650103E+00  1.0574747697E+01
                       1.5832701948E+01  1.0361443751E+01  1.0574747697E+01
                       5.3167934455E+00  1.0361443751E+01  1.0574747697E+01
                       2.2120516853E-12 -1.2762872806E-01  2.2120516853E-12
            xcart8     5.2820492019E+00  5.1582885608E+00  5.2820492019E+00
                       1.5846147606E+01  1.5518718058E+01  1.5846147606E+01
                       1.0564098404E+01  1.5747817723E+01  1.0564098404E+01
                       1.0564098404E+01  1.0351009266E+01  5.3114391721E+00
                       1.0564098404E+01  1.0351009266E+01  1.5816757636E+01
                       1.0564098404E+01  5.1821410778E+00  1.0564098404E+01
                       1.5816757636E+01  1.0351009266E+01  1.0564098404E+01
                       5.3114391721E+00  1.0351009266E+01  1.0564098404E+01
                       2.2098480467E-12 -1.2750019963E-01  2.2098480467E-12
            xcart9     5.2767245556E+00  5.1530886731E+00  5.2767245556E+00
                       1.5830173667E+01  1.5503074189E+01  1.5830173667E+01
                       1.0553449111E+01  1.5731942906E+01  1.0553449111E+01
                       1.0553449111E+01  1.0340574781E+01  5.3060848988E+00
                       1.0553449111E+01  1.0340574781E+01  1.5800813323E+01
                       1.0553449111E+01  5.1769171453E+00  1.0553449111E+01
                       1.5800813323E+01  1.0340574781E+01  1.0553449111E+01
                       5.3060848988E+00  1.0340574781E+01  1.0553449111E+01
                       2.2076166524E-12 -1.2737167120E-01  2.2076166524E-12
            xcart10    5.2713999092E+00  5.1478887855E+00  5.2713999092E+00
                       1.5814199728E+01  1.5487430320E+01  1.5814199728E+01
                       1.0542799818E+01  1.5716068090E+01  1.0542799818E+01
                       1.0542799818E+01  1.0330140296E+01  5.3007306254E+00
                       1.0542799818E+01  1.0330140296E+01  1.5784869011E+01
                       1.0542799818E+01  5.1716932127E+00  1.0542799818E+01
                       1.5784869011E+01  1.0330140296E+01  1.0542799818E+01
                       5.3007306254E+00  1.0330140296E+01  1.0542799818E+01
                       2.2054020834E-12 -1.2724314277E-01  2.2054020834E-12
             xred      2.4894183017E-01  2.5105816983E-01  2.4894183017E-01
                       7.4894183017E-01  7.5105816983E-01  7.4894183017E-01
                       7.5999830542E-01  2.4000169458E-01  7.5999830542E-01
                       2.5093640518E-01  2.5184565620E-01  7.4815434380E-01
                       7.4815434380E-01  7.4906359482E-01  2.5093640518E-01
                       2.5009296570E-01  7.4990703430E-01  2.5009296570E-01
                       2.5093640518E-01  7.4906359482E-01  7.4815434380E-01
                       7.4815434380E-01  2.5184565620E-01  2.5093640518E-01
                      -6.1532294420E-03  6.1532294420E-03 -6.1532294420E-03
            znucl       55.00000   53.00000   72.00000   35.00000

================================================================================

 chkinp: Checking input parameters for consistency, jdtset=   1.

 chkinp: Checking input parameters for consistency, jdtset=   2.

 chkinp: Checking input parameters for consistency, jdtset=   3.

 chkinp: Checking input parameters for consistency, jdtset=   4.

 chkinp: Checking input parameters for consistency, jdtset=   5.

 chkinp: Checking input parameters for consistency, jdtset=   6.

 chkinp: Checking input parameters for consistency, jdtset=   7.

 chkinp: Checking input parameters for consistency, jdtset=   8.

 chkinp: Checking input parameters for consistency, jdtset=   9.

 chkinp: Checking input parameters for consistency, jdtset=  10.

================================================================================
== DATASET  1 ==================================================================
-   mpi_nproc: 6, omp_nthreads: -1 (-1 if OMP is not activated)


--- !DatasetInfo
iteration_state: {dtset: 1, }
dimensions: {natom: 9, nkpt: 20, mband: 42, nsppol: 1, nspinor: 1, nspden: 1, mpw: 11014, }
cutoff_energies: {ecut:  16.0, pawecutdg:  40.0, }
electrons: {nelect:   7.20000000E+01, charge:   0.00000000E+00, occopt:   1.00000000E+00, tsmear:   1.00000000E-02, }
meta: {optdriver: 0, ionmov: 2, optcell: 3, iscf: 17, paral_kgb: 0, }
...

 Real(R)+Recip(G) space primitive vectors, cartesian coordinates (Bohr,Bohr^-1):
 R(1)=  0.0000000 10.4335374 10.6386435  G(1)= -0.0469985  0.0479224  0.0469985
 R(2)= 10.6386435  0.0000000 10.6386435  G(2)=  0.0469985 -0.0479224  0.0469985
 R(3)= 10.6386435 10.4335374  0.0000000  G(3)=  0.0469985  0.0479224 -0.0469985
 Unit cell volume ucvol=  2.3617508E+03 bohr^3
 Angles (23,13,12)=  5.96790800E+01  6.06418401E+01  5.96790800E+01 degrees

 Coarse grid specifications (used for wave-functions):

 getcut: wavevector=  0.0000  0.0000  0.0000  ngfft=  64  64  64
         ecut(hartree)=     21.160   => boxcut(ratio)=   2.05426

 Fine grid specifications (used for densities):

 getcut: wavevector=  0.0000  0.0000  0.0000  ngfft= 100 100 100
         ecut(hartree)=     52.900   => boxcut(ratio)=   2.03005

--- Pseudopotential description ------------------------------------------------
- pspini: atom type   1  psp file is ../../../Psps_for_tests/ATOMICDATA/Cs.GGA_PBE-JTH.xml
- pspatm: opening atomic psp file    ../../../Psps_for_tests/ATOMICDATA/Cs.GGA_PBE-JTH.xml
- pspatm : Reading pseudopotential header in XML form from ../../../Psps_for_tests/ATOMICDATA/Cs.GGA_PBE-JTH.xml
 Pseudopotential format is: paw10
 basis_size (lnmax)=  6 (lmn_size= 18), orbitals=   0   0   1   1   2   2
 Spheres core radius: rc_sph= 2.20660278
 1 radial meshes are used:
  - mesh 1: r(i)=AA*[exp(BB*(i-1))-1], size=1500 , AA= 0.15922E-03 BB= 0.87573E-02
 Shapefunction is SIN type: shapef(r)=[sin(pi*r/rshp)/(pi*r/rshp)]**2
 Radius for shape functions =  2.00394208
 mmax= 1500
 Radial grid used for partial waves is grid 1
 Radial grid used for projectors is grid 1
 Radial grid used for (t)core density is grid 1
 Radial grid used for Vloc is grid 1
 Radial grid used for pseudo valence density is grid 1
 Mesh size for Vloc has been set to 1341 to avoid numerical noise.
 Compensation charge density is not taken into account in XC energy/potential
 pspatm: atomic psp has been read  and splines computed

- pspini: atom type   2  psp file is ../../../Psps_for_tests/ATOMICDATA/I.GGA_PBE-JTH.xml
- pspatm: opening atomic psp file    ../../../Psps_for_tests/ATOMICDATA/I.GGA_PBE-JTH.xml
- pspatm : Reading pseudopotential header in XML form from ../../../Psps_for_tests/ATOMICDATA/I.GGA_PBE-JTH.xml
 Pseudopotential format is: paw10
 basis_size (lnmax)=  4 (lmn_size=  8), orbitals=   0   0   1   1
 Spheres core radius: rc_sph= 2.30022271
 1 radial meshes are used:
  - mesh 1: r(i)=AA*[exp(BB*(i-1))-1], size=2000 , AA= 0.12610E-03 BB= 0.66836E-02
 Shapefunction is SIN type: shapef(r)=[sin(pi*r/rshp)/(pi*r/rshp)]**2
 Radius for shape functions =  2.10879093
 mmax= 2000
 Radial grid used for partial waves is grid 1
 Radial grid used for projectors is grid 1
 Radial grid used for (t)core density is grid 1
 Radial grid used for Vloc is grid 1
 Radial grid used for pseudo valence density is grid 1
 Mesh size for Vloc has been set to 1792 to avoid numerical noise.
 Compensation charge density is not taken into account in XC energy/potential
 pspatm: atomic psp has been read  and splines computed

- pspini: atom type   3  psp file is ../../../Psps_for_tests/ATOMICDATA/Hf.GGA_PBE-JTH.xml
- pspatm: opening atomic psp file    ../../../Psps_for_tests/ATOMICDATA/Hf.GGA_PBE-JTH.xml
- pspatm : Reading pseudopotential header in XML form from ../../../Psps_for_tests/ATOMICDATA/Hf.GGA_PBE-JTH.xml
 Pseudopotential format is: paw10
 basis_size (lnmax)=  6 (lmn_size= 18), orbitals=   0   0   1   1   2   2
 Spheres core radius: rc_sph= 2.41000000
 1 radial meshes are used:
  - mesh 1: r(i)=AA*[exp(BB*(i-1))-1], size= 972 , AA= 0.19796E-03 BB= 0.14253E-01
 Shapefunction is SIN type: shapef(r)=[sin(pi*r/rshp)/(pi*r/rshp)]**2
 Radius for shape functions =  2.41000000
 mmax=  972
 Radial grid used for partial waves is grid 1
 Radial grid used for projectors is grid 1
 Radial grid used for (t)core density is grid 1
 Radial grid used for Vloc is grid 1
 Radial grid used for pseudo valence density is grid 1
 Mesh size for Vloc has been set to  809 to avoid numerical noise.
 Compensation charge density is not taken into account in XC energy/potential
 pspatm: atomic psp has been read  and splines computed

- pspini: atom type   4  psp file is ../../../Psps_for_tests/ATOMICDATA/Br.GGA_PBE-JTH.xml
- pspatm: opening atomic psp file    ../../../Psps_for_tests/ATOMICDATA/Br.GGA_PBE-JTH.xml
- pspatm : Reading pseudopotential header in XML form from ../../../Psps_for_tests/ATOMICDATA/Br.GGA_PBE-JTH.xml
 Pseudopotential format is: paw10
 basis_size (lnmax)=  4 (lmn_size=  8), orbitals=   0   0   1   1
 Spheres core radius: rc_sph= 2.20000000
 1 radial meshes are used:
  - mesh 1: r(i)=AA*[exp(BB*(i-1))-1], size= 927 , AA= 0.40483E-03 BB= 0.14169E-01
 Shapefunction is BESSEL type: shapef(r,l)=aa(1,l)*jl(q(1,l)*r)+aa(2,l)*jl(q(2,l)*r)
 Radius for shape functions =  2.02066386
 mmax=  927
 Radial grid used for partial waves is grid 1
 Radial grid used for projectors is grid 1
 Radial grid used for (t)core density is grid 1
 Radial grid used for Vloc is grid 1
 Radial grid used for pseudo valence density is grid 1
 Mesh size for Vloc has been set to  763 to avoid numerical noise.
 Compensation charge density is not taken into account in XC energy/potential
 pspatm: atomic psp has been read  and splines computed

   4.62562028E+04                                ecore*ucvol(ha*bohr**3)
--------------------------------------------------------------------------------

_setup2: Arith. and geom. avg. npw (full set) are   10980.375   10980.367

================================================================================

=== [ionmov= 2] Broyden-Fletcher-Goldfard-Shanno method (forces)            
================================================================================

--- Iteration: (   1/1000) Internal Cycle: (1/1)
--------------------------------------------------------------------------------

---SELF-CONSISTENT-FIELD CONVERGENCE--------------------------------------------

--- !BeginCycle
iteration_state: {dtset: 1, itime: 1, icycle: 1, }
solver: {iscf: 17, nstep: 2500, nline: 4, wfoptalg: 10, }
tolerances: {toldff: 1.00E-08, }
...

     iter   Etot(hartree)      deltaE(h)  residm     nres2    diffor    maxfor
 ETOT  1  -161.87080464761    -1.619E+02 3.049E+00 7.350E+00 8.113E-02 8.113E-02
 ETOT  2  -163.29606776873    -1.425E+00 1.738E-02 2.327E+00 8.970E-02 9.979E-03
 ETOT  3  -163.29013176494     5.936E-03 1.287E-02 4.516E-01 3.492E-02 3.068E-02
 ETOT  4  -163.29097788866    -8.461E-04 3.398E-03 1.118E-01 4.156E-02 1.088E-02
 ETOT  5  -163.29082248433     1.554E-04 2.800E-03 6.511E-03 1.313E-02 2.386E-03
 ETOT  6  -163.29088413682    -6.165E-05 2.147E-03 1.121E-03 2.648E-03 2.624E-04
 ETOT  7  -163.29089382172    -9.685E-06 1.032E-03 2.380E-04 5.916E-04 7.213E-04
 ETOT  8  -163.29089606851    -2.247E-06 6.741E-04 1.237E-05 3.739E-04 3.721E-04
 ETOT  9  -163.29089628045    -2.119E-07 4.327E-04 4.082E-06 1.312E-04 4.785E-04
 ETOT 10  -163.29089631145    -3.100E-08 5.036E-04 5.752E-07 3.709E-05 5.156E-04
 ETOT 11  -163.29089632354    -1.210E-08 4.975E-04 4.287E-07 1.117E-05 5.267E-04
 ETOT 12  -163.29089632312     4.200E-10 5.173E-04 3.370E-08 8.271E-06 5.194E-04
 ETOT 13  -163.29089632332    -1.945E-10 4.301E-04 5.941E-08 5.056E-06 5.213E-04
 ETOT 14  -163.29089632311     2.129E-10 3.669E-04 2.401E-09 3.619E-06 5.249E-04
 ETOT 15  -163.29089632319    -8.816E-11 2.626E-04 5.470E-09 1.422E-06 5.261E-04
 ETOT 16  -163.29089632315     4.164E-11 1.963E-04 1.043E-09 8.469E-07 5.253E-04
 ETOT 17  -163.29089632316    -3.666E-12 1.298E-04 2.457E-10 4.010E-07 5.252E-04
 ETOT 18  -163.29089632316    -1.648E-12 9.079E-05 1.982E-10 3.396E-08 5.252E-04
 ETOT 19  -163.29089632316    -5.230E-12 5.816E-05 8.278E-12 1.005E-07 5.253E-04
 ETOT 20  -163.29089632317    -2.728E-12 3.957E-05 1.973E-12 6.122E-08 5.254E-04
 ETOT 21  -163.29089632316     1.478E-12 2.515E-05 2.340E-12 1.191E-08 5.253E-04
 ETOT 22  -163.29089632317    -4.206E-12 1.694E-05 1.620E-13 1.800E-08 5.253E-04
 ETOT 23  -163.29089632316     9.379E-12 1.078E-05 1.904E-13 5.208E-09 5.253E-04
 ETOT 24  -163.29089632317    -8.868E-12 7.241E-06 2.668E-14 3.585E-09 5.253E-04

 At SCF step   24, forces are converged : 
  for the second time, max diff in force=  3.585E-09 < toldff=  1.000E-08

 Cartesian components of stress tensor (hartree/bohr^3)
  sigma(1 1)= -8.64117183E-05  sigma(3 2)=  1.42233728E-13
  sigma(2 2)= -8.65534319E-05  sigma(3 1)= -2.78987205E-13
  sigma(3 3)= -8.64117183E-05  sigma(2 1)=  1.42235177E-13


--- !ResultsGS
iteration_state: {dtset: 1, itime: 1, icycle: 1, }
comment   : Summary of ground state results
lattice_vectors:
- [  0.0000000,  10.4335374,  10.6386435, ]
- [ 10.6386435,   0.0000000,  10.6386435, ]
- [ 10.6386435,  10.4335374,   0.0000000, ]
lattice_lengths: [  14.90099,   15.04531,   14.90099, ]
lattice_angles: [ 59.679,  60.642,  59.679, ] # degrees, (23, 13, 12)
lattice_volume:   2.3617508E+03
convergence: {deltae: -8.868E-12, res2:  2.668E-14, residm:  7.241E-06, diffor:  3.585E-09, }
etotal    :  -1.63290896E+02
entropy   :   0.00000000E+00
fermie    :  -1.08730924E-01
cartesian_stress_tensor: # hartree/bohr^3
- [ -8.64117183E-05,   1.42235177E-13,  -2.78987205E-13, ]
- [  1.42235177E-13,  -8.65534319E-05,   1.42233728E-13, ]
- [ -2.78987205E-13,   1.42233728E-13,  -8.64117183E-05, ]
pressure_GPa:   2.5437E+00
xred      :
- [  2.4894E-01,   2.5106E-01,   2.4894E-01, Cs]
- [  7.4894E-01,   7.5106E-01,   7.4894E-01, Cs]
- [  7.6000E-01,   2.4000E-01,   7.6000E-01, Br]
- [  2.5094E-01,   2.5185E-01,   7.4815E-01,  I]
- [  7.4815E-01,   7.4906E-01,   2.5094E-01,  I]
- [  2.5009E-01,   7.4991E-01,   2.5009E-01,  I]
- [  2.5094E-01,   7.4906E-01,   7.4815E-01,  I]
- [  7.4815E-01,   2.5185E-01,   2.5094E-01,  I]
- [ -6.1532E-03,   6.1532E-03,  -6.1532E-03, Hf]
cartesian_forces: # hartree/bohr
- [ -6.48602319E-21,   1.54600397E-05,  -3.80274702E-21, ]
- [ -9.03381553E-21,   1.54600397E-05,  -1.25495467E-21, ]
- [ -1.03118411E-20,  -5.25327831E-04,   2.30708992E-23, ]
- [ -7.00939721E-15,   1.58288642E-05,   4.12362860E-04, ]
- [  7.00939448E-15,   1.58288642E-05,  -4.12362860E-04, ]
- [  6.63127063E-21,   4.12392088E-04,  -1.69200408E-20, ]
- [ -4.12362860E-04,   1.58288642E-05,   7.00938994E-15, ]
- [  4.12362860E-04,   1.58288642E-05,  -7.00940098E-15, ]
- [ -4.26569381E-21,   1.87002067E-05,  -6.02307640E-21, ]
force_length_stats: {min:   1.54600397E-05, max:   5.25327831E-04, mean:   2.93111823E-04, }
...

 Integrated electronic density in atomic spheres:
 ------------------------------------------------
 Atom  Sphere_radius  Integrated_density
    1        2.20660          5.36846521
    2        2.20660          5.36846521
    3        2.20000          4.93728195
    4        2.30022          4.02976688
    5        2.30022          4.02976688
    6        2.30022          4.02935274
    7        2.30022          4.02976688
    8        2.30022          4.02976688
    9        2.41000          9.30835999

 PAW TEST:
 ==== Compensation charge inside spheres ============
 The following values must be close to each other ...
 Compensation charge over spherical meshes =     -0.544855855173999
 Compensation charge over fine fft grid    =     -0.544853994113041

 ==== Results concerning PAW augmentation regions ====

 Total pseudopotential strength Dij (hartree):
 Atom #  1
   0.44490  -0.14729   0.00000   0.00000   0.00000  -0.00000   0.00000   0.00000   0.00000   0.00000   0.00000  -0.00000 ...
  -0.14729   0.04442  -0.00000   0.00000   0.00000   0.00000   0.00000   0.00000   0.00000   0.00000  -0.00000   0.00000 ...
   0.00000  -0.00000  -0.09413   0.00000   0.00000  -0.16624   0.00000   0.00000   0.00000   0.00000  -0.00000  -0.00000 ...
   0.00000   0.00000   0.00000  -0.09413  -0.00000   0.00000  -0.16625   0.00000  -0.00000   0.00000   0.00000   0.00000 ...
   0.00000   0.00000   0.00000  -0.00000  -0.09413   0.00000   0.00000  -0.16625   0.00000  -0.00000   0.00000   0.00000 ...
  -0.00000   0.00000  -0.16624   0.00000   0.00000   0.40545   0.00000   0.00000   0.00000   0.00000   0.00000   0.00000 ...
   0.00000   0.00000   0.00000  -0.16625   0.00000   0.00000   0.40545  -0.00001   0.00000  -0.00000   0.00000   0.00000 ...
   0.00000   0.00000   0.00000   0.00000  -0.16625   0.00000  -0.00001   0.40545  -0.00000   0.00000   0.00000   0.00000 ...
   0.00000   0.00000   0.00000  -0.00000   0.00000   0.00000   0.00000  -0.00000   0.00515  -0.00000   0.00000   0.00000 ...
   0.00000   0.00000   0.00000   0.00000  -0.00000   0.00000  -0.00000   0.00000  -0.00000   0.00515   0.00000   0.00000 ...
   0.00000  -0.00000  -0.00000   0.00000   0.00000   0.00000   0.00000   0.00000   0.00000   0.00000   0.00515  -0.00000 ...
  -0.00000   0.00000  -0.00000   0.00000   0.00000   0.00000   0.00000   0.00000   0.00000   0.00000  -0.00000   0.00515 ...
   ...  only 12  components have been written...
 Atom #  9
  -3.52666   0.43118  -0.00013   0.00000   0.00000   0.00003   0.00000   0.00000   0.00000   0.00000  -0.00004   0.00000 ...
   0.43118   0.00230   0.00003   0.00000   0.00000  -0.00001   0.00000   0.00000   0.00000   0.00000   0.00001   0.00000 ...
  -0.00013   0.00003  -1.46934   0.00000   0.00000   0.12607   0.00000   0.00000   0.00000   0.00000   0.00002   0.00000 ...
   0.00000   0.00000   0.00000  -1.46962   0.00000   0.00000   0.12612   0.00000   0.00000  -0.00004   0.00000   0.00000 ...
   0.00000   0.00000   0.00000   0.00000  -1.46962   0.00000   0.00000   0.12612  -0.00004   0.00000   0.00000   0.00000 ...
   0.00003  -0.00001   0.12607   0.00000   0.00000   0.01296   0.00000   0.00000   0.00000   0.00000  -0.00000   0.00000 ...
   0.00000   0.00000   0.00000   0.12612   0.00000   0.00000   0.01295   0.00000   0.00000   0.00001   0.00000   0.00000 ...
   0.00000   0.00000   0.00000   0.00000   0.12612   0.00000   0.00000   0.01295   0.00001   0.00000   0.00000   0.00000 ...
   0.00000   0.00000   0.00000   0.00000  -0.00004   0.00000   0.00000   0.00001  -0.39657   0.00000   0.00000   0.00000 ...
   0.00000   0.00000   0.00000  -0.00004   0.00000   0.00000   0.00001   0.00000   0.00000  -0.39657   0.00000   0.00000 ...
  -0.00004   0.00001   0.00002   0.00000   0.00000  -0.00000   0.00000   0.00000   0.00000   0.00000  -0.39594   0.00000 ...
   0.00000   0.00000   0.00000   0.00000   0.00000   0.00000   0.00000   0.00000   0.00000   0.00000   0.00000  -0.39663 ...
   ...  only 12  components have been written...


 Augmentation waves occupancies Rhoij:
 Atom #  1
   1.99767  -0.01472   0.00001   0.00000   0.00000   0.00000   0.00000   0.00000   0.00000   0.00000   0.00037  -0.00217 ...
  -0.01472   0.18162   0.00018   0.00000   0.00000  -0.00001   0.00000   0.00000   0.00000   0.00000  -0.00539   0.01256 ...
   0.00001   0.00018   2.00746   0.00000   0.00000  -0.00511   0.00000   0.00000   0.00000   0.00000  -0.00011  -0.00131 ...
   0.00000   0.00000   0.00000   2.00674   0.00120   0.00000  -0.00496  -0.00021  -0.00142  -0.00005   0.00000   0.00000 ...
   0.00000   0.00000   0.00000   0.00120   2.00674   0.00000  -0.00021  -0.00496  -0.00005  -0.00142   0.00000   0.00000 ...
   0.00000  -0.00001  -0.00511   0.00000   0.00000   0.00014   0.00000   0.00000   0.00000   0.00000   0.00001   0.00005 ...
   0.00000   0.00000   0.00000  -0.00496  -0.00021   0.00000   0.00013   0.00001   0.00005   0.00000   0.00000   0.00000 ...
   0.00000   0.00000   0.00000  -0.00021  -0.00496   0.00000   0.00001   0.00013   0.00000   0.00005   0.00000   0.00000 ...
   0.00000   0.00000   0.00000  -0.00142  -0.00005   0.00000   0.00005   0.00000   0.07042   0.00015   0.00000   0.00000 ...
   0.00000   0.00000   0.00000  -0.00005  -0.00142   0.00000   0.00000   0.00005   0.00015   0.07042   0.00000   0.00000 ...
   0.00037  -0.00539  -0.00011   0.00000   0.00000   0.00001   0.00000   0.00000   0.00000   0.00000   0.04538   0.00546 ...
  -0.00217   0.01256  -0.00131   0.00000   0.00000   0.00005   0.00000   0.00000   0.00000   0.00000   0.00546   0.05005 ...
   ...  only 12  components have been written...
 Atom #  9
   1.99800  -0.01978  -0.00008   0.00000   0.00000  -0.00032   0.00000   0.00000   0.00000   0.00000  -0.00016   0.00000 ...
  -0.01978   1.01403   0.00065   0.00000   0.00000  -0.01909   0.00000   0.00000   0.00000   0.00000  -0.01168   0.00000 ...
  -0.00008   0.00065   1.99295   0.00000   0.00000  -0.05954   0.00000   0.00000   0.00000   0.00000   0.00057   0.00000 ...
   0.00000   0.00000   0.00000   1.99311   0.00000   0.00000  -0.05692   0.00000   0.00000  -0.00152   0.00000   0.00000 ...
   0.00000   0.00000   0.00000   0.00000   1.99311   0.00000   0.00000  -0.05692  -0.00152   0.00000   0.00000   0.00000 ...
  -0.00032  -0.01909  -0.05954   0.00000   0.00000   1.31352   0.00000   0.00000   0.00000   0.00000   0.04309   0.00000 ...
   0.00000   0.00000   0.00000  -0.05692   0.00000   0.00000   1.21302   0.00000   0.00000   0.03015   0.00000   0.00000 ...
   0.00000   0.00000   0.00000   0.00000  -0.05692   0.00000   0.00000   1.21302   0.03015   0.00000   0.00000   0.00000 ...
   0.00000   0.00000   0.00000   0.00000  -0.00152   0.00000   0.00000   0.03015   0.48654   0.00000   0.00000   0.00000 ...
   0.00000   0.00000   0.00000  -0.00152   0.00000   0.00000   0.03015   0.00000   0.00000   0.48654   0.00000   0.00000 ...
  -0.00016  -0.01168   0.00057   0.00000   0.00000   0.04309   0.00000   0.00000   0.00000   0.00000   1.40907   0.00000 ...
   0.00000   0.00000   0.00000   0.00000   0.00000   0.00000   0.00000   0.00000   0.00000   0.00000   0.00000   0.46535 ...
   ...  only 12  components have been written...



---OUTPUT-----------------------------------------------------------------------

 Cartesian coordinates (xcart) [bohr]
  5.31932172653658E+00  5.19468777443134E+00  5.31932172653658E+00
  1.59579651796090E+01  1.56282251411405E+01  1.59579651796090E+01
  1.06386434529784E+01  1.58589414364705E+01  1.06386434529784E+01
  1.06386434529826E+01  1.04240506622163E+01  5.34891908562274E+00
  1.06386434531625E+01  1.04240506622163E+01  1.59283678205224E+01
  1.06386434531628E+01  5.21870860556414E+00  1.06386434531628E+01
  1.59283678205224E+01  1.04240506622163E+01  1.06386434531625E+01
  5.34891908562274E+00  1.04240506622163E+01  1.06386434529826E+01
  2.22544841874708E-12 -1.28399898618084E-01  2.22544841874708E-12
 Reduced coordinates (xred)
  2.48941830170000E-01  2.51058169830000E-01  2.48941830170000E-01
  7.48941830170000E-01  7.51058169830000E-01  7.48941830170000E-01
  7.59998305420000E-01  2.40001694580000E-01  7.59998305420000E-01
  2.50936405180000E-01  2.51845656200000E-01  7.48154343800000E-01
  7.48154343800000E-01  7.49063594820000E-01  2.50936405180000E-01
  2.50092965700000E-01  7.49907034300000E-01  2.50092965700000E-01
  2.50936405180000E-01  7.49063594820000E-01  7.48154343800000E-01
  7.48154343800000E-01  2.51845656200000E-01  2.50936405180000E-01
 -6.15322944200000E-03  6.15322944200000E-03 -6.15322944200000E-03
 Cartesian forces (fcart) [Ha/bohr]; max,rms= 5.25328E-04 2.04400E-04 (free atoms)
 -6.48602318722228E-21  1.54600397402075E-05 -3.80274701516509E-21
 -9.03381552861995E-21  1.54600397402074E-05 -1.25495467376742E-21
 -1.03118411015635E-20 -5.25327831106757E-04  2.30708991761517E-23
 -7.00939721229058E-15  1.58288642350715E-05  4.12362860108749E-04
  7.00939447618740E-15  1.58288642207772E-05 -4.12362860108749E-04
  6.63127062773174E-21  4.12392088044967E-04 -1.69200408301191E-20
 -4.12362860108749E-04  1.58288642207772E-05  7.00938994076558E-15
  4.12362860108749E-04  1.58288642350715E-05 -7.00940097916523E-15
 -4.26569380604798E-21  1.87002066696772E-05 -6.02307639633938E-21
 Reduced forces (fred)
 -1.61302902320264E-04  1.09458557755655E-19 -1.61302902320264E-04
 -1.61302902320264E-04  1.09458557755655E-19 -1.61302902320264E-04
  5.48102755562465E-03  1.09458557755655E-19  5.48102755562465E-03
 -4.55213248838076E-03 -4.38698144198615E-03 -1.65151046394615E-04
  4.22183039559153E-03  4.38698144198615E-03 -1.65151046394616E-04
 -4.30270826035240E-03  1.09458557755655E-19 -4.30270826035240E-03
 -1.65151046394615E-04  4.38698144198615E-03  4.22183039559153E-03
 -1.65151046394615E-04 -4.38698144198615E-03 -4.55213248838076E-03
 -1.95109305053262E-04  1.09458557755655E-19 -1.95109305053262E-04
 Scale of Primitive Cell (acell) [bohr]
  1.49009877693270E+01  1.50453138567690E+01  1.49009877693270E+01
 Real space primitive translations (rprimd) [bohr]
  0.00000000000000E+00  1.04335373667092E+01  1.06386434528916E+01
  1.06386434532532E+01  0.00000000000000E+00  1.06386434532532E+01
  1.06386434528916E+01  1.04335373667092E+01  0.00000000000000E+00
 Unitary Cell Volume (ucvol) [Bohr^3]=  2.36175084564542E+03
 Angles (23,13,12)= [degrees]
  5.96790799608981E+01  6.06418400782038E+01  5.96790799608981E+01
 Lengths [Bohr]
  1.49009877692813E+01  1.50453138568425E+01  1.49009877692813E+01
 Stress tensor in cartesian coordinates (strten) [Ha/bohr^3]
 -8.64117182819944E-05  1.42235176717977E-13 -2.78987205032111E-13
  1.42235176717977E-13 -8.65534319147692E-05  1.42233728242584E-13
 -2.78987205032111E-13  1.42233728242584E-13 -8.64117182819944E-05
 Total energy (etotal) [Ha]= -1.63290896323167E+02

--- Iteration: (   2/1000) Internal Cycle: (1/1)
--------------------------------------------------------------------------------

---SELF-CONSISTENT-FIELD CONVERGENCE--------------------------------------------

--- !BeginCycle
iteration_state: {dtset: 1, itime: 2, icycle: 1, }
solver: {iscf: 17, nstep: 2500, nline: 4, wfoptalg: 10, }
tolerances: {toldff: 1.00E-08, }
...

     iter   Etot(hartree)      deltaE(h)  residm     nres2    diffor    maxfor
 ETOT  1  -163.29089908197    -1.633E+02 3.209E-06 2.480E-04 1.681E-03 2.207E-03
 ETOT  2  -163.29089751505     1.567E-06 1.359E-06 3.046E-05 1.766E-03 4.400E-04
 ETOT  3  -163.29089738337     1.317E-07 1.077E-06 2.311E-06 2.025E-04 6.425E-04
 ETOT  4  -163.29089737275     1.061E-08 7.555E-07 4.122E-07 1.615E-04 4.811E-04
 ETOT  5  -163.29089737518    -2.428E-09 7.600E-07 1.733E-07 6.197E-06 4.783E-04
 ETOT  6  -163.29089737697    -1.788E-09 7.032E-07 1.568E-08 1.189E-05 4.664E-04
 ETOT  7  -163.29089737731    -3.452E-10 7.674E-07 7.452E-09 1.838E-06 4.654E-04
 ETOT  8  -163.29089737787    -5.526E-10 7.049E-07 8.089E-10 2.224E-06 4.632E-04
 ETOT  9  -163.29089737785     1.356E-11 7.686E-07 5.482E-10 1.595E-07 4.632E-04
 ETOT 10  -163.29089737779     6.276E-11 7.024E-07 1.004E-10 4.479E-07 4.627E-04
 ETOT 11  -163.29089737777     1.836E-11 7.680E-07 7.283E-11 5.196E-08 4.628E-04
 ETOT 12  -163.29089737774     3.163E-11 7.001E-07 3.914E-12 1.179E-07 4.629E-04
 ETOT 13  -163.29089737773     1.219E-11 7.664E-07 5.666E-12 4.445E-08 4.629E-04
 ETOT 14  -163.29089737772     6.651E-12 6.968E-07 1.869E-12 1.947E-08 4.629E-04
 ETOT 15  -163.29089737772    -4.547E-13 7.640E-07 2.878E-14 1.690E-08 4.629E-04
 ETOT 16  -163.29089737772    -2.075E-12 6.933E-07 5.732E-14 3.458E-09 4.629E-04
 ETOT 17  -163.29089737772     3.098E-12 7.611E-07 1.307E-14 1.213E-09 4.629E-04

 At SCF step   17, forces are converged : 
  for the second time, max diff in force=  1.213E-09 < toldff=  1.000E-08

 Cartesian components of stress tensor (hartree/bohr^3)
  sigma(1 1)= -8.62636417E-05  sigma(3 2)=  1.42237686E-13
  sigma(2 2)= -8.63714751E-05  sigma(3 1)= -2.78992675E-13
  sigma(3 3)= -8.62636417E-05  sigma(2 1)=  1.42237551E-13


--- !ResultsGS
iteration_state: {dtset: 1, itime: 2, icycle: 1, }
comment   : Summary of ground state results
lattice_vectors:
- [  0.0000000,  10.4335669,  10.6386284, ]
- [ 10.6386284,   0.0000000,  10.6386284, ]
- [ 10.6386284,  10.4335669,   0.0000000, ]
lattice_lengths: [  14.90100,   15.04529,   14.90100, ]
lattice_angles: [ 59.679,  60.642,  59.679, ] # degrees, (23, 13, 12)
lattice_volume:   2.3617508E+03
convergence: {deltae:  3.098E-12, res2:  1.307E-14, residm:  7.611E-07, diffor:  1.213E-09, }
etotal    :  -1.63290897E+02
entropy   :   0.00000000E+00
fermie    :  -1.08729262E-01
cartesian_stress_tensor: # hartree/bohr^3
- [ -8.62636417E-05,   1.42237551E-13,  -2.78992675E-13, ]
- [  1.42237551E-13,  -8.63714751E-05,   1.42237686E-13, ]
- [ -2.78992675E-13,   1.42237686E-13,  -8.62636417E-05, ]
pressure_GPa:   2.5390E+00
xred      :
- [  2.4894E-01,   2.5106E-01,   2.4894E-01, Cs]
- [  7.4894E-01,   7.5106E-01,   7.4894E-01, Cs]
- [  7.5997E-01,   2.4003E-01,   7.5997E-01, Br]
- [  2.5096E-01,   2.5186E-01,   7.4814E-01,  I]
- [  7.4814E-01,   7.4904E-01,   2.5096E-01,  I]
- [  2.5011E-01,   7.4989E-01,   2.5011E-01,  I]
- [  2.5096E-01,   7.4904E-01,   7.4814E-01,  I]
- [  7.4814E-01,   2.5186E-01,   2.5096E-01,  I]
- [ -6.1523E-03,   6.1523E-03,  -6.1523E-03, Hf]
cartesian_forces: # hartree/bohr
- [ -1.11995170E-21,   1.53109565E-05,  -6.83251481E-21, ]
- [  1.53946272E-22,   1.53109565E-05,  -8.10641279E-21, ]
- [  9.88155459E-21,  -4.62867815E-04,  -1.78340211E-20, ]
- [ -6.21088459E-15,   1.58314714E-05,   3.65385580E-04, ]
- [  6.21088746E-15,   1.58314714E-05,  -3.65385580E-04, ]
- [  3.50625106E-21,   3.62221062E-04,  -1.14587176E-20, ]
- [ -3.65385580E-04,   1.58314714E-05,   6.21091534E-15, ]
- [  3.65385580E-04,   1.58314714E-05,  -6.21085611E-15, ]
- [  1.50679879E-22,   6.69895435E-06,  -8.10314639E-21, ]
force_length_stats: {min:   6.69895435E-06, max:   4.62867815E-04, mean:   2.58369258E-04, }
...

 Integrated electronic density in atomic spheres:
 ------------------------------------------------
 Atom  Sphere_radius  Integrated_density
    1        2.20660          5.36846576
    2        2.20660          5.36846576
    3        2.20000          4.93519389
    4        2.30022          4.02891070
    5        2.30022          4.02891070
    6        2.30022          4.02858679
    7        2.30022          4.02891070
    8        2.30022          4.02891070
    9        2.41000          9.30805165

 PAW TEST:
 ==== Compensation charge inside spheres ============
 The following values must be close to each other ...
 Compensation charge over spherical meshes =     -0.544887281942692
 Compensation charge over fine fft grid    =     -0.544885398132689

 ==== Results concerning PAW augmentation regions ====

 Total pseudopotential strength Dij (hartree):
 Atom #  1
   0.44490  -0.14729   0.00000   0.00000   0.00000  -0.00000   0.00000   0.00000   0.00000   0.00000   0.00000  -0.00000 ...
  -0.14729   0.04442  -0.00000   0.00000   0.00000   0.00000   0.00000   0.00000   0.00000   0.00000  -0.00000   0.00000 ...
   0.00000  -0.00000  -0.09413   0.00000   0.00000  -0.16624   0.00000   0.00000   0.00000   0.00000  -0.00000  -0.00000 ...
   0.00000   0.00000   0.00000  -0.09413  -0.00000   0.00000  -0.16625   0.00000  -0.00000   0.00000   0.00000   0.00000 ...
   0.00000   0.00000   0.00000  -0.00000  -0.09413   0.00000   0.00000  -0.16625   0.00000  -0.00000   0.00000   0.00000 ...
  -0.00000   0.00000  -0.16624   0.00000   0.00000   0.40545   0.00000   0.00000   0.00000   0.00000   0.00000   0.00000 ...
   0.00000   0.00000   0.00000  -0.16625   0.00000   0.00000   0.40545  -0.00001   0.00000  -0.00000   0.00000   0.00000 ...
   0.00000   0.00000   0.00000   0.00000  -0.16625   0.00000  -0.00001   0.40545  -0.00000   0.00000   0.00000   0.00000 ...
   0.00000   0.00000   0.00000  -0.00000   0.00000   0.00000   0.00000  -0.00000   0.00515  -0.00000   0.00000   0.00000 ...
   0.00000   0.00000   0.00000   0.00000  -0.00000   0.00000  -0.00000   0.00000  -0.00000   0.00515   0.00000   0.00000 ...
   0.00000  -0.00000  -0.00000   0.00000   0.00000   0.00000   0.00000   0.00000   0.00000   0.00000   0.00515  -0.00000 ...
  -0.00000   0.00000  -0.00000   0.00000   0.00000   0.00000   0.00000   0.00000   0.00000   0.00000  -0.00000   0.00515 ...
   ...  only 12  components have been written...
 Atom #  9
  -3.52667   0.43118  -0.00013   0.00000   0.00000   0.00003   0.00000   0.00000   0.00000   0.00000  -0.00004   0.00000 ...
   0.43118   0.00230   0.00003   0.00000   0.00000  -0.00001   0.00000   0.00000   0.00000   0.00000   0.00001   0.00000 ...
  -0.00013   0.00003  -1.46936   0.00000   0.00000   0.12607   0.00000   0.00000   0.00000   0.00000   0.00002   0.00000 ...
   0.00000   0.00000   0.00000  -1.46965   0.00000   0.00000   0.12612   0.00000   0.00000  -0.00004   0.00000   0.00000 ...
   0.00000   0.00000   0.00000   0.00000  -1.46965   0.00000   0.00000   0.12612  -0.00004   0.00000   0.00000   0.00000 ...
   0.00003  -0.00001   0.12607   0.00000   0.00000   0.01296   0.00000   0.00000   0.00000   0.00000  -0.00000   0.00000 ...
   0.00000   0.00000   0.00000   0.12612   0.00000   0.00000   0.01295   0.00000   0.00000   0.00001   0.00000   0.00000 ...
   0.00000   0.00000   0.00000   0.00000   0.12612   0.00000   0.00000   0.01295   0.00001   0.00000   0.00000   0.00000 ...
   0.00000   0.00000   0.00000   0.00000  -0.00004   0.00000   0.00000   0.00001  -0.39658   0.00000   0.00000   0.00000 ...
   0.00000   0.00000   0.00000  -0.00004   0.00000   0.00000   0.00001   0.00000   0.00000  -0.39658   0.00000   0.00000 ...
  -0.00004   0.00001   0.00002   0.00000   0.00000  -0.00000   0.00000   0.00000   0.00000   0.00000  -0.39594   0.00000 ...
   0.00000   0.00000   0.00000   0.00000   0.00000   0.00000   0.00000   0.00000   0.00000   0.00000   0.00000  -0.39663 ...
   ...  only 12  components have been written...


 Augmentation waves occupancies Rhoij:
 Atom #  1
   1.99767  -0.01472   0.00001   0.00000   0.00000   0.00000   0.00000   0.00000   0.00000   0.00000   0.00037  -0.00217 ...
  -0.01472   0.18162   0.00018   0.00000   0.00000  -0.00001   0.00000   0.00000   0.00000   0.00000  -0.00539   0.01256 ...
   0.00001   0.00018   2.00746   0.00000   0.00000  -0.00511   0.00000   0.00000   0.00000   0.00000  -0.00011  -0.00132 ...
   0.00000   0.00000   0.00000   2.00674   0.00120   0.00000  -0.00496  -0.00021  -0.00142  -0.00005   0.00000   0.00000 ...
   0.00000   0.00000   0.00000   0.00120   2.00674   0.00000  -0.00021  -0.00496  -0.00005  -0.00142   0.00000   0.00000 ...
   0.00000  -0.00001  -0.00511   0.00000   0.00000   0.00014   0.00000   0.00000   0.00000   0.00000   0.00001   0.00005 ...
   0.00000   0.00000   0.00000  -0.00496  -0.00021   0.00000   0.00013   0.00001   0.00005   0.00000   0.00000   0.00000 ...
   0.00000   0.00000   0.00000  -0.00021  -0.00496   0.00000   0.00001   0.00013   0.00000   0.00005   0.00000   0.00000 ...
   0.00000   0.00000   0.00000  -0.00142  -0.00005   0.00000   0.00005   0.00000   0.07042   0.00015   0.00000   0.00000 ...
   0.00000   0.00000   0.00000  -0.00005  -0.00142   0.00000   0.00000   0.00005   0.00015   0.07042   0.00000   0.00000 ...
   0.00037  -0.00539  -0.00011   0.00000   0.00000   0.00001   0.00000   0.00000   0.00000   0.00000   0.04538   0.00546 ...
  -0.00217   0.01256  -0.00132   0.00000   0.00000   0.00005   0.00000   0.00000   0.00000   0.00000   0.00546   0.05005 ...
   ...  only 12  components have been written...
 Atom #  9
   1.99800  -0.01979  -0.00008   0.00000   0.00000  -0.00032   0.00000   0.00000   0.00000   0.00000  -0.00016   0.00000 ...
  -0.01979   1.01391   0.00065   0.00000   0.00000  -0.01902   0.00000   0.00000   0.00000   0.00000  -0.01165   0.00000 ...
  -0.00008   0.00065   1.99294   0.00000   0.00000  -0.05959   0.00000   0.00000   0.00000   0.00000   0.00056   0.00000 ...
   0.00000   0.00000   0.00000   1.99311   0.00000   0.00000  -0.05697   0.00000   0.00000  -0.00152   0.00000   0.00000 ...
   0.00000   0.00000   0.00000   0.00000   1.99311   0.00000   0.00000  -0.05697  -0.00152   0.00000   0.00000   0.00000 ...
  -0.00032  -0.01902  -0.05959   0.00000   0.00000   1.31290   0.00000   0.00000   0.00000   0.00000   0.04301   0.00000 ...
   0.00000   0.00000   0.00000  -0.05697   0.00000   0.00000   1.21259   0.00000   0.00000   0.03015   0.00000   0.00000 ...
   0.00000   0.00000   0.00000   0.00000  -0.05697   0.00000   0.00000   1.21259   0.03015   0.00000   0.00000   0.00000 ...
   0.00000   0.00000   0.00000   0.00000  -0.00152   0.00000   0.00000   0.03015   0.48631   0.00000   0.00000   0.00000 ...
   0.00000   0.00000   0.00000  -0.00152   0.00000   0.00000   0.03015   0.00000   0.00000   0.48631   0.00000   0.00000 ...
  -0.00016  -0.01165   0.00056   0.00000   0.00000   0.04301   0.00000   0.00000   0.00000   0.00000   1.40849   0.00000 ...
   0.00000   0.00000   0.00000   0.00000   0.00000   0.00000   0.00000   0.00000   0.00000   0.00000   0.00000   0.46517 ...
   ...  only 12  components have been written...



---OUTPUT-----------------------------------------------------------------------

 Cartesian coordinates (xcart) [bohr]
  5.31931418834321E+00  5.19471795768684E+00  5.31931418834321E+00
  1.59579425650289E+01  1.56282848959067E+01  1.59579425650289E+01
  1.06386283765916E+01  1.58584610557464E+01  1.06386283765916E+01
  1.06386283765959E+01  1.04240960357481E+01  5.34932386776167E+00
  1.06386283767757E+01  1.04240960357481E+01  1.59279328856100E+01
  1.06386283767760E+01  5.21913579007460E+00  1.06386283767760E+01
  1.59279328856100E+01  1.04240960357481E+01  1.06386283767757E+01
  5.34932386776167E+00  1.04240960357481E+01  1.06386283765959E+01
  2.22545659523701E-12 -1.28381562278993E-01  2.22545659523701E-12
 Reduced coordinates (xred)
  2.48942571051984E-01  2.51057428948015E-01  2.48942571051984E-01
  7.48942571051984E-01  7.51057428948015E-01  7.48942571051984E-01
  7.59973130457154E-01  2.40026869542844E-01  7.59973130457154E-01
  2.50956544161795E-01  2.51864278067925E-01  7.48135721932073E-01
  7.48135721932073E-01  7.49043455838207E-01  2.50956544161794E-01
  2.50112728512628E-01  7.49887271487373E-01  2.50112728512628E-01
  2.50956544161794E-01  7.49043455838207E-01  7.48135721932073E-01
  7.48135721932073E-01  2.51864278067925E-01  2.50956544161795E-01
 -6.15233328348672E-03  6.15233328348674E-03 -6.15233328348672E-03
 Cartesian forces (fcart) [Ha/bohr]; max,rms= 4.62868E-04 1.80636E-04 (free atoms)
 -1.11995170443034E-21  1.53109565167895E-05 -6.83251481062998E-21
  1.53946271553042E-22  1.53109565167895E-05 -8.10641278661336E-21
  9.88155458514499E-21 -4.62867814811056E-04 -1.78340211002053E-20
 -6.21088459018019E-15  1.58314714466848E-05  3.65385580271032E-04
  6.21088746262201E-15  1.58314714340189E-05 -3.65385580271032E-04
  3.50625106197265E-21  3.62221061663091E-04 -1.14587175770330E-20
 -3.65385580271032E-04  1.58314714340189E-05  6.21091533785150E-15
  3.65385580271032E-04  1.58314714466847E-05 -6.21085610782987E-15
  1.50679878893881E-22  6.69895435297880E-06 -8.10314639395420E-21
 Reduced forces (fred)
 -1.59747889706096E-04  8.46033359332013E-20 -1.59747889706096E-04
 -1.59747889706096E-04  8.46033359332013E-20 -1.59747889706096E-04
  4.82936232937868E-03  8.46033359332013E-20  4.82936232937868E-03
 -4.05238011970658E-03 -3.88720140270315E-03 -1.65178717003426E-04
  3.72202268569972E-03  3.88720140270315E-03 -1.65178717003426E-04
 -3.77925769329490E-03  8.46033359332013E-20 -3.77925769329490E-03
 -1.65178717003426E-04  3.88720140270315E-03  3.72202268569973E-03
 -1.65178717003426E-04 -3.88720140270315E-03 -4.05238011970658E-03
 -6.98939886578832E-05  8.46033359332013E-20 -6.98939886578833E-05
 Scale of Primitive Cell (acell) [bohr]
  1.49009977111496E+01  1.50452925356119E+01  1.49009977111496E+01
 Real space primitive translations (rprimd) [bohr]
  0.00000000000000E+00  1.04335669382198E+01  1.06386283765048E+01
  1.06386283768665E+01  0.00000000000000E+00  1.06386283768665E+01
  1.06386283765048E+01  1.04335669382198E+01  0.00000000000000E+00
 Unitary Cell Volume (ucvol) [Bohr^3]=  2.36175084564542E+03
 Angles (23,13,12)= [degrees]
  5.96791498046677E+01  6.06417003906645E+01  5.96791498046677E+01
 Lengths [Bohr]
  1.49009977111496E+01  1.50452925356119E+01  1.49009977111496E+01
 Stress tensor in cartesian coordinates (strten) [Ha/bohr^3]
 -8.62636416702599E-05  1.42237551369806E-13 -2.78992675059548E-13
  1.42237551369806E-13 -8.63714751421114E-05  1.42237686207055E-13
 -2.78992675059548E-13  1.42237686207055E-13 -8.62636416702599E-05
 Total energy (etotal) [Ha]= -1.63290897377720E+02

 Difference of energy with previous step (new-old):
           Absolute (Ha)=-1.05455E-06
           Relative     =-6.45812E-09

--- Iteration: (   3/1000) Internal Cycle: (1/1)
--------------------------------------------------------------------------------

---SELF-CONSISTENT-FIELD CONVERGENCE--------------------------------------------

--- !BeginCycle
iteration_state: {dtset: 1, itime: 3, icycle: 1, }
solver: {iscf: 17, nstep: 2500, nline: 4, wfoptalg: 10, }
tolerances: {toldff: 1.00E-08, }
...

     iter   Etot(hartree)      deltaE(h)  residm     nres2    diffor    maxfor
 ETOT  1  -163.29099526579    -1.633E+02 3.191E-05 1.428E-02 1.274E-02 1.320E-02
 ETOT  2  -163.29090903896     8.623E-05 1.853E-06 1.736E-03 1.339E-02 1.892E-04
 ETOT  3  -163.29090131197     7.727E-06 1.594E-06 1.323E-04 1.540E-03 1.351E-03
 ETOT  4  -163.29090097643     3.355E-07 6.750E-07 2.358E-05 1.218E-03 1.332E-04
 ETOT  5  -163.29090106402    -8.759E-08 9.309E-07 9.856E-06 4.448E-05 1.117E-04
 ETOT  6  -163.29090109521    -3.118E-08 4.798E-07 8.962E-07 8.700E-05 8.185E-05
 ETOT  7  -163.29090110167    -6.462E-09 9.334E-07 4.167E-07 1.445E-05 7.644E-05
 ETOT  8  -163.29090110918    -7.514E-09 4.824E-07 4.468E-08 1.693E-05 7.145E-05
 ETOT  9  -163.29090110909     9.237E-11 9.258E-07 2.979E-08 1.212E-06 7.162E-05
 ETOT 10  -163.29090110864     4.447E-10 4.765E-07 5.717E-09 3.373E-06 7.455E-05
 ETOT 11  -163.29090110854     1.044E-10 9.161E-07 4.183E-09 3.930E-07 7.449E-05
 ETOT 12  -163.29090110827     2.676E-10 4.714E-07 2.167E-10 9.068E-07 7.359E-05
 ETOT 13  -163.29090110816     1.108E-10 9.073E-07 3.280E-10 3.371E-07 7.325E-05
 ETOT 14  -163.29090110811     4.840E-11 4.657E-07 1.081E-10 1.517E-07 7.334E-05
 ETOT 15  -163.29090110810     1.197E-11 8.981E-07 1.710E-12 1.307E-07 7.347E-05
 ETOT 16  -163.29090110810     2.643E-12 4.599E-07 3.469E-12 2.597E-08 7.350E-05
 ETOT 17  -163.29090110810    -3.666E-12 8.888E-07 8.349E-13 9.024E-09 7.349E-05
 ETOT 18  -163.29090110809     1.066E-11 4.540E-07 2.766E-13 1.671E-08 7.347E-05
 ETOT 19  -163.29090110809     1.023E-12 8.793E-07 3.211E-13 4.928E-09 7.347E-05
 ETOT 20  -163.29090110809     2.984E-12 4.480E-07 5.988E-14 9.470E-09 7.348E-05

 At SCF step   20, forces are converged : 
  for the second time, max diff in force=  9.470E-09 < toldff=  1.000E-08

 Cartesian components of stress tensor (hartree/bohr^3)
  sigma(1 1)= -8.51384833E-05  sigma(3 2)=  1.42255727E-13
  sigma(2 2)= -8.50070403E-05  sigma(3 1)= -2.79034272E-13
  sigma(3 3)= -8.51384833E-05  sigma(2 1)=  1.42254259E-13


--- !ResultsGS
iteration_state: {dtset: 1, itime: 3, icycle: 1, }
comment   : Summary of ground state results
lattice_vectors:
- [  0.0000000,  10.4337605,  10.6385297, ]
- [ 10.6385297,   0.0000000,  10.6385297, ]
- [ 10.6385297,  10.4337605,   0.0000000, ]
lattice_lengths: [  14.90106,   15.04515,   14.90106, ]
lattice_angles: [ 59.680,  60.641,  59.680, ] # degrees, (23, 13, 12)
lattice_volume:   2.3617508E+03
convergence: {deltae:  2.984E-12, res2:  5.988E-14, residm:  4.480E-07, diffor:  9.470E-09, }
etotal    :  -1.63290901E+02
entropy   :   0.00000000E+00
fermie    :  -1.08714254E-01
cartesian_stress_tensor: # hartree/bohr^3
- [ -8.51384833E-05,   1.42254259E-13,  -2.79034272E-13, ]
- [  1.42254259E-13,  -8.50070403E-05,   1.42255727E-13, ]
- [ -2.79034272E-13,   1.42255727E-13,  -8.51384833E-05, ]
pressure_GPa:   2.5036E+00
xred      :
- [  2.4895E-01,   2.5105E-01,   2.4895E-01, Cs]
- [  7.4895E-01,   7.5105E-01,   7.4895E-01, Cs]
- [  7.5978E-01,   2.4022E-01,   7.5978E-01, Br]
- [  2.5111E-01,   2.5201E-01,   7.4799E-01,  I]
- [  7.4799E-01,   7.4889E-01,   2.5111E-01,  I]
- [  2.5026E-01,   7.4974E-01,   2.5026E-01,  I]
- [  2.5111E-01,   7.4889E-01,   7.4799E-01,  I]
- [  7.4799E-01,   2.5201E-01,   2.5111E-01,  I]
- [ -6.1496E-03,   6.1496E-03,  -6.1496E-03, Hf]
cartesian_forces: # hartree/bohr
- [ -2.24059349E-22,   1.41593093E-05,   4.07042418E-23, ]
- [ -2.24059349E-22,   1.41593093E-05,   4.07042418E-23, ]
- [  5.84729783E-22,   3.23179724E-06,  -7.68084891E-22, ]
- [ -1.22362340E-16,   1.52932754E-05,   7.19840205E-06, ]
- [  1.22361572E-16,   1.52932754E-05,  -7.19840205E-06, ]
- [  2.77035737E-21,  -1.92401854E-05,  -2.95371248E-21, ]
- [ -7.19840205E-06,   1.52932754E-05,   1.22362768E-16, ]
- [  7.19840205E-06,   1.52932754E-05,  -1.22359616E-16, ]
- [  7.00871462E-22,  -7.34833320E-05,  -8.84226570E-22, ]
force_length_stats: {min:   3.23179724E-06, max:   7.34833320E-05, mean:   2.13205259E-05, }
...

 Integrated electronic density in atomic spheres:
 ------------------------------------------------
 Atom  Sphere_radius  Integrated_density
    1        2.20660          5.36846997
    2        2.20660          5.36846997
    3        2.20000          4.93638559
    4        2.30022          4.02767272
    5        2.30022          4.02767272
    6        2.30022          4.02883387
    7        2.30022          4.02767272
    8        2.30022          4.02767272
    9        2.41000          9.30571709

 PAW TEST:
 ==== Compensation charge inside spheres ============
 The following values must be close to each other ...
 Compensation charge over spherical meshes =     -0.545126455663486
 Compensation charge over fine fft grid    =     -0.545124442604960

 ==== Results concerning PAW augmentation regions ====

 Total pseudopotential strength Dij (hartree):
 Atom #  1
   0.44489  -0.14729   0.00000   0.00000   0.00000  -0.00000   0.00000   0.00000   0.00000   0.00000   0.00000  -0.00000 ...
  -0.14729   0.04442  -0.00000   0.00000   0.00000   0.00000   0.00000   0.00000   0.00000   0.00000  -0.00000   0.00000 ...
   0.00000  -0.00000  -0.09413   0.00000   0.00000  -0.16625   0.00000   0.00000   0.00000   0.00000  -0.00000  -0.00000 ...
   0.00000   0.00000   0.00000  -0.09413  -0.00000   0.00000  -0.16625   0.00000  -0.00000   0.00000   0.00000   0.00000 ...
   0.00000   0.00000   0.00000  -0.00000  -0.09413   0.00000   0.00000  -0.16625   0.00000  -0.00000   0.00000   0.00000 ...
  -0.00000   0.00000  -0.16625   0.00000   0.00000   0.40544   0.00000   0.00000   0.00000   0.00000   0.00000   0.00000 ...
   0.00000   0.00000   0.00000  -0.16625   0.00000   0.00000   0.40545  -0.00001   0.00000  -0.00000   0.00000   0.00000 ...
   0.00000   0.00000   0.00000   0.00000  -0.16625   0.00000  -0.00001   0.40545  -0.00000   0.00000   0.00000   0.00000 ...
   0.00000   0.00000   0.00000  -0.00000   0.00000   0.00000   0.00000  -0.00000   0.00515  -0.00000   0.00000   0.00000 ...
   0.00000   0.00000   0.00000   0.00000  -0.00000   0.00000  -0.00000   0.00000  -0.00000   0.00515   0.00000   0.00000 ...
   0.00000  -0.00000  -0.00000   0.00000   0.00000   0.00000   0.00000   0.00000   0.00000   0.00000   0.00515  -0.00000 ...
  -0.00000   0.00000  -0.00000   0.00000   0.00000   0.00000   0.00000   0.00000   0.00000   0.00000  -0.00000   0.00515 ...
   ...  only 12  components have been written...
 Atom #  9
  -3.52680   0.43123  -0.00014   0.00000   0.00000   0.00003   0.00000   0.00000   0.00000   0.00000  -0.00004   0.00000 ...
   0.43123   0.00229   0.00003   0.00000   0.00000  -0.00001   0.00000   0.00000   0.00000   0.00000   0.00001   0.00000 ...
  -0.00014   0.00003  -1.46956   0.00000   0.00000   0.12611   0.00000   0.00000   0.00000   0.00000   0.00002   0.00000 ...
   0.00000   0.00000   0.00000  -1.46984   0.00000   0.00000   0.12616   0.00000   0.00000  -0.00004   0.00000   0.00000 ...
   0.00000   0.00000   0.00000   0.00000  -1.46984   0.00000   0.00000   0.12616  -0.00004   0.00000   0.00000   0.00000 ...
   0.00003  -0.00001   0.12611   0.00000   0.00000   0.01295   0.00000   0.00000   0.00000   0.00000  -0.00000   0.00000 ...
   0.00000   0.00000   0.00000   0.12616   0.00000   0.00000   0.01294   0.00000   0.00000   0.00001   0.00000   0.00000 ...
   0.00000   0.00000   0.00000   0.00000   0.12616   0.00000   0.00000   0.01294   0.00001   0.00000   0.00000   0.00000 ...
[...]
                       8.3478905753E+00  5.4714137997E+00  5.5862834120E+00
                       2.8246762487E+00  5.4714137997E+00  5.5862834119E+00
                       1.2538365580E-12 -7.2357767980E-02  1.2544616053E-12
           xangst10    2.7905175278E+00  2.7251828026E+00  2.7905175278E+00
                       8.3715525835E+00  8.1926614462E+00  8.3715525835E+00
                       5.5810350556E+00  8.2818137496E+00  5.5810350556E+00
                       5.5810350556E+00  5.4654951224E+00  2.8236727956E+00
                       5.5810350557E+00  5.4654951224E+00  8.3383973157E+00
                       5.5810350557E+00  2.7508017039E+00  5.5810350557E+00
                       8.3383973157E+00  5.4654951224E+00  5.5810350557E+00
                       2.8236727956E+00  5.4654951224E+00  5.5810350556E+00
                       1.2581268948E-12 -7.2576051278E-02  1.2587465141E-12
            xcart1     5.3193978887E+00  5.1956672747E+00  5.3193978887E+00
                       1.5958193666E+01  1.5628905873E+01  1.5958193666E+01
                       1.0638795777E+01  1.5852642209E+01  1.0638795777E+01
                       1.0638795777E+01  1.0424354604E+01  5.3524619130E+00
                       1.0638795778E+01  1.0424354604E+01  1.5925129642E+01
                       1.0638795778E+01  5.2212540792E+00  1.0638795778E+01
                       1.5925129642E+01  1.0424354604E+01  1.0638795778E+01
                       5.3524619130E+00  1.0424354604E+01  1.0638795777E+01
                       2.2491790776E-12 -1.2991229549E-01  2.2479887064E-12
            xcart2     5.3140860036E+00  5.1909684350E+00  5.3140860036E+00
                       1.5942258011E+01  1.5613712993E+01  1.5942258011E+01
                       1.0628172007E+01  1.5831646576E+01  1.0628172007E+01
                       1.0628172007E+01  1.0414409534E+01  5.3507196167E+00
                       1.0628172007E+01  1.0414409534E+01  1.5905624397E+01
                       1.0628172007E+01  5.2187655394E+00  1.0628172007E+01
                       1.5905624397E+01  1.0414409534E+01  1.0628172007E+01
                       5.3507196167E+00  1.0414409534E+01  1.0628172007E+01
                       2.2634464939E-12 -1.3070850892E-01  2.2634464939E-12
            xcart3     5.3090302804E+00  5.1869548495E+00  5.3090302804E+00
                       1.5927090841E+01  1.5598200605E+01  1.5927090841E+01
                       1.0618060561E+01  1.5807827782E+01  1.0618060561E+01
                       1.0618060561E+01  1.0403420306E+01  5.3488787528E+00
                       1.0618060561E+01  1.0403420306E+01  1.5887242369E+01
                       1.0618060561E+01  5.2157847732E+00  1.0618060561E+01
                       1.5887242369E+01  1.0403420306E+01  1.0618060561E+01
                       5.3488787528E+00  1.0403420306E+01  1.0618060561E+01
                       2.2917560824E-12 -1.3241655812E-01  2.2929349240E-12
            xcart4     5.3042479584E+00  5.1807517825E+00  5.3042479584E+00
                       1.5912743875E+01  1.5579426839E+01  1.5912743875E+01
                       1.0608495917E+01  1.5783275736E+01  1.0608495917E+01
                       1.0608495917E+01  1.0391333598E+01  5.3471897649E+00
                       1.0608495917E+01  1.0391333598E+01  1.5869802069E+01
                       1.0608495917E+01  5.2133513274E+00  1.0608495917E+01
                       1.5869802069E+01  1.0391333598E+01  1.0608495917E+01
                       5.3471897649E+00  1.0391333598E+01  1.0608495917E+01
                       2.2990556813E-12 -1.3267307425E-01  2.2990762147E-12
            xcart5     5.2990831561E+00  5.1755498579E+00  5.2990831561E+00
                       1.5897249468E+01  1.5563154232E+01  1.5897249468E+01
                       1.0598166312E+01  1.5761255356E+01  1.0598166312E+01
                       1.0598166312E+01  1.0380817615E+01  5.3453841699E+00
                       1.0598166312E+01  1.0380817615E+01  1.5850948455E+01
                       1.0598166312E+01  5.2109505354E+00  1.0598166312E+01
                       1.5850948455E+01  1.0380817615E+01  1.0598166312E+01
                       5.3453841699E+00  1.0380817615E+01  1.0598166312E+01
                       2.3104185057E-12 -1.3327896671E-01  2.3113101727E-12
            xcart6     5.2938115755E+00  5.1698836853E+00  5.2938115755E+00
                       1.5881434726E+01  1.5546836037E+01  1.5881434726E+01
                       1.0587623151E+01  1.5740474707E+01  1.0587623151E+01
                       1.0587623151E+01  1.0370805855E+01  5.3435145686E+00
                       1.0587623151E+01  1.0370805855E+01  1.5831731733E+01
                       1.0587623151E+01  5.2088173369E+00  1.0587623151E+01
                       1.5831731733E+01  1.0370805855E+01  1.0587623151E+01
                       5.3435145686E+00  1.0370805855E+01  1.0587623151E+01
                       2.3164611082E-12 -1.3354995994E-01  2.3163945777E-12
            xcart7     5.2885986765E+00  5.1655199310E+00  5.2885986765E+00
                       1.5865796030E+01  1.5531590221E+01  1.5865796030E+01
                       1.0577197353E+01  1.5718420401E+01  1.0577197353E+01
                       1.0577197353E+01  1.0360477345E+01  5.3416501543E+00
                       1.0577197353E+01  1.0360477345E+01  1.5812744552E+01
                       1.0577197353E+01  5.2059575230E+00  1.0577197353E+01
                       1.5812744552E+01  1.0360477345E+01  1.0577197353E+01
                       5.3416501543E+00  1.0360477345E+01  1.0577197353E+01
                       2.3371037017E-12 -1.3476879141E-01  2.3370877261E-12
            xcart8     5.2834484950E+00  5.1598481169E+00  5.2834484950E+00
                       1.5850345485E+01  1.5514790532E+01  1.5850345485E+01
                       1.0566896990E+01  1.5696545990E+01  1.0566896990E+01
                       1.0566896990E+01  1.0350001374E+01  5.3397709809E+00
                       1.0566896990E+01  1.0350001374E+01  1.5794022999E+01
                       1.0566896990E+01  5.2037049051E+00  1.0566896990E+01
                       1.5794022999E+01  1.0350001374E+01  1.0566896990E+01
                       5.3397709809E+00  1.0350001374E+01  1.0566896990E+01
                       2.3458718806E-12 -1.3528944800E-01  2.3467425862E-12
            xcart9     5.2782728747E+00  5.1559478582E+00  5.2782728747E+00
                       1.5834818624E+01  1.5499862172E+01  1.5834818624E+01
                       1.0556545749E+01  1.5673778946E+01  1.0556545749E+01
                       1.0556545749E+01  1.0339473641E+01  5.3378645241E+00
                       1.0556545749E+01  1.0339473641E+01  1.5775226975E+01
                       1.0556545749E+01  5.2006335373E+00  1.0556545749E+01
                       1.5775226975E+01  1.0339473641E+01  1.0556545749E+01
                       5.3378645241E+00  1.0339473641E+01  1.0556545749E+01
                       2.3694077100E-12 -1.3673636507E-01  2.3705888783E-12
            xcart10    5.2733138966E+00  5.1498491590E+00  5.2733138966E+00
                       1.5819941690E+01  1.5481886433E+01  1.5819941690E+01
                       1.0546627793E+01  1.5650359870E+01  1.0546627793E+01
                       1.0546627793E+01  1.0328288962E+01  5.3359682725E+00
                       1.0546627793E+01  1.0328288962E+01  1.5757287314E+01
                       1.0546627793E+01  5.1982618662E+00  1.0546627793E+01
                       1.5757287314E+01  1.0328288962E+01  1.0546627793E+01
                       5.3359682725E+00  1.0328288962E+01  1.0546627793E+01
                       2.3775152715E-12 -1.3714886072E-01  2.3786861824E-12
             xred1     2.4899590027E-01  2.5100409973E-01  2.4899590027E-01
                       7.4899590027E-01  7.5100409973E-01  7.4899590027E-01
                       7.5971818627E-01  2.4028181373E-01  7.5971818627E-01
                       2.5112818203E-01  2.5197969079E-01  7.4802030921E-01
                       7.4802030921E-01  7.4887181797E-01  2.5112818203E-01
                       2.5022211609E-01  7.4977788391E-01  2.5022211609E-01
                       2.5112818203E-01  7.4887181797E-01  7.4802030921E-01
                       7.4802030921E-01  2.5197969079E-01  2.5112818203E-01
                      -6.2258853891E-03  6.2258853891E-03 -6.2258853891E-03
             xred2     2.4902118660E-01  2.5097881340E-01  2.4902118660E-01
                       7.4902118660E-01  7.5097881340E-01  7.4902118660E-01
                       7.5947589849E-01  2.4052410151E-01  7.5947589849E-01
                       2.5132357236E-01  2.5212326809E-01  7.4787673191E-01
                       7.4787673191E-01  7.4867642764E-01  2.5132357236E-01
                       2.5035466955E-01  7.4964533045E-01  2.5035466955E-01
                       2.5132357236E-01  7.4867642764E-01  7.4787673191E-01
                       7.4787673191E-01  2.5212326809E-01  2.5132357236E-01
                      -6.2703498195E-03  6.2703498195E-03 -6.2703498195E-03
             xred3     2.4910346808E-01  2.5089653192E-01  2.4910346808E-01
                       7.4910346808E-01  7.5089653192E-01  7.4910346808E-01
                       7.5917081169E-01  2.4082918831E-01  7.5917081169E-01
                       2.5150063063E-01  2.5225226493E-01  7.4774773507E-01
                       7.4774773507E-01  7.4849936937E-01  2.5150063063E-01
                       2.5048802495E-01  7.4951197505E-01  2.5048802495E-01
                       2.5150063063E-01  7.4849936937E-01  7.4774773507E-01
                       7.4774773507E-01  2.5225226493E-01  2.5150063063E-01
                      -6.3593042191E-03  6.3593042191E-03 -6.3593042191E-03
             xred4     2.4910634068E-01  2.5089365932E-01  2.4910634068E-01
                       7.4910634068E-01  7.5089365932E-01  7.4910634068E-01
                       7.5890801716E-01  2.4109198284E-01  7.5890801716E-01
                       2.5167093501E-01  2.5237693443E-01  7.4762306557E-01
                       7.4762306557E-01  7.4832906499E-01  2.5167093501E-01
                       2.5067382619E-01  7.4932617381E-01  2.5067382619E-01
                       2.5167093501E-01  7.4832906499E-01  7.4762306557E-01
                       7.4762306557E-01  2.5237693443E-01  2.5167093501E-01
                      -6.3793259011E-03  6.3793259011E-03 -6.3793259011E-03
             xred5     2.4912143702E-01  2.5087856298E-01  2.4912143702E-01
                       7.4912143702E-01  7.5087856298E-01  7.4912143702E-01
                       7.5865689468E-01  2.4134310532E-01  7.5865689468E-01
                       2.5185771210E-01  2.5251106382E-01  7.4748893618E-01
                       7.4748893618E-01  7.4814228790E-01  2.5185771210E-01
                       2.5082542363E-01  7.4917457637E-01  2.5082542363E-01
                       2.5185771210E-01  7.4814228790E-01  7.4748893618E-01
                       7.4748893618E-01  2.5251106382E-01  2.5185771210E-01
                      -6.4152889305E-03  6.4152889305E-03 -6.4152889305E-03
             xred6     2.4910414494E-01  2.5089585506E-01  2.4910414494E-01
                       7.4910414494E-01  7.5089585506E-01  7.4910414494E-01
                       7.5843437331E-01  2.4156562669E-01  7.5843437331E-01
                       2.5205106050E-01  2.5264338248E-01  7.4735661752E-01
                       7.4735661752E-01  7.4794893950E-01  2.5205106050E-01
                       2.5098011248E-01  7.4901988752E-01  2.5098011248E-01
                       2.5205106050E-01  7.4794893950E-01  7.4735661752E-01
                       7.4735661752E-01  2.5264338248E-01  2.5205106050E-01
                      -6.4349317320E-03  6.4349317320E-03 -6.4349317320E-03
             xred7     2.4915516615E-01  2.5084483385E-01  2.4915516615E-01
                       7.4915516615E-01  7.5084483385E-01  7.4915516615E-01
                       7.5816678647E-01  2.4183321353E-01  7.5816678647E-01
                       2.5223805129E-01  2.5277759473E-01  7.4722240527E-01
                       7.4722240527E-01  7.4776194871E-01  2.5223805129E-01
                       2.5110564453E-01  7.4889435547E-01  2.5110564453E-01
                       2.5223805129E-01  7.4776194871E-01  7.4722240527E-01
                       7.4722240527E-01  2.5277759473E-01  2.5223805129E-01
                      -6.5004764407E-03  6.5004764407E-03 -6.5004764407E-03
             xred8     2.4914904932E-01  2.5085095068E-01  2.4914904932E-01
                       7.4914904932E-01  7.5085095068E-01  7.4914904932E-01
                       7.5792531530E-01  2.4207468470E-01  7.5792531530E-01
                       2.5242646006E-01  2.5290362747E-01  7.4709637253E-01
                       7.4709637253E-01  7.4757353994E-01  2.5242646006E-01
                       2.5126672348E-01  7.4873327652E-01  2.5126672348E-01
                       2.5242646006E-01  7.4757353994E-01  7.4709637253E-01
                       7.4709637253E-01  2.5290362747E-01  2.5242646006E-01
                      -6.5326026246E-03  6.5326026246E-03 -6.5326026246E-03
             xred9     2.4922614890E-01  2.5077385110E-01  2.4922614890E-01
                       7.4922614890E-01  7.5077385110E-01  7.4922614890E-01
                       7.5763286846E-01  2.4236713154E-01  7.5763286846E-01
                       2.5260784610E-01  2.5303714904E-01  7.4696285096E-01
                       7.4696285096E-01  7.4739215390E-01  2.5260784610E-01
                       2.5138614742E-01  7.4861385258E-01  2.5138614742E-01
                       2.5260784610E-01  7.4739215390E-01  7.4696285096E-01
                       7.4696285096E-01  2.5303714904E-01  2.5260784610E-01
                      -6.6095078187E-03  6.6095078187E-03 -6.6095078187E-03
             xred10    2.4921750776E-01  2.5078249224E-01  2.4921750776E-01
                       7.4921750776E-01  7.5078249224E-01  7.4921750776E-01
                       7.5737047087E-01  2.4262952913E-01  7.5737047087E-01
                       2.5278895847E-01  2.5315174383E-01  7.4684825617E-01
                       7.4684825617E-01  7.4721104153E-01  2.5278895847E-01
                       2.5156035196E-01  7.4843964804E-01  2.5156035196E-01
                       2.5278895847E-01  7.4721104153E-01  7.4684825617E-01
                       7.4684825617E-01  2.5315174383E-01  2.5278895847E-01
                      -6.6370676512E-03  6.6370676512E-03 -6.6370676512E-03
            znucl       55.00000   53.00000   72.00000   35.00000

================================================================================


- Timing analysis has been suppressed with timopt=0



================================================================================

 Suggested references for the acknowledgment of ABINIT usage.

 The users of ABINIT have little formal obligations with respect to the ABINIT group
 (those specified in the GNU General Public License, http://www.gnu.org/copyleft/gpl.txt).
 However, it is common practice in the scientific literature,
 to acknowledge the efforts of people that have made the research possible.
 In this spirit, please find below suggested citations of work written by ABINIT developers,
 corresponding to implementations inside of ABINIT that you have used in the present run.
 Note also that it will be of great value to readers of publications presenting these results,
 to read papers enabling them to understand the theoretical formalism and details
 of the ABINIT implementation.
 For information on why they are suggested, see also https://docs.abinit.org/theory/acknowledgments.
-
- [1] Implementation of the Projector Augmented-Wave Method in the ABINIT code.
- M. Torrent, F. Jollet, F. Bottin, G. Zerah, and X. Gonze Comput. Mat. Science 42, 337, (2008).
- Comment: PAW calculations. Strong suggestion to cite this paper.
- DOI and bibtex: see https://docs.abinit.org/theory/bibliography/#torrent2008
-
- [2] Libxc: A library of exchange and correlation functionals for density functional theory.
- M.A.L. Marques, M.J.T. Oliveira, T. Burnus, Computer Physics Communications 183, 2227 (2012).
- Comment: to be cited when LibXC is used (negative value of ixc)
- Strong suggestion to cite this paper.
- DOI and bibtex: see https://docs.abinit.org/theory/bibliography/#marques2012
-
- [3] The Abinit project: Impact, environment and recent developments.
- Computer Phys. Comm. 248, 107042 (2020).
- X.Gonze, B. Amadon, G. Antonius, F.Arnardi, L.Baguet, J.-M.Beuken,
- J.Bieder, F.Bottin, J.Bouchet, E.Bousquet, N.Brouwer, F.Bruneval,
- G.Brunin, T.Cavignac, J.-B. Charraud, Wei Chen, M.Cote, S.Cottenier,
- J.Denier, G.Geneste, Ph.Ghosez, M.Giantomassi, Y.Gillet, O.Gingras,
- D.R.Hamann, G.Hautier, Xu He, N.Helbig, N.Holzwarth, Y.Jia, F.Jollet,
- W.Lafargue-Dit-Hauret, K.Lejaeghere, M.A.L.Marques, A.Martin, C.Martins,
- H.P.C. Miranda, F.Naccarato, K. Persson, G.Petretto, V.Planes, Y.Pouillon,
- S.Prokhorenko, F.Ricci, G.-M.Rignanese, A.H.Romero, M.M.Schmitt, M.Torrent,
- M.J.van Setten, B.Van Troeye, M.J.Verstraete, G.Zerah and J.W.Zwanzig
- Comment: the fifth generic paper describing the ABINIT project.
- Note that a version of this paper, that is not formatted for Computer Phys. Comm. 
- is available at https://www.abinit.org/sites/default/files/ABINIT20.pdf .
- The licence allows the authors to put it on the Web.
- DOI and bibtex: see https://docs.abinit.org/theory/bibliography/#gonze2020
-
- [4] ABINIT: Overview, and focus on selected capabilities
- J. Chem. Phys. 152, 124102 (2020).
- A. Romero, D.C. Allan, B. Amadon, G. Antonius, T. Applencourt, L.Baguet,
- J.Bieder, F.Bottin, J.Bouchet, E.Bousquet, F.Bruneval,
- G.Brunin, D.Caliste, M.Cote,
- J.Denier, C. Dreyer, Ph.Ghosez, M.Giantomassi, Y.Gillet, O.Gingras,
- D.R.Hamann, G.Hautier, F.Jollet, G. Jomard,
- A.Martin, 
- H.P.C. Miranda, F.Naccarato, G.Petretto, N.A. Pike, V.Planes,
- S.Prokhorenko, T. Rangel, F.Ricci, G.-M.Rignanese, M.Royo, M.Stengel, M.Torrent,
- M.J.van Setten, B.Van Troeye, M.J.Verstraete, J.Wiktor, J.W.Zwanziger, and X.Gonze.
- Comment: a global overview of ABINIT, with focus on selected capabilities .
- Note that a version of this paper, that is not formatted for J. Chem. Phys 
- is available at https://www.abinit.org/sites/default/files/ABINIT20_JPC.pdf .
- The licence allows the authors to put it on the Web.
- DOI and bibtex: see https://docs.abinit.org/theory/bibliography/#romero2020
-
- [5] Recent developments in the ABINIT software package.
- Computer Phys. Comm. 205, 106 (2016).
- X.Gonze, F.Jollet, F.Abreu Araujo, D.Adams, B.Amadon, T.Applencourt,
- C.Audouze, J.-M.Beuken, J.Bieder, A.Bokhanchuk, E.Bousquet, F.Bruneval
- D.Caliste, M.Cote, F.Dahm, F.Da Pieve, M.Delaveau, M.Di Gennaro,
- B.Dorado, C.Espejo, G.Geneste, L.Genovese, A.Gerossier, M.Giantomassi,
- Y.Gillet, D.R.Hamann, L.He, G.Jomard, J.Laflamme Janssen, S.Le Roux,
- A.Levitt, A.Lherbier, F.Liu, I.Lukacevic, A.Martin, C.Martins,
- M.J.T.Oliveira, S.Ponce, Y.Pouillon, T.Rangel, G.-M.Rignanese,
- A.H.Romero, B.Rousseau, O.Rubel, A.A.Shukri, M.Stankovski, M.Torrent,
- M.J.Van Setten, B.Van Troeye, M.J.Verstraete, D.Waroquier, J.Wiktor,
- B.Xu, A.Zhou, J.W.Zwanziger.
- Comment: the fourth generic paper describing the ABINIT project.
- Note that a version of this paper, that is not formatted for Computer Phys. Comm. 
- is available at https://www.abinit.org/sites/default/files/ABINIT16.pdf .
- The licence allows the authors to put it on the Web.
- DOI and bibtex: see https://docs.abinit.org/theory/bibliography/#gonze2016
-
- Proc.   0 individual time (sec): cpu=      35265.8  wall=      35266.7

================================================================================

 Calculation completed.
.Delivered   0 WARNINGs and 170 COMMENTs to log file.
+Overall time at end (sec) : cpu=     211595.2  wall=     211600.1
