
.Version 9.2.2 of ABINIT 
.(MPI version, prepared for a x86_64_linux_gnu9.3 computer) 

.Copyright (C) 1998-2020 ABINIT group . 
 ABINIT comes with ABSOLUTELY NO WARRANTY.
 It is free software, and you are welcome to redistribute it
 under certain conditions (GNU General Public License,
 see ~abinit/COPYING or http://www.gnu.org/copyleft/gpl.txt).

 ABINIT is a project of the Universite Catholique de Louvain,
 Corning Inc. and other collaborators, see ~abinit/doc/developers/contributors.txt .
 Please read https://docs.abinit.org/theory/acknowledgments for suggested
 acknowledgments of the ABINIT effort.
 For more information, see https://www.abinit.org .

.Starting date : Sat 10 Dec 2022.
- ( at 23h12 )
  
- The starting date is more than 2 years after the initial release
- of this version of ABINIT, namely Nov 2020.
- Note that the use beyond 3 years after the release will not be supported.
- Action: please, switch to a more recent version of ABINIT.

- input  file    -> Cs2TiI6.in
- output file    -> Cs2TiI6.out
- root for input  files -> Cs2TiI6i
- root for output files -> Cs2TiI6o

- inpspheads : Reading pseudopotential header in XML form from 
-   ../../../Psps_for_tests/ATOMICDATA/Cs.GGA_PBE-JTH.xml
- inpspheads : Reading pseudopotential header in XML form from 
-   ../../../Psps_for_tests/ATOMICDATA/I.GGA_PBE-JTH.xml
- inpspheads : Reading pseudopotential header in XML form from 
-   ../../../Psps_for_tests/ATOMICDATA/Zr.GGA_PBE-JTH.xml
- inpspheads : Reading pseudopotential header in XML form from 
-   ../../../Psps_for_tests/ATOMICDATA/Cl.GGA_PBE-JTH.xml

 DATASET    1 : space group I4 m m (#107); Bravais tI (body-center tetrag.)
================================================================================
 Values of the parameters that define the memory need for DATASET  1.
     intxc =       0    ionmov =       0      iscf =      17    lmnmax =      18
     lnmax =       6     mgfft =      60  mpssoang =       3    mqgrid =    3659
     natom =       9  nloc_mem =       2    nspden =       1   nspinor =       1
    nsppol =       1      nsym =       8    n1xccc =       1    ntypat =       4
    occopt =       1   xclevel =       2
-    mband =          42        mffmem =           1         mkmem =          41
       mpw =        8456          nfft =      216000          nkpt =         163
Pmy_natom=         3
 PAW method is used; the additional fine FFT grid is defined by:
   mgfftf=        96    nfftf =    884736
================================================================================
P This job should need less than                     498.002 Mbytes of memory.
  Rough estimation (10% accuracy) of disk space for files :
_ WF disk file :    883.330 Mbytes ; DEN or POT disk file :      6.752 Mbytes.
================================================================================


 DATASET    2 : space group I4 m m (#107); Bravais tI (body-center tetrag.)
================================================================================
 Values of the parameters that define the memory need for DATASET  2.
     intxc =       0    ionmov =       0      iscf =      17    lmnmax =      18
     lnmax =       6     mgfft =      60  mpssoang =       3    mqgrid =    3622
     natom =       9  nloc_mem =       2    nspden =       1   nspinor =       1
    nsppol =       1      nsym =       8    n1xccc =       1    ntypat =       4
    occopt =       1   xclevel =       2
-    mband =          42        mffmem =           1         mkmem =          41
       mpw =        8216          nfft =      216000          nkpt =         163
Pmy_natom=         3
 PAW method is used; the additional fine FFT grid is defined by:
   mgfftf=        90    nfftf =    729000
================================================================================
P This job should need less than                     453.927 Mbytes of memory.
  Rough estimation (10% accuracy) of disk space for files :
_ WF disk file :    858.259 Mbytes ; DEN or POT disk file :      5.564 Mbytes.
================================================================================


 DATASET    3 : space group I4 m m (#107); Bravais tI (body-center tetrag.)
================================================================================
 Values of the parameters that define the memory need for DATASET  3.
     intxc =       0    ionmov =       0      iscf =      17    lmnmax =      18
     lnmax =       6     mgfft =      60  mpssoang =       3    mqgrid =    3585
     natom =       9  nloc_mem =       2    nspden =       1   nspinor =       1
    nsppol =       1      nsym =       8    n1xccc =       1    ntypat =       4
    occopt =       1   xclevel =       2
-    mband =          42        mffmem =           1         mkmem =          41
       mpw =        7951          nfft =      216000          nkpt =         163
Pmy_natom=         3
 PAW method is used; the additional fine FFT grid is defined by:
   mgfftf=        90    nfftf =    729000
================================================================================
P This job should need less than                     446.209 Mbytes of memory.
  Rough estimation (10% accuracy) of disk space for files :
_ WF disk file :    830.577 Mbytes ; DEN or POT disk file :      5.564 Mbytes.
================================================================================


 DATASET    4 : space group I4 m m (#107); Bravais tI (body-center tetrag.)
================================================================================
 Values of the parameters that define the memory need for DATASET  4.
     intxc =       0    ionmov =       0      iscf =      17    lmnmax =      18
     lnmax =       6     mgfft =      60  mpssoang =       3    mqgrid =    3548
     natom =       9  nloc_mem =       2    nspden =       1   nspinor =       1
    nsppol =       1      nsym =       8    n1xccc =       1    ntypat =       4
    occopt =       1   xclevel =       2
-    mband =          42        mffmem =           1         mkmem =          41
       mpw =        7716          nfft =      216000          nkpt =         163
Pmy_natom=         3
 PAW method is used; the additional fine FFT grid is defined by:
   mgfftf=        90    nfftf =    729000
================================================================================
P This job should need less than                     439.383 Mbytes of memory.
  Rough estimation (10% accuracy) of disk space for files :
_ WF disk file :    806.028 Mbytes ; DEN or POT disk file :      5.564 Mbytes.
================================================================================


 DATASET    5 : space group I4 m m (#107); Bravais tI (body-center tetrag.)
================================================================================
 Values of the parameters that define the memory need for DATASET  5.
     intxc =       0    ionmov =       0      iscf =      17    lmnmax =      18
     lnmax =       6     mgfft =      60  mpssoang =       3    mqgrid =    3511
     natom =       9  nloc_mem =       2    nspden =       1   nspinor =       1
    nsppol =       1      nsym =       8    n1xccc =       1    ntypat =       4
    occopt =       1   xclevel =       2
-    mband =          42        mffmem =           1         mkmem =          41
       mpw =        7499          nfft =      216000          nkpt =         163
Pmy_natom=         3
 PAW method is used; the additional fine FFT grid is defined by:
   mgfftf=        90    nfftf =    729000
================================================================================
P This job should need less than                     433.095 Mbytes of memory.
  Rough estimation (10% accuracy) of disk space for files :
_ WF disk file :    783.360 Mbytes ; DEN or POT disk file :      5.564 Mbytes.
================================================================================


 DATASET    6 : space group I4 m m (#107); Bravais tI (body-center tetrag.)
================================================================================
 Values of the parameters that define the memory need for DATASET  6.
     intxc =       0    ionmov =       0      iscf =      17    lmnmax =      18
     lnmax =       6     mgfft =      60  mpssoang =       3    mqgrid =    3474
     natom =       9  nloc_mem =       2    nspden =       1   nspinor =       1
    nsppol =       1      nsym =       8    n1xccc =       1    ntypat =       4
    occopt =       1   xclevel =       2
-    mband =          42        mffmem =           1         mkmem =          41
       mpw =        7262          nfft =      216000          nkpt =         163
Pmy_natom=         3
 PAW method is used; the additional fine FFT grid is defined by:
   mgfftf=        90    nfftf =    729000
================================================================================
P This job should need less than                     426.221 Mbytes of memory.
  Rough estimation (10% accuracy) of disk space for files :
_ WF disk file :    758.603 Mbytes ; DEN or POT disk file :      5.564 Mbytes.
================================================================================


 DATASET    7 : space group I4 m m (#107); Bravais tI (body-center tetrag.)
================================================================================
 Values of the parameters that define the memory need for DATASET  7.
     intxc =       0    ionmov =       0      iscf =      17    lmnmax =      18
     lnmax =       6     mgfft =      54  mpssoang =       3    mqgrid =    3437
     natom =       9  nloc_mem =       2    nspden =       1   nspinor =       1
    nsppol =       1      nsym =       8    n1xccc =       1    ntypat =       4
    occopt =       1   xclevel =       2
-    mband =          42        mffmem =           1         mkmem =          41
       mpw =        7014          nfft =      157464          nkpt =         163
Pmy_natom=         3
 PAW method is used; the additional fine FFT grid is defined by:
   mgfftf=        90    nfftf =    729000
================================================================================
P This job should need less than                     410.314 Mbytes of memory.
  Rough estimation (10% accuracy) of disk space for files :
_ WF disk file :    732.696 Mbytes ; DEN or POT disk file :      5.564 Mbytes.
================================================================================


 DATASET    8 : space group I4 m m (#107); Bravais tI (body-center tetrag.)
================================================================================
 Values of the parameters that define the memory need for DATASET  8.
     intxc =       0    ionmov =       0      iscf =      17    lmnmax =      18
     lnmax =       6     mgfft =      54  mpssoang =       3    mqgrid =    3400
     natom =       9  nloc_mem =       2    nspden =       1   nspinor =       1
    nsppol =       1      nsym =       8    n1xccc =       1    ntypat =       4
    occopt =       1   xclevel =       2
-    mband =          42        mffmem =           1         mkmem =          41
       mpw =        6818          nfft =      157464          nkpt =         163
Pmy_natom=         3
 PAW method is used; the additional fine FFT grid is defined by:
   mgfftf=        90    nfftf =    729000
================================================================================
P This job should need less than                     404.665 Mbytes of memory.
  Rough estimation (10% accuracy) of disk space for files :
_ WF disk file :    712.222 Mbytes ; DEN or POT disk file :      5.564 Mbytes.
================================================================================


 DATASET    9 : space group I4 m m (#107); Bravais tI (body-center tetrag.)
================================================================================
 Values of the parameters that define the memory need for DATASET  9.
     intxc =       0    ionmov =       0      iscf =      17    lmnmax =      18
     lnmax =       6     mgfft =      54  mpssoang =       3    mqgrid =    3363
     natom =       9  nloc_mem =       2    nspden =       1   nspinor =       1
    nsppol =       1      nsym =       8    n1xccc =       1    ntypat =       4
    occopt =       1   xclevel =       2
-    mband =          42        mffmem =           1         mkmem =          41
       mpw =        6584          nfft =      157464          nkpt =         163
Pmy_natom=         3
 PAW method is used; the additional fine FFT grid is defined by:
   mgfftf=        90    nfftf =    729000
================================================================================
P This job should need less than                     397.899 Mbytes of memory.
  Rough estimation (10% accuracy) of disk space for files :
_ WF disk file :    687.778 Mbytes ; DEN or POT disk file :      5.564 Mbytes.
================================================================================


 DATASET   10 : space group I4 m m (#107); Bravais tI (body-center tetrag.)
================================================================================
 Values of the parameters that define the memory need for DATASET 10.
     intxc =       0    ionmov =       0      iscf =      17    lmnmax =      18
     lnmax =       6     mgfft =      54  mpssoang =       3    mqgrid =    3326
     natom =       9  nloc_mem =       2    nspden =       1   nspinor =       1
    nsppol =       1      nsym =       8    n1xccc =       1    ntypat =       4
    occopt =       1   xclevel =       2
-    mband =          42        mffmem =           1         mkmem =          41
       mpw =        6370          nfft =      157464          nkpt =         163
Pmy_natom=         3
 PAW method is used; the additional fine FFT grid is defined by:
   mgfftf=        90    nfftf =    729000
================================================================================
P This job should need less than                     391.731 Mbytes of memory.
  Rough estimation (10% accuracy) of disk space for files :
_ WF disk file :    665.423 Mbytes ; DEN or POT disk file :      5.564 Mbytes.
================================================================================

--------------------------------------------------------------------------------
------------- Echo of variables that govern the present computation ------------
--------------------------------------------------------------------------------
-
- outvars: echo of selected default values                                      
-   iomode0 =  0 , fftalg0 =112 , wfoptalg0 = 10
-
- outvars: echo of global parameters not present in the input file              
-  max_nthreads =    0
-
 -outvars: echo values of preprocessed input variables --------
            acell1     1.5678957360E+01  1.5678957360E+01  1.5865928970E+01 Bohr
            acell2     1.5520159575E+01  1.5520159575E+01  1.5706593077E+01 Bohr
            acell3     1.5360893941E+01  1.5360893941E+01  1.5548279831E+01 Bohr
            acell4     1.5200437945E+01  1.5200437945E+01  1.5392576946E+01 Bohr
            acell5     1.5038304242E+01  1.5038304242E+01  1.5240585986E+01 Bohr
            acell6     1.4875419679E+01  1.4875419679E+01  1.5090315988E+01 Bohr
            acell7     1.4712989595E+01  1.4712989595E+01  1.4939107722E+01 Bohr
            acell8     1.4550050907E+01  1.4550050907E+01  1.4789115091E+01 Bohr
            acell9     1.4386116225E+01  1.4386116225E+01  1.4641482096E+01 Bohr
            acell10    1.4224277549E+01  1.4224277549E+01  1.4489166822E+01 Bohr
              amu      1.32905430E+02  1.26904470E+02  9.12240000E+01
                       3.54527000E+01
           diemac      1.20000000E+01
             ecut      1.60000000E+01 Hartree
-          fftalg         112
           istwfk        2    0    0    0    0    0    3    0    0    0
                         0    0    0    0    0    0    0    0    0    0
                         0    0    0    0    0    0    0    0    0    0
                         0    0    0    0    0    0    0    0    0    0
                         0    0    7    0    0    0    0    0    0    0
                       outvar_i_n : Printing only first  50 k-points.
              ixc     -101130
           jdtset        1    2    3    4    5    6    7    8    9   10
              kpt      0.00000000E+00  0.00000000E+00  0.00000000E+00
                       8.33333333E-02  0.00000000E+00  0.00000000E+00
                       1.66666667E-01  0.00000000E+00  0.00000000E+00
                       2.50000000E-01  0.00000000E+00  0.00000000E+00
                       3.33333333E-01  0.00000000E+00  0.00000000E+00
                       4.16666667E-01  0.00000000E+00  0.00000000E+00
                       5.00000000E-01  0.00000000E+00  0.00000000E+00
                       8.33333333E-02  8.33333333E-02  0.00000000E+00
                       1.66666667E-01  8.33333333E-02  0.00000000E+00
                       2.50000000E-01  8.33333333E-02  0.00000000E+00
                       3.33333333E-01  8.33333333E-02  0.00000000E+00
                       4.16666667E-01  8.33333333E-02  0.00000000E+00
                       5.00000000E-01  8.33333333E-02  0.00000000E+00
                      -4.16666667E-01  8.33333333E-02  0.00000000E+00
                      -3.33333333E-01  8.33333333E-02  0.00000000E+00
                      -2.50000000E-01  8.33333333E-02  0.00000000E+00
                      -1.66666667E-01  8.33333333E-02  0.00000000E+00
                      -8.33333333E-02  8.33333333E-02  0.00000000E+00
                       1.66666667E-01  1.66666667E-01  0.00000000E+00
                       2.50000000E-01  1.66666667E-01  0.00000000E+00
                       3.33333333E-01  1.66666667E-01  0.00000000E+00
                       4.16666667E-01  1.66666667E-01  0.00000000E+00
                       5.00000000E-01  1.66666667E-01  0.00000000E+00
                      -4.16666667E-01  1.66666667E-01  0.00000000E+00
                      -3.33333333E-01  1.66666667E-01  0.00000000E+00
                      -2.50000000E-01  1.66666667E-01  0.00000000E+00
                      -1.66666667E-01  1.66666667E-01  0.00000000E+00
                       2.50000000E-01  2.50000000E-01  0.00000000E+00
                       3.33333333E-01  2.50000000E-01  0.00000000E+00
                       4.16666667E-01  2.50000000E-01  0.00000000E+00
                       5.00000000E-01  2.50000000E-01  0.00000000E+00
                      -4.16666667E-01  2.50000000E-01  0.00000000E+00
                      -3.33333333E-01  2.50000000E-01  0.00000000E+00
                      -2.50000000E-01  2.50000000E-01  0.00000000E+00
                       3.33333333E-01  3.33333333E-01  0.00000000E+00
                       4.16666667E-01  3.33333333E-01  0.00000000E+00
                       5.00000000E-01  3.33333333E-01  0.00000000E+00
                      -4.16666667E-01  3.33333333E-01  0.00000000E+00
                      -3.33333333E-01  3.33333333E-01  0.00000000E+00
                       4.16666667E-01  4.16666667E-01  0.00000000E+00
                       5.00000000E-01  4.16666667E-01  0.00000000E+00
                      -4.16666667E-01  4.16666667E-01  0.00000000E+00
                       5.00000000E-01  5.00000000E-01  0.00000000E+00
                       8.33333333E-02  0.00000000E+00  8.33333333E-02
                       1.66666667E-01  0.00000000E+00  8.33333333E-02
                       2.50000000E-01  0.00000000E+00  8.33333333E-02
                       3.33333333E-01  0.00000000E+00  8.33333333E-02
                       4.16666667E-01  0.00000000E+00  8.33333333E-02
                       5.00000000E-01  0.00000000E+00  8.33333333E-02
                      -4.16666667E-01  0.00000000E+00  8.33333333E-02
                       outvar_i_n : Printing only first  50 k-points.
         kptrlatt       12    0    0      0   12    0      0    0   12
          kptrlen1     1.88147488E+02
          kptrlen2     1.86241915E+02
          kptrlen3     1.84330727E+02
          kptrlen4     1.82405255E+02
          kptrlen5     1.80459651E+02
          kptrlen6     1.78505036E+02
          kptrlen7     1.76555875E+02
          kptrlen8     1.74600611E+02
          kptrlen9     1.72633395E+02
          kptrlen10    1.70691331E+02
P           mkmem          41
            natom           9
            nband          42
           ndtset          10
            ngfft1         60      60      60
            ngfft2         60      60      60
            ngfft3         60      60      60
            ngfft4         60      60      60
            ngfft5         60      60      60
            ngfft6         60      60      60
            ngfft7         54      54      54
            ngfft8         54      54      54
            ngfft9         54      54      54
            ngfft10        54      54      54
          ngfftdg1         96      96      96
          ngfftdg2         90      90      90
          ngfftdg3         90      90      90
          ngfftdg4         90      90      90
          ngfftdg5         90      90      90
          ngfftdg6         90      90      90
          ngfftdg7         90      90      90
          ngfftdg8         90      90      90
          ngfftdg9         90      90      90
          ngfftdg10        90      90      90
             nkpt         163
            nstep        2500
             nsym           8
           ntypat           4
              occ      2.000000  2.000000  2.000000  2.000000  2.000000  2.000000
                       2.000000  2.000000  2.000000  2.000000  2.000000  2.000000
                       2.000000  2.000000  2.000000  2.000000  2.000000  2.000000
                       2.000000  2.000000  2.000000  2.000000  2.000000  2.000000
                       2.000000  2.000000  2.000000  2.000000  2.000000  2.000000
                       2.000000  2.000000  2.000000  2.000000  2.000000  2.000000
                       0.000000  0.000000  0.000000  0.000000  0.000000  0.000000
        pawecutdg      4.00000000E+01 Hartree
            prtwf           0
            rprim1     0.0000000000E+00  7.1553903149E-01  6.9857275528E-01
                       7.1553903149E-01  0.0000000000E+00  6.9857275528E-01
                       7.0710678119E-01  7.0710678119E-01  0.0000000000E+00
            rprim2     0.0000000000E+00  7.1560079137E-01  6.9850948983E-01
                       7.1560079137E-01  0.0000000000E+00  6.9850948983E-01
                       7.0710678119E-01  7.0710678119E-01  0.0000000000E+00
            rprim3     0.0000000000E+00  7.1573270059E-01  6.9837432750E-01
                       7.1573270059E-01  0.0000000000E+00  6.9837432750E-01
                       7.0710678119E-01  7.0710678119E-01  0.0000000000E+00
            rprim4     0.0000000000E+00  7.1604486513E-01  6.9805426087E-01
                       7.1604486513E-01  0.0000000000E+00  6.9805426087E-01
                       7.0710678119E-01  7.0710678119E-01  0.0000000000E+00
            rprim5     0.0000000000E+00  7.1661814565E-01  6.9746572197E-01
                       7.1661814565E-01  0.0000000000E+00  6.9746572197E-01
                       7.0710678119E-01  7.0710678119E-01  0.0000000000E+00
            rprim6     0.0000000000E+00  7.1732193080E-01  6.9674188018E-01
                       7.1732193080E-01  0.0000000000E+00  6.9674188018E-01
                       7.0710678119E-01  7.0710678119E-01  0.0000000000E+00
            rprim7     0.0000000000E+00  7.1797402604E-01  6.9606989443E-01
                       7.1797402604E-01  0.0000000000E+00  6.9606989443E-01
                       7.0710678119E-01  7.0710678119E-01  0.0000000000E+00
            rprim8     0.0000000000E+00  7.1872487836E-01  6.9529457730E-01
                       7.1872487836E-01  0.0000000000E+00  6.9529457730E-01
                       7.0710678119E-01  7.0710678119E-01  0.0000000000E+00
            rprim9     0.0000000000E+00  7.1965853150E-01  6.9432816307E-01
                       7.1965853150E-01  0.0000000000E+00  6.9432816307E-01
                       7.0710678119E-01  7.0710678119E-01  0.0000000000E+00
            rprim10    0.0000000000E+00  7.2027476112E-01  6.9368888451E-01
                       7.2027476112E-01  0.0000000000E+00  6.9368888451E-01
                       7.0710678119E-01  7.0710678119E-01  0.0000000000E+00
          spgroup         107
           symrel      1  0  0   0  1  0   0  0  1       1  0 -1   0  1 -1   0  0 -1
                       0  1 -1   1  0 -1   0  0 -1       0  1  0   1  0  0   0  0  1
                       1  0  0   1  0 -1   1 -1  0       0  1  0   0  1 -1  -1  1  0
                       0  1 -1   0  1  0  -1  1  0       1  0 -1   1  0  0   1 -1  0
           toldfe      1.00000000E-08 Hartree
            typat      1  1  4  2  2  2  2  2  3
           useylm           1
              wtk        0.00058    0.00463    0.00463    0.00463    0.00463    0.00463
                         0.00231    0.00116    0.00463    0.00463    0.00463    0.00463
                         0.00463    0.00463    0.00463    0.00463    0.00463    0.00231
                         0.00116    0.00463    0.00463    0.00463    0.00463    0.00463
                         0.00463    0.00463    0.00231    0.00116    0.00463    0.00463
                         0.00463    0.00463    0.00463    0.00231    0.00116    0.00463
                         0.00463    0.00463    0.00231    0.00116    0.00463    0.00231
                         0.00058    0.00231    0.00926    0.00926    0.00926    0.00926
                         0.00926    0.00926
                       outvars : Printing only first  50 k-points.
           xangst1     2.9683946708E+00  2.9683946708E+00  2.9319576907E+00
                       8.9051840125E+00  8.9051840125E+00  8.7279787396E+00
                       5.9367893417E+00  5.9367893417E+00  2.5247430608E+00
                       5.9367893416E+00  5.9367893416E+00  8.7876513565E+00
                       8.9845116985E+00  5.9367893417E+00  5.8271686745E+00
                       5.9367893417E+00  8.9845116985E+00  5.8271686745E+00
                       5.9367893416E+00  2.8890669848E+00  5.8271686745E+00
                       2.8890669848E+00  5.9367893416E+00  5.8271686745E+00
                      -1.6650764163E-12 -1.6650764163E-12  8.7162845675E-02
           xangst2     2.9385841368E+00  2.9385841368E+00  2.9009692213E+00
                       8.8157524105E+00  8.8157524105E+00  8.6377680929E+00
                       5.8771682737E+00  5.8771682737E+00  2.5288456835E+00
                       5.8771682736E+00  5.8771682736E+00  8.6776284851E+00
                       8.8704157865E+00  5.8771682737E+00  5.7646668389E+00
                       5.8771682737E+00  8.8704157865E+00  5.7646668389E+00
                       5.8771682736E+00  2.8839207608E+00  5.7646668389E+00
                       2.8839207608E+00  5.8771682736E+00  5.7646668389E+00
                      -3.3366962767E-13 -3.3366962767E-13  9.0512134221E-02
           xangst3     2.9089649322E+00  2.9089649322E+00  2.8692243154E+00
                       8.7268947966E+00  8.7268947966E+00  8.5460543011E+00
                       5.8179298645E+00  5.8179298645E+00  2.5330587255E+00
                       5.8179298644E+00  5.8179298644E+00  8.5674475226E+00
                       8.7579830286E+00  5.8179298645E+00  5.7011587675E+00
                       5.8179298645E+00  8.7579830286E+00  5.7011587675E+00
                       5.8179298644E+00  2.8778767002E+00  5.7011587675E+00
                       2.8778767002E+00  5.8179298644E+00  5.7011587675E+00
                      -2.0697298371E-12 -2.0697298371E-12  9.4219950272E-02
           xangst4     2.8798341064E+00  2.8798341064E+00  2.8353759105E+00
                       8.6395023191E+00  8.6395023191E+00  8.4503326441E+00
                       5.7596682128E+00  5.7596682128E+00  2.5381968541E+00
                       5.7596682127E+00  5.7596682127E+00  8.4553965145E+00
                       8.6484556717E+00  5.7596682128E+00  5.6353474047E+00
                       5.7596682128E+00  8.6484556717E+00  5.6353474047E+00
                       5.7596682127E+00  2.8708807538E+00  5.6353474047E+00
                       2.8708807538E+00  5.7596682127E+00  5.6353474047E+00
                      -1.2171312006E-12 -1.2171312006E-12  9.8962326841E-02
           xangst5     2.8513977534E+00  2.8513977534E+00  2.8008232584E+00
                       8.5541932603E+00  8.5541932603E+00  8.3512051591E+00
                       5.7027955069E+00  5.7027955069E+00  2.5427146386E+00
                       5.7027955068E+00  5.7027955068E+00  8.3392255623E+00
                       8.5427138884E+00  5.7027955069E+00  5.5663235477E+00
                       5.7027955069E+00  8.5427138884E+00  5.5663235477E+00
                       5.7027955068E+00  2.8628771253E+00  5.5663235477E+00
                       2.8628771253E+00  5.7027955068E+00  5.5663235477E+00
                      -1.9163570735E-12 -1.9163570735E-12  1.0379239616E-01
           xangst6     2.8232833795E+00  2.8232833795E+00  2.7638223406E+00
                       8.4698501385E+00  8.4698501385E+00  8.2483884348E+00
                       5.6465667589E+00  5.6465667589E+00  2.5489583242E+00
                       5.6465667590E+00  5.6465667590E+00  8.2229856344E+00
                       8.4394454353E+00  5.6465667589E+00  5.4954346250E+00
                       5.6465667589E+00  8.4394454353E+00  5.4954346250E+00
                       5.6465667590E+00  2.8536880827E+00  5.4954346250E+00
                       2.8536880827E+00  5.6465667590E+00  5.4954346250E+00
                       9.9231772531E-13  9.9231772531E-13  1.1063551896E-01
           xangst7     2.7949934626E+00  2.7949934626E+00  2.7280559783E+00
                       8.3849803877E+00  8.3849803877E+00  8.1475021805E+00
                       5.5899869252E+00  5.5899869252E+00  2.5540600710E+00
                       5.5899869250E+00  5.5899869250E+00  8.1090028364E+00
                       8.3367711322E+00  5.5899869252E+00  5.4249398112E+00
                       5.5899869252E+00  8.3367711322E+00  5.4249398112E+00
                       5.5899869250E+00  2.8432027180E+00  5.4249398112E+00
                       2.8432027180E+00  5.5899869250E+00  5.4249398112E+00
                      -3.1313993245E-12 -3.1313993245E-12  1.1718930678E-01
           xangst8     2.7669309818E+00  2.7669309818E+00  2.6908900071E+00
                       8.3007929454E+00  8.3007929454E+00  8.0443490713E+00
                       5.5338619637E+00  5.5338619637E+00  2.5594382798E+00
                       5.5338619636E+00  5.5338619636E+00  7.9952064960E+00
                       8.2361931524E+00  5.5338619637E+00  5.3532094719E+00
                       5.5338619637E+00  8.2361931524E+00  5.3532094719E+00
                       5.5338619636E+00  2.8315307749E+00  5.3532094719E+00
                       2.8315307749E+00  5.5338619636E+00  5.3532094719E+00
                      -2.3472353843E-12 -2.3472353843E-12  1.2495077216E-01
           xangst9     2.7393099710E+00  2.7393099710E+00  2.6521858248E+00
                       8.2179299131E+00  8.2179299131E+00  7.9379706157E+00
                       5.4786199421E+00  5.4786199421E+00  2.5650843589E+00
                       5.4786199420E+00  5.4786199420E+00  7.8795783225E+00
                       8.1390204538E+00  5.4786199421E+00  5.2793884427E+00
                       5.4786199421E+00  8.1390204538E+00  5.2793884427E+00
                       5.4786199420E+00  2.8182194303E+00  5.2793884427E+00
                       2.8182194303E+00  5.4786199420E+00  5.2793884427E+00
                      -1.8885555255E-12 -1.8885555255E-12  1.3390543438E-01
           xangst10    2.7108129415E+00  2.7108129415E+00  2.6155013482E+00
                       8.1324388244E+00  8.1324388244E+00  7.8370109914E+00
                       5.4216258829E+00  5.4216258829E+00  2.5689894630E+00
                       5.4216258829E+00  5.4216258829E+00  7.7715288041E+00
                       8.0396703732E+00  5.4216258829E+00  5.2090326298E+00
                       5.4216258829E+00  8.0396703732E+00  5.2090326298E+00
                       5.4216258829E+00  2.8035813927E+00  5.2090326298E+00
                       2.8035813927E+00  5.4216258829E+00  5.2090326298E+00
                       5.8798172909E-13  5.8798172909E-13  1.4291601968E-01
            xcart1     5.6094529822E+00  5.6094529822E+00  5.5405970687E+00
                       1.6828358947E+01  1.6828358947E+01  1.6493489512E+01
                       1.1218905964E+01  1.1218905964E+01  4.7710729409E+00
                       1.1218905964E+01  1.1218905964E+01  1.6606254415E+01
                       1.6978266548E+01  1.1218905964E+01  1.1011752925E+01
                       1.1218905964E+01  1.6978266548E+01  1.1011752925E+01
                       1.1218905964E+01  5.4595453808E+00  1.1011752925E+01
                       5.4595453808E+00  1.1218905964E+01  1.1011752925E+01
                      -3.1465384172E-12 -3.1465384172E-12  1.6471390729E-01
            xcart2     5.5531192370E+00  5.5531192370E+00  5.4820373482E+00
                       1.6659357711E+01  1.6659357711E+01  1.6323016095E+01
                       1.1106238474E+01  1.1106238474E+01  4.7788257742E+00
                       1.1106238474E+01  1.1106238474E+01  1.6398341320E+01
                       1.6762656521E+01  1.1106238474E+01  1.0893641573E+01
                       1.1106238474E+01  1.6762656521E+01  1.0893641573E+01
                       1.1106238474E+01  5.4498204269E+00  1.0893641573E+01
                       5.4498204269E+00  1.1106238474E+01  1.0893641573E+01
                      -6.3054421516E-13 -6.3054421516E-13  1.7104314538E-01
            xcart3     5.4971470521E+00  5.4971470521E+00  5.4220481699E+00
                       1.6491441156E+01  1.6491441156E+01  1.6149702146E+01
                       1.0994294104E+01  1.0994294104E+01  4.7867872697E+00
                       1.0994294104E+01  1.0994294104E+01  1.6190129476E+01
                       1.6550189401E+01  1.0994294104E+01  1.0773628711E+01
                       1.0994294104E+01  1.6550189401E+01  1.0773628711E+01
                       1.0994294104E+01  5.4383988077E+00  1.0773628711E+01
                       5.4383988077E+00  1.0994294104E+01  1.0773628711E+01
                      -3.9112225613E-12 -3.9112225613E-12  1.7804990227E-01
            xcart4     5.4420977692E+00  5.4420977692E+00  5.3580839545E+00
                       1.6326293308E+01  1.6326293308E+01  1.5968814429E+01
                       1.0884195538E+01  1.0884195538E+01  4.7964969255E+00
                       1.0884195538E+01  1.0884195538E+01  1.5978383757E+01
                       1.6343212692E+01  1.0884195538E+01  1.0649263259E+01
                       1.0884195538E+01  1.6343212692E+01  1.0649263259E+01
                       1.0884195538E+01  5.4251783849E+00  1.0649263259E+01
                       5.4251783849E+00  1.0884195538E+01  1.0649263259E+01
                      -2.3000446370E-12 -2.3000446370E-12  1.8701169520E-01
            xcart5     5.3883608499E+00  5.3883608499E+00  5.2927889050E+00
                       1.6165082550E+01  1.6165082550E+01  1.5781490630E+01
                       1.0776721700E+01  1.0776721700E+01  4.8050343010E+00
                       1.0776721700E+01  1.0776721700E+01  1.5758852473E+01
                       1.6143389681E+01  1.0776721700E+01  1.0518827072E+01
                       1.0776721700E+01  1.6143389681E+01  1.0518827072E+01
                       1.0776721700E+01  5.4100537190E+00  1.0518827072E+01
                       5.4100537190E+00  1.0776721700E+01  1.0518827072E+01
                      -3.6213900417E-12 -3.6213900417E-12  1.9613920341E-01
            xcart6     5.3352323828E+00  5.3352323828E+00  5.2228673037E+00
                       1.6005697148E+01  1.6005697148E+01  1.5587195179E+01
                       1.0670464765E+01  1.0670464765E+01  4.8168331570E+00
                       1.0670464766E+01  1.0670464766E+01  1.5539190844E+01
                       1.5948240586E+01  1.0670464765E+01  1.0384866422E+01
                       1.0670464765E+01  1.5948240586E+01  1.0384866422E+01
                       1.0670464766E+01  5.3926889450E+00  1.0384866422E+01
                       5.3926889450E+00  1.0670464766E+01  1.0384866422E+01
                       1.8752087377E-12  1.8752087377E-12  2.0907083140E-01
            xcart7     5.2817721874E+00  5.2817721874E+00  5.1552786741E+00
                       1.5845316562E+01  1.5845316562E+01  1.5396547788E+01
                       1.0563544375E+01  1.0563544375E+01  4.8264740612E+00
                       1.0563544375E+01  1.0563544375E+01  1.5323794572E+01
                       1.5754214272E+01  1.0563544375E+01  1.0251650531E+01
                       1.0563544375E+01  1.5754214272E+01  1.0251650531E+01
                       1.0563544375E+01  5.3728744773E+00  1.0251650531E+01
                       5.3728744773E+00  1.0563544375E+01  1.0251650531E+01
                      -5.9174871361E-12 -5.9174871361E-12  2.2145569552E-01
            xcart8     5.2287417842E+00  5.2287417842E+00  5.0850451671E+00
                       1.5686225353E+01  1.5686225353E+01  1.5201616662E+01
                       1.0457483569E+01  1.0457483569E+01  4.8366374028E+00
                       1.0457483568E+01  1.0457483568E+01  1.5108750653E+01
                       1.5564149436E+01  1.0457483569E+01  1.0116099834E+01
                       1.0457483569E+01  1.5564149436E+01  1.0116099834E+01
                       1.0457483568E+01  5.3508177014E+00  1.0116099834E+01
                       5.3508177014E+00  1.0457483568E+01  1.0116099834E+01
                      -4.4356320457E-12 -4.4356320457E-12  2.3612273947E-01
            xcart9     5.1765456383E+00  5.1765456383E+00  5.0119048623E+00
                       1.5529636915E+01  1.5529636915E+01  1.5000590515E+01
                       1.0353091277E+01  1.0353091277E+01  4.8473069461E+00
                       1.0353091277E+01  1.0353091277E+01  1.4890245072E+01
                       1.5380519648E+01  1.0353091277E+01  9.9765983059E+00
                       1.0353091277E+01  1.5380519648E+01  9.9765983059E+00
                       1.0353091277E+01  5.3256629056E+00  9.9765983059E+00
                       5.3256629056E+00  1.0353091277E+01  9.9765983059E+00
                      -3.5688527299E-12 -3.5688527299E-12  2.5304459868E-01
            xcart10    5.1226940568E+00  5.1226940568E+00  4.9425812482E+00
                       1.5368082171E+01  1.5368082171E+01  1.4809804474E+01
                       1.0245388114E+01  1.0245388114E+01  4.8546865233E+00
                       1.0245388114E+01  1.0245388114E+01  1.4686061074E+01
                       1.5192775204E+01  1.0245388114E+01  9.8436450876E+00
                       1.0245388114E+01  1.5192775204E+01  9.8436450876E+00
                       1.0245388114E+01  5.2980010234E+00  9.8436450876E+00
                       5.2980010234E+00  1.0245388114E+01  9.8436450876E+00
                       1.1111244391E-12  1.1111244391E-12  2.7007213720E-01
             xred1     2.5292848887E-01  2.5292848887E-01  2.4707151113E-01
                       7.5292848887E-01  7.5292848887E-01  7.4707151113E-01
                       2.1779968012E-01  2.1779968012E-01  7.8220031988E-01
                       7.5807621145E-01  7.5807621145E-01  2.4192378855E-01
                       2.4600595763E-01  7.5936800932E-01  7.5399404237E-01
                       7.5936800932E-01  2.4600595763E-01  7.5399404237E-01
                       2.4600595763E-01  7.5936800932E-01  2.4063199068E-01
                       7.5936800932E-01  2.4600595763E-01  2.4063199068E-01
                       7.5191967851E-03  7.5191967851E-03 -7.5191967851E-03
             xred2     2.5283867242E-01  2.5283867242E-01  2.4716132758E-01
                       7.5283867242E-01  7.5283867242E-01  7.4716132758E-01
                       2.2040564260E-01  2.2040564260E-01  7.7959435740E-01
                       7.5631276948E-01  7.5631276948E-01  2.4368723052E-01
                       2.4777839197E-01  7.5707936371E-01  7.5222160803E-01
                       7.5707936371E-01  2.4777839197E-01  7.5222160803E-01
                       2.4777839197E-01  7.5707936371E-01  2.4292063629E-01
                       7.5707936371E-01  2.4777839197E-01  2.4292063629E-01
                       7.8887316992E-03  7.8887316992E-03 -7.8887316992E-03
             xred3     2.5271360272E-01  2.5271360272E-01  2.4728639728E-01
                       7.5271360272E-01  7.5271360272E-01  7.4728639728E-01
                       2.2310503678E-01  2.2310503678E-01  7.7689496322E-01
                       7.5459786045E-01  7.5459786045E-01  2.4540213955E-01
                       2.4947105339E-01  7.5481457466E-01  7.5052894661E-01
                       7.5481457466E-01  2.4947105339E-01  7.5052894661E-01
                       2.4947105339E-01  7.5481457466E-01  2.4518542534E-01
                       7.5481457466E-01  2.4947105339E-01  2.4518542534E-01
                       8.2986411880E-03  8.2986411880E-03 -8.2986411880E-03
             xred4     2.5248421715E-01  2.5248421715E-01  2.4751578285E-01
                       7.5248421715E-01  7.5248421715E-01  7.4751578285E-01
                       2.2602105185E-01  2.2602105185E-01  7.7397894815E-01
                       7.5293514408E-01  7.5293514408E-01  2.4706485592E-01
                       2.5103850054E-01  7.5259299157E-01  7.4896149946E-01
                       7.5259299157E-01  2.5103850054E-01  7.4896149946E-01
                       2.5103850054E-01  7.5259299157E-01  2.4740700843E-01
                       7.5259299157E-01  2.5103850054E-01  2.4740700843E-01
                       8.8123855210E-03  8.8123855210E-03 -8.8123855210E-03
             xred5     2.5230905805E-01  2.5230905805E-01  2.4769094195E-01
                       7.5230905805E-01  7.5230905805E-01  7.4769094195E-01
                       2.2905762919E-01  2.2905762919E-01  7.7094237081E-01
                       7.5122988935E-01  7.5122988935E-01  2.4877011065E-01
                       2.5244255443E-01  7.5042961676E-01  7.4755744557E-01
                       7.5042961676E-01  2.5244255443E-01  7.4755744557E-01
                       2.5244255443E-01  7.5042961676E-01  2.4957038324E-01
                       7.5042961676E-01  2.5244255443E-01  2.4957038324E-01
                       9.3500229366E-03  9.3500229366E-03 -9.3500229366E-03
             xred6     2.5196362786E-01  2.5196362786E-01  2.4803637214E-01
                       7.5196362786E-01  7.5196362786E-01  7.4803637214E-01
                       2.3237556814E-01  2.3237556814E-01  7.6762443186E-01
                       7.4964778373E-01  7.4964778373E-01  2.5035221627E-01
                       2.5368314638E-01  7.4829851099E-01  7.4631685362E-01
                       7.4829851099E-01  2.5368314638E-01  7.4631685362E-01
                       2.5368314638E-01  7.4829851099E-01  2.5170148901E-01
                       7.4829851099E-01  2.5368314638E-01  2.5170148901E-01
                       1.0086077646E-02  1.0086077646E-02 -1.0086077646E-02
             xred7     2.5169139765E-01  2.5169139765E-01  2.4830860235E-01
                       7.5169139765E-01  7.5169139765E-01  7.4830860235E-01
                       2.3563847446E-01  2.3563847446E-01  7.6436152554E-01
                       7.4813943471E-01  7.4813943471E-01  2.5186056529E-01
                       2.5481895035E-01  7.4619473421E-01  7.4518104965E-01
                       7.4619473421E-01  2.5481895035E-01  7.4518104965E-01
                       2.5481895035E-01  7.4619473421E-01  2.5380526579E-01
                       7.4619473421E-01  2.5481895035E-01  2.5380526579E-01
                       1.0811926386E-02  1.0811926386E-02 -1.0811926386E-02
             xred8     2.5132255377E-01  2.5132255377E-01  2.4867744623E-01
                       7.5132255377E-01  7.5132255377E-01  7.4867744623E-01
                       2.3904528353E-01  2.3904528353E-01  7.6095471647E-01
                       7.4673275727E-01  7.4673275727E-01  2.5326724273E-01
                       2.5581346176E-01  7.4413991560E-01  7.4418653824E-01
                       7.4413991560E-01  2.5581346176E-01  7.4418653824E-01
                       2.5581346176E-01  7.4413991560E-01  2.5586008440E-01
                       7.4413991560E-01  2.5581346176E-01  2.5586008440E-01
                       1.1670096909E-02  1.1670096909E-02 -1.1670096909E-02
             xred9     2.5087909645E-01  2.5087909645E-01  2.4912090355E-01
                       7.5087909645E-01  7.5087909645E-01  7.4912090355E-01
                       2.4263987850E-01  2.4263987850E-01  7.5736012150E-01
                       7.4535557483E-01  7.4535557483E-01  2.5464442517E-01
                       2.5659652990E-01  7.4219336631E-01  7.4340347010E-01
                       7.4219336631E-01  2.5659652990E-01  7.4340347010E-01
                       2.5659652990E-01  7.4219336631E-01  2.5780663369E-01
                       7.4219336631E-01  2.5659652990E-01  2.5780663369E-01
                       1.2666561322E-02  1.2666561322E-02 -1.2666561322E-02
             xred10    2.5045451669E-01  2.5045451669E-01  2.4954548331E-01
                       7.5045451669E-01  7.5045451669E-01  7.4954548331E-01
                       2.4600064335E-01  2.4600064335E-01  7.5399935665E-01
                       7.4418408996E-01  7.4418408996E-01  2.5581591004E-01
                       2.5736063807E-01  7.4024982054E-01  7.4263936193E-01
                       7.4024982054E-01  2.5736063807E-01  7.4263936193E-01
                       2.5736063807E-01  7.4024982054E-01  2.5975017946E-01
                       7.4024982054E-01  2.5736063807E-01  2.5975017946E-01
                       1.3685316072E-02  1.3685316072E-02 -1.3685316072E-02
            znucl       55.00000   53.00000   40.00000   17.00000

================================================================================

 chkinp: Checking input parameters for consistency, jdtset=   1.

 chkinp: Checking input parameters for consistency, jdtset=   2.

 chkinp: Checking input parameters for consistency, jdtset=   3.

 chkinp: Checking input parameters for consistency, jdtset=   4.

 chkinp: Checking input parameters for consistency, jdtset=   5.

 chkinp: Checking input parameters for consistency, jdtset=   6.

 chkinp: Checking input parameters for consistency, jdtset=   7.

 chkinp: Checking input parameters for consistency, jdtset=   8.

 chkinp: Checking input parameters for consistency, jdtset=   9.

 chkinp: Checking input parameters for consistency, jdtset=  10.

================================================================================
== DATASET  1 ==================================================================
-   mpi_nproc: 4, omp_nthreads: -1 (-1 if OMP is not activated)


--- !DatasetInfo
iteration_state: {dtset: 1, }
dimensions: {natom: 9, nkpt: 163, mband: 42, nsppol: 1, nspinor: 1, nspden: 1, mpw: 8456, }
cutoff_energies: {ecut:  16.0, pawecutdg:  40.0, }
electrons: {nelect:   7.20000000E+01, charge:   0.00000000E+00, occopt:   1.00000000E+00, tsmear:   1.00000000E-02, }
meta: {optdriver: 0, ionmov: 0, optcell: 0, iscf: 17, paral_kgb: 0, }
...

 Real(R)+Recip(G) space primitive vectors, cartesian coordinates (Bohr,Bohr^-1):
 R(1)=  0.0000000 11.2189060 10.9528924  G(1)= -0.0445676  0.0445676  0.0456500
 R(2)= 11.2189060  0.0000000 10.9528924  G(2)=  0.0445676 -0.0445676  0.0456500
 R(3)= 11.2189060 11.2189060  0.0000000  G(3)=  0.0445676  0.0445676 -0.0456500
 Unit cell volume ucvol=  2.7571464E+03 bohr^3
 Angles (23,13,12)=  5.96047338E+01  5.96047338E+01  6.07905324E+01 degrees

 Coarse grid specifications (used for wave-functions):

 getcut: wavevector=  0.0000  0.0000  0.0000  ngfft=  60  60  60
         ecut(hartree)=     16.000   => boxcut(ratio)=   2.10020

 Fine grid specifications (used for densities):

 getcut: wavevector=  0.0000  0.0000  0.0000  ngfft=  96  96  96
         ecut(hartree)=     40.000   => boxcut(ratio)=   2.12525

--- Pseudopotential description ------------------------------------------------
- pspini: atom type   1  psp file is ../../../Psps_for_tests/ATOMICDATA/Cs.GGA_PBE-JTH.xml
- pspatm: opening atomic psp file    ../../../Psps_for_tests/ATOMICDATA/Cs.GGA_PBE-JTH.xml
- pspatm : Reading pseudopotential header in XML form from ../../../Psps_for_tests/ATOMICDATA/Cs.GGA_PBE-JTH.xml
 Pseudopotential format is: paw10
 basis_size (lnmax)=  6 (lmn_size= 18), orbitals=   0   0   1   1   2   2
 Spheres core radius: rc_sph= 2.20660278
 1 radial meshes are used:
  - mesh 1: r(i)=AA*[exp(BB*(i-1))-1], size=1500 , AA= 0.15922E-03 BB= 0.87573E-02
 Shapefunction is SIN type: shapef(r)=[sin(pi*r/rshp)/(pi*r/rshp)]**2
 Radius for shape functions =  2.00394208
 mmax= 1500
 Radial grid used for partial waves is grid 1
 Radial grid used for projectors is grid 1
 Radial grid used for (t)core density is grid 1
 Radial grid used for Vloc is grid 1
 Radial grid used for pseudo valence density is grid 1
 Mesh size for Vloc has been set to 1341 to avoid numerical noise.
 Compensation charge density is not taken into account in XC energy/potential
 pspatm: atomic psp has been read  and splines computed

- pspini: atom type   2  psp file is ../../../Psps_for_tests/ATOMICDATA/I.GGA_PBE-JTH.xml
- pspatm: opening atomic psp file    ../../../Psps_for_tests/ATOMICDATA/I.GGA_PBE-JTH.xml
- pspatm : Reading pseudopotential header in XML form from ../../../Psps_for_tests/ATOMICDATA/I.GGA_PBE-JTH.xml
 Pseudopotential format is: paw10
 basis_size (lnmax)=  4 (lmn_size=  8), orbitals=   0   0   1   1
 Spheres core radius: rc_sph= 2.30022271
 1 radial meshes are used:
  - mesh 1: r(i)=AA*[exp(BB*(i-1))-1], size=2000 , AA= 0.12610E-03 BB= 0.66836E-02
 Shapefunction is SIN type: shapef(r)=[sin(pi*r/rshp)/(pi*r/rshp)]**2
 Radius for shape functions =  2.10879093
 mmax= 2000
 Radial grid used for partial waves is grid 1
 Radial grid used for projectors is grid 1
 Radial grid used for (t)core density is grid 1
 Radial grid used for Vloc is grid 1
 Radial grid used for pseudo valence density is grid 1
 Mesh size for Vloc has been set to 1792 to avoid numerical noise.
 Compensation charge density is not taken into account in XC energy/potential
 pspatm: atomic psp has been read  and splines computed

- pspini: atom type   3  psp file is ../../../Psps_for_tests/ATOMICDATA/Zr.GGA_PBE-JTH.xml
- pspatm: opening atomic psp file    ../../../Psps_for_tests/ATOMICDATA/Zr.GGA_PBE-JTH.xml
- pspatm : Reading pseudopotential header in XML form from ../../../Psps_for_tests/ATOMICDATA/Zr.GGA_PBE-JTH.xml
 Pseudopotential format is: paw10
 basis_size (lnmax)=  6 (lmn_size= 18), orbitals=   0   0   1   1   2   2
 Spheres core radius: rc_sph= 2.21000000
 1 radial meshes are used:
  - mesh 1: r(i)=AA*[exp(BB*(i-1))-1], size= 941 , AA= 0.35256E-03 BB= 0.14102E-01
 Shapefunction is BESSEL type: shapef(r,l)=aa(1,l)*jl(q(1,l)*r)+aa(2,l)*jl(q(2,l)*r)
 Radius for shape functions =  2.21000000
 mmax=  941
 Radial grid used for partial waves is grid 1
 Radial grid used for projectors is grid 1
 Radial grid used for (t)core density is grid 1
 Radial grid used for Vloc is grid 1
 Radial grid used for pseudo valence density is grid 1
 Mesh size for Vloc has been set to  777 to avoid numerical noise.
 Compensation charge density is not taken into account in XC energy/potential
 pspatm: atomic psp has been read  and splines computed

- pspini: atom type   4  psp file is ../../../Psps_for_tests/ATOMICDATA/Cl.GGA_PBE-JTH.xml
- pspatm: opening atomic psp file    ../../../Psps_for_tests/ATOMICDATA/Cl.GGA_PBE-JTH.xml
- pspatm : Reading pseudopotential header in XML form from ../../../Psps_for_tests/ATOMICDATA/Cl.GGA_PBE-JTH.xml
 Pseudopotential format is: paw10
 basis_size (lnmax)=  4 (lmn_size=  8), orbitals=   0   0   1   1
 Spheres core radius: rc_sph= 1.80315674
 1 radial meshes are used:
  - mesh 1: r(i)=AA*[exp(BB*(i-1))-1], size=1400 , AA= 0.50355E-03 BB= 0.85603E-02
 Shapefunction is SIN type: shapef(r)=[sin(pi*r/rshp)/(pi*r/rshp)]**2
 Radius for shape functions =  1.61320365
 mmax= 1400
 Radial grid used for partial waves is grid 1
 Radial grid used for projectors is grid 1
 Radial grid used for (t)core density is grid 1
 Radial grid used for Vloc is grid 1
 Radial grid used for pseudo valence density is grid 1
 Mesh size for Vloc has been set to 1238 to avoid numerical noise.
 Compensation charge density is not taken into account in XC energy/potential
 pspatm: atomic psp has been read  and splines computed

   3.89338138E+04                                ecore*ucvol(ha*bohr**3)
--------------------------------------------------------------------------------

_setup2: Arith. and geom. avg. npw (full set) are    8428.429    8428.423

================================================================================

--- !BeginCycle
iteration_state: {dtset: 1, }
solver: {iscf: 17, nstep: 2500, nline: 4, wfoptalg: 10, }
tolerances: {toldfe: 1.00E-08, }
...

     iter   Etot(hartree)      deltaE(h)  residm     nres2
 ETOT  1  -162.13690099169    -1.621E+02 1.927E-01 1.795E+01
 ETOT  2  -162.32751791227    -1.906E-01 1.531E-02 4.680E+00
 ETOT  3  -162.32327937182     4.239E-03 3.178E-03 9.667E-01
 ETOT  4  -162.32406703600    -7.877E-04 3.539E-03 1.061E-01
 ETOT  5  -162.32352007070     5.470E-04 1.184E-03 8.982E-03
 ETOT  6  -162.32359178310    -7.171E-05 9.907E-04 2.023E-03
 ETOT  7  -162.32359075996     1.023E-06 4.055E-04 7.248E-04
 ETOT  8  -162.32359278254    -2.023E-06 6.377E-04 1.094E-04
 ETOT  9  -162.32359288262    -1.001E-07 5.773E-04 5.626E-05
 ETOT 10  -162.32359289994    -1.732E-08 4.070E-04 3.636E-06
 ETOT 11  -162.32359293620    -3.626E-08 2.185E-04 3.218E-06
 ETOT 12  -162.32359292977     6.421E-09 1.836E-04 1.569E-07
 ETOT 13  -162.32359293155    -1.778E-09 1.648E-04 1.610E-07

 At SCF step   13, etot is converged : 
  for the second time, diff in etot=  1.778E-09 < toldfe=  1.000E-08

 Cartesian components of stress tensor (hartree/bohr^3)
  sigma(1 1)= -4.63465741E-06  sigma(3 2)=  9.77506540E-14
  sigma(2 2)= -4.63465741E-06  sigma(3 1)=  9.77504429E-14
  sigma(3 3)= -4.58486405E-06  sigma(2 1)= -1.90863965E-13


--- !ResultsGS
iteration_state: {dtset: 1, }
comment   : Summary of ground state results
lattice_vectors:
- [  0.0000000,  11.2189060,  10.9528924, ]
- [ 11.2189060,   0.0000000,  10.9528924, ]
- [ 11.2189060,  11.2189060,   0.0000000, ]
lattice_lengths: [  15.67896,   15.67896,   15.86593, ]
lattice_angles: [ 59.605,  59.605,  60.791, ] # degrees, (23, 13, 12)
lattice_volume:   2.7571464E+03
convergence: {deltae: -1.778E-09, res2:  1.610E-07, residm:  1.648E-04, diffor: null, }
etotal    :  -1.62323593E+02
entropy   :   0.00000000E+00
fermie    :  -9.55450117E-02
cartesian_stress_tensor: # hartree/bohr^3
- [ -4.63465741E-06,  -1.90863965E-13,   9.77504429E-14, ]
- [ -1.90863965E-13,  -4.63465741E-06,   9.77506540E-14, ]
- [  9.77504429E-14,   9.77506540E-14,  -4.58486405E-06, ]
pressure_GPa:   1.3587E-01
xred      :
- [  2.5293E-01,   2.5293E-01,   2.4707E-01, Cs]
- [  7.5293E-01,   7.5293E-01,   7.4707E-01, Cs]
- [  2.1780E-01,   2.1780E-01,   7.8220E-01, Cl]
- [  7.5808E-01,   7.5808E-01,   2.4192E-01,  I]
- [  2.4601E-01,   7.5937E-01,   7.5399E-01,  I]
- [  7.5937E-01,   2.4601E-01,   7.5399E-01,  I]
- [  2.4601E-01,   7.5937E-01,   2.4063E-01,  I]
- [  7.5937E-01,   2.4601E-01,   2.4063E-01,  I]
- [  7.5192E-03,   7.5192E-03,  -7.5192E-03, Zr]
cartesian_forces: # hartree/bohr
- [ -3.47466047E-22,   3.53867025E-22,   1.22672235E-05, ]
- [  4.99566900E-22,  -4.93165922E-22,   1.22672235E-05, ]
- [ -1.03281736E-21,   1.03921834E-21,  -7.74921842E-05, ]
- [  5.31021909E-22,  -5.24620932E-22,  -1.51084246E-06, ]
- [  3.45375630E-07,  -6.44148233E-18,   7.09879718E-06, ]
- [ -6.44039812E-18,   3.45375630E-07,   7.09879718E-06, ]
- [  6.44170049E-18,  -3.45375630E-07,   7.09879718E-06, ]
- [ -3.45375630E-07,   6.44038196E-18,   7.09879718E-06, ]
- [ -2.02529274E-21,   2.03169372E-21,   2.60733910E-05, ]
force_length_stats: {min:   1.51084246E-06, max:   7.74921842E-05, mean:   1.75599600E-05, }
...

 Integrated electronic density in atomic spheres:
 ------------------------------------------------
 Atom  Sphere_radius  Integrated_density
    1        2.20660          5.36148401
    2        2.20660          5.36148401
    3        1.80316          4.36671338
    4        2.30022          4.01039641
    5        2.30022          4.01152894
    6        2.30022          4.01152894
    7        2.30022          4.01152894
    8        2.30022          4.01152894
    9        2.21000          8.81416161

 PAW TEST:
 ==== Compensation charge inside spheres ============
 The following values must be close to each other ...
 Compensation charge over spherical meshes =     -5.339759871817316
 Compensation charge over fine fft grid    =     -5.339779162536871

 ==== Results concerning PAW augmentation regions ====

 Total pseudopotential strength Dij (hartree):
 Atom #  1
   0.44307  -0.14670   0.00000   0.00000   0.00000   0.00000  -0.00000   0.00000   0.00000   0.00000  -0.00000   0.00000 ...
  -0.14670   0.04423   0.00000  -0.00000   0.00000   0.00000   0.00000   0.00000  -0.00000   0.00000   0.00000   0.00000 ...
   0.00000   0.00000  -0.09393   0.00000   0.00000  -0.16633   0.00000  -0.00000   0.00000   0.00000   0.00000  -0.00000 ...
   0.00000  -0.00000   0.00000  -0.09393   0.00000   0.00000  -0.16633   0.00000  -0.00000   0.00000   0.00000   0.00000 ...
   0.00000   0.00000   0.00000   0.00000  -0.09393  -0.00000   0.00000  -0.16633   0.00000  -0.00000   0.00000   0.00000 ...
   0.00000   0.00000  -0.16633   0.00000  -0.00000   0.40484   0.00000   0.00001   0.00000  -0.00000   0.00000   0.00000 ...
  -0.00000   0.00000   0.00000  -0.16633   0.00000   0.00000   0.40483   0.00000   0.00000   0.00000  -0.00000   0.00000 ...
   0.00000   0.00000  -0.00000   0.00000  -0.16633   0.00001   0.00000   0.40484   0.00000   0.00000   0.00000  -0.00000 ...
   0.00000  -0.00000   0.00000  -0.00000   0.00000   0.00000   0.00000   0.00000   0.00518   0.00000  -0.00000   0.00000 ...
   0.00000   0.00000   0.00000   0.00000  -0.00000  -0.00000   0.00000   0.00000   0.00000   0.00517   0.00000   0.00000 ...
  -0.00000   0.00000   0.00000   0.00000   0.00000   0.00000  -0.00000   0.00000  -0.00000   0.00000   0.00518   0.00000 ...
   0.00000   0.00000  -0.00000   0.00000   0.00000   0.00000   0.00000  -0.00000   0.00000   0.00000   0.00000   0.00517 ...
   ...  only 12  components have been written...
 Atom #  9
   3.08829  -0.89966   0.00000   0.00001   0.00000   0.00000  -0.00001   0.00000   0.00000   0.00000   0.00007   0.00000 ...
  -0.89966   0.26890   0.00000   0.00001   0.00000   0.00000  -0.00000   0.00000   0.00000   0.00000  -0.00001   0.00000 ...
   0.00000   0.00000   0.26499   0.00000   0.00000  -0.05375   0.00000   0.00000   0.00000   0.00012   0.00000   0.00000 ...
   0.00001   0.00001   0.00000   0.26510   0.00000   0.00000  -0.05377   0.00000   0.00000   0.00000   0.00014   0.00000 ...
   0.00000   0.00000   0.00000   0.00000   0.26499   0.00000   0.00000  -0.05375   0.00000   0.00000   0.00000   0.00012 ...
   0.00000   0.00000  -0.05375   0.00000   0.00000   0.01479   0.00000   0.00000   0.00000  -0.00002   0.00000   0.00000 ...
  -0.00001  -0.00000   0.00000  -0.05377   0.00000   0.00000   0.01479   0.00000   0.00000   0.00000  -0.00002   0.00000 ...
   0.00000   0.00000   0.00000   0.00000  -0.05375   0.00000   0.00000   0.01479   0.00000   0.00000   0.00000  -0.00002 ...
   0.00000   0.00000   0.00000   0.00000   0.00000   0.00000   0.00000   0.00000  -0.01873   0.00000   0.00000   0.00000 ...
   0.00000   0.00000   0.00012   0.00000   0.00000  -0.00002   0.00000   0.00000   0.00000  -0.01866   0.00000   0.00000 ...
   0.00007  -0.00001   0.00000   0.00014   0.00000   0.00000  -0.00002   0.00000   0.00000   0.00000  -0.01854   0.00000 ...
   0.00000   0.00000   0.00000   0.00000   0.00012   0.00000   0.00000  -0.00002   0.00000   0.00000   0.00000  -0.01866 ...
   ...  only 12  components have been written...


 Augmentation waves occupancies Rhoij:
 Atom #  1
   1.99688  -0.01662   0.00000  -0.00000   0.00000   0.00000   0.00001   0.00000   0.00296   0.00000  -0.00117   0.00000 ...
  -0.01662   0.12543   0.00000   0.00072   0.00000   0.00000  -0.00002   0.00000  -0.01261   0.00000   0.00984   0.00000 ...
   0.00000   0.00000   2.00789   0.00000  -0.00173  -0.00491   0.00000   0.00027   0.00000   0.00060   0.00000  -0.00000 ...
  -0.00000   0.00072   0.00000   2.00897   0.00000   0.00000  -0.00512   0.00000   0.00025   0.00000  -0.00005   0.00000 ...
   0.00000   0.00000  -0.00173   0.00000   2.00789   0.00027   0.00000  -0.00491   0.00000  -0.00000   0.00000   0.00060 ...
   0.00000   0.00000  -0.00491   0.00000   0.00027   0.00008   0.00000  -0.00001   0.00000  -0.00002   0.00000  -0.00000 ...
   0.00001  -0.00002   0.00000  -0.00512   0.00000   0.00000   0.00010   0.00000  -0.00002   0.00000   0.00001   0.00000 ...
   0.00000   0.00000   0.00027   0.00000  -0.00491  -0.00001   0.00000   0.00008   0.00000  -0.00000   0.00000  -0.00002 ...
   0.00296  -0.01261   0.00000   0.00025   0.00000   0.00000  -0.00002   0.00000   0.02566   0.00000   0.00953   0.00000 ...
   0.00000   0.00000   0.00060   0.00000  -0.00000  -0.00002   0.00000  -0.00000   0.00000   0.04357   0.00000  -0.00016 ...
  -0.00117   0.00984   0.00000  -0.00005   0.00000   0.00000   0.00001   0.00000   0.00953   0.00000   0.02000   0.00000 ...
   0.00000   0.00000  -0.00000   0.00000   0.00060  -0.00000   0.00000  -0.00002   0.00000  -0.00016   0.00000   0.04357 ...
   ...  only 12  components have been written...
 Atom #  9
   1.99266  -0.06555   0.00000  -0.00076   0.00000   0.00000  -0.00386   0.00000   0.00000   0.00000  -0.00316   0.00000 ...
  -0.06555   1.04318   0.00000  -0.00677   0.00000   0.00000   0.07106   0.00000   0.00000   0.00000   0.05780   0.00000 ...
   0.00000   0.00000   1.96768   0.00000   0.00000  -0.19488   0.00000   0.00000   0.00000   0.00076   0.00000   0.00000 ...
  -0.00076  -0.00677   0.00000   1.96547   0.00000   0.00000  -0.20637   0.00000   0.00000   0.00000  -0.00239   0.00000 ...
   0.00000   0.00000   0.00000   0.00000   1.96768   0.00000   0.00000  -0.19488   0.00000   0.00000   0.00000   0.00076 ...
   0.00000   0.00000  -0.19488   0.00000   0.00000   1.43907   0.00000   0.00000   0.00000  -0.01881   0.00000   0.00000 ...
  -0.00386   0.07106   0.00000  -0.20637   0.00000   0.00000   1.70329   0.00000   0.00000   0.00000   0.20117   0.00000 ...
   0.00000   0.00000   0.00000   0.00000  -0.19488   0.00000   0.00000   1.43907   0.00000   0.00000   0.00000  -0.01881 ...
   0.00000   0.00000   0.00000   0.00000   0.00000   0.00000   0.00000   0.00000   0.41820   0.00000   0.00000   0.00000 ...
   0.00000   0.00000   0.00076   0.00000   0.00000  -0.01881   0.00000   0.00000   0.00000   0.46323   0.00000   0.00000 ...
  -0.00316   0.05780   0.00000  -0.00239   0.00000   0.00000   0.20117   0.00000   0.00000   0.00000   1.41485   0.00000 ...
   0.00000   0.00000   0.00000   0.00000   0.00076   0.00000   0.00000  -0.01881   0.00000   0.00000   0.00000   0.46323 ...
   ...  only 12  components have been written...


================================================================================

 ----iterations are completed or convergence reached----

 Mean square residual over all n,k,spin=   95.270E-09; max=  16.476E-05
 reduced coordinates (array xred) for    9 atoms
       0.252928488870      0.252928488870      0.247071511130
       0.752928488870      0.752928488870      0.747071511130
       0.217799680120      0.217799680120      0.782200319880
       0.758076211450      0.758076211450      0.241923788550
       0.246005957630      0.759368009320      0.753994042370
       0.759368009320      0.246005957630      0.753994042370
       0.246005957630      0.759368009320      0.240631990680
       0.759368009320      0.246005957630      0.240631990680
       0.007519196785      0.007519196785     -0.007519196785
 rms dE/dt=  2.5409E-04; max dE/dt=  8.8045E-04; dE/dt below (all hartree)
    1      -0.000102675589     -0.000102675589      0.000000000000
    2      -0.000102675589     -0.000102675589      0.000000000000
    3       0.000880449550      0.000880449550      0.000000000000
    4       0.000048234086      0.000048234086      0.000000000000
    5      -0.000046066371     -0.000049941108     -0.000003874737
    6      -0.000049941108     -0.000046066371     -0.000003874737
    7      -0.000042191635     -0.000046066371      0.000003874737
    8      -0.000046066371     -0.000042191635      0.000003874737
    9      -0.000253893057     -0.000253893057      0.000000000000

 cartesian coordinates (angstrom) at end:
    1      2.96839467082533     2.96839467082533     2.93195769072234
    2      8.90518401247727     8.90518401247727     8.72797873963888
    3      5.93678934171444     5.93678934171444     2.52474306084562
    4      5.93678934159480     5.93678934159480     8.78765135649420
    5      8.98451169853312     5.93678934170819     5.82716867447492
    6      5.93678934170819     8.98451169853312     5.82716867447492
    7      5.93678934159451     2.88906698476959     5.82716867447492
    8      2.88906698476959     5.93678934159451     5.82716867447492
    9     -0.00000000000167    -0.00000000000167     0.08716284567477

 cartesian forces (hartree/bohr) at end:
    1     -0.00000000000000     0.00000000000000     0.00001226722349
    2      0.00000000000000    -0.00000000000000     0.00001226722349
    3     -0.00000000000000     0.00000000000000    -0.00007749218424
    4      0.00000000000000    -0.00000000000000    -0.00000151084246
    5      0.00000034537563    -0.00000000000000     0.00000709879718
    6     -0.00000000000000     0.00000034537563     0.00000709879718
    7      0.00000000000000    -0.00000034537563     0.00000709879718
    8     -0.00000034537563     0.00000000000000     0.00000709879718
    9     -0.00000000000000     0.00000000000000     0.00002607339102
 frms,max,avg= 1.6318771E-05 7.7492184E-05   0.000E+00  0.000E+00 -2.893E-06 h/b

 cartesian forces (eV/Angstrom) at end:
    1     -0.00000000000000     0.00000000000000     0.00063080594141
    2      0.00000000000000    -0.00000000000000     0.00063080594141
    3     -0.00000000000000     0.00000000000000    -0.00398480799465
    4      0.00000000000000    -0.00000000000000    -0.00007769063664
    5      0.00001775992749    -0.00000000000000     0.00036503479698
    6     -0.00000000000000     0.00001775992749     0.00036503479698
    7      0.00000000000000    -0.00001775992749     0.00036503479698
    8     -0.00001775992749     0.00000000000000     0.00036503479698
    9     -0.00000000000000     0.00000000000000     0.00134074756054
 frms,max,avg= 8.3914485E-04 3.9848080E-03   0.000E+00  0.000E+00 -1.488E-04 e/A
 length scales= 15.678957360000 15.678957360000 15.865928970000 bohr
              =  8.296946889366  8.296946889366  8.395888004032 angstroms
 prteigrs : about to open file Cs2TiI6o_DS1_EIG
 Fermi (or HOMO) energy (hartree) =  -0.09555   Average Vxc (hartree)=  -0.28115
 Eigenvalues (hartree) for nkpt= 163  k points:
 kpt#   1, nband= 42, wtk=  0.00058, kpt=  0.0000  0.0000  0.0000 (reduced coord)
  -1.91356   -1.10468   -1.10344   -1.10344   -0.85104   -0.85093   -0.61845   -0.51992
  -0.50554   -0.50554   -0.50274   -0.49989   -0.36832   -0.36764   -0.36764   -0.36625
  -0.36625   -0.36625   -0.22996   -0.19960   -0.19831   -0.19831   -0.17608   -0.17608
  -0.17562   -0.16829   -0.16422   -0.13945   -0.13945   -0.12336   -0.11112   -0.11112
  -0.11084   -0.09638   -0.09555   -0.09555   -0.02891   -0.02207   -0.02207    0.05272
   0.06121    0.06515
 prteigrs : prtvol=0 or 1, do not print more k-points.


--- !EnergyTerms
iteration_state     : {dtset: 1, }
comment             : Components of total free energy in Hartree
kinetic             :  4.62711529996872E+01
hartree             :  3.90969915775605E+01
xc                  : -5.63598955127152E+01
Ewald energy        : -1.14035418039456E+02
psp_core            :  1.41210539840683E+01
local_psp           : -1.15174827089118E+02
spherical_terms     :  2.37572785500946E+01
total_energy        : -1.62323663529878E+02
total_energy_eV     : -4.41705151787298E+03
...


--- !EnergyTermsDC
iteration_state     : {dtset: 1, }
comment             : '"Double-counting" decomposition of free energy'
band_energy         : -3.01102996266132E+01
Ewald energy        : -1.14035418039456E+02
psp_core            :  1.41210539840683E+01
xc_dc               : -5.39842175149625E+01
spherical_terms     :  2.16852882654108E+01
total_energy_dc     : -1.62323592931552E+02
total_energy_dc_eV  : -4.41704959679485E+03
...


 Cartesian components of stress tensor (hartree/bohr^3)
  sigma(1 1)= -4.63465741E-06  sigma(3 2)=  9.77506540E-14
  sigma(2 2)= -4.63465741E-06  sigma(3 1)=  9.77504429E-14
  sigma(3 3)= -4.58486405E-06  sigma(2 1)= -1.90863965E-13

-Cartesian components of stress tensor (GPa)         [Pressure=  1.3587E-01 GPa]
- sigma(1 1)= -1.36356306E-01  sigma(3 2)=  2.87592305E-09
- sigma(2 2)= -1.36356306E-01  sigma(3 1)=  2.87591684E-09
- sigma(3 3)= -1.34891335E-01  sigma(2 1)= -5.61541076E-09

================================================================================
== DATASET  2 ==================================================================
-   mpi_nproc: 4, omp_nthreads: -1 (-1 if OMP is not activated)


--- !DatasetInfo
iteration_state: {dtset: 2, }
dimensions: {natom: 9, nkpt: 163, mband: 42, nsppol: 1, nspinor: 1, nspden: 1, mpw: 8216, }
cutoff_energies: {ecut:  16.0, pawecutdg:  40.0, }
electrons: {nelect:   7.20000000E+01, charge:   0.00000000E+00, occopt:   1.00000000E+00, tsmear:   1.00000000E-02, }
meta: {optdriver: 0, ionmov: 0, optcell: 0, iscf: 17, paral_kgb: 0, }
...

 Real(R)+Recip(G) space primitive vectors, cartesian coordinates (Bohr,Bohr^-1):
 R(1)=  0.0000000 11.1062385 10.8409787  G(1)= -0.0450197  0.0450197  0.0461213
 R(2)= 11.1062385  0.0000000 10.8409787  G(2)=  0.0450197 -0.0450197  0.0461213
 R(3)= 11.1062385 11.1062385  0.0000000  G(3)=  0.0450197  0.0450197 -0.0461213
 Unit cell volume ucvol=  2.6744377E+03 bohr^3
 Angles (23,13,12)=  5.96018329E+01  5.96018329E+01  6.07963342E+01 degrees

 Coarse grid specifications (used for wave-functions):

 getcut: wavevector=  0.0000  0.0000  0.0000  ngfft=  60  60  60
         ecut(hartree)=     16.000   => boxcut(ratio)=   2.12151

 Fine grid specifications (used for densities):

 getcut: wavevector=  0.0000  0.0000  0.0000  ngfft=  90  90  90
         ecut(hartree)=     40.000   => boxcut(ratio)=   2.01290

--- Pseudopotential description ------------------------------------------------
- pspini: atom type   1  psp file is ../../../Psps_for_tests/ATOMICDATA/Cs.GGA_PBE-JTH.xml
- pspatm: opening atomic psp file    ../../../Psps_for_tests/ATOMICDATA/Cs.GGA_PBE-JTH.xml
- pspatm : Reading pseudopotential header in XML form from ../../../Psps_for_tests/ATOMICDATA/Cs.GGA_PBE-JTH.xml
 Pseudopotential format is: paw10
 basis_size (lnmax)=  6 (lmn_size= 18), orbitals=   0   0   1   1   2   2
 Spheres core radius: rc_sph= 2.20660278
 1 radial meshes are used:
  - mesh 1: r(i)=AA*[exp(BB*(i-1))-1], size=1500 , AA= 0.15922E-03 BB= 0.87573E-02
 Shapefunction is SIN type: shapef(r)=[sin(pi*r/rshp)/(pi*r/rshp)]**2
 Radius for shape functions =  2.00394208
 mmax= 1500
 Radial grid used for partial waves is grid 1
 Radial grid used for projectors is grid 1
 Radial grid used for (t)core density is grid 1
 Radial grid used for Vloc is grid 1
 Radial grid used for pseudo valence density is grid 1
 Mesh size for Vloc has been set to 1341 to avoid numerical noise.
 Compensation charge density is not taken into account in XC energy/potential
 pspatm: atomic psp has been read  and splines computed

- pspini: atom type   2  psp file is ../../../Psps_for_tests/ATOMICDATA/I.GGA_PBE-JTH.xml
- pspatm: opening atomic psp file    ../../../Psps_for_tests/ATOMICDATA/I.GGA_PBE-JTH.xml
- pspatm : Reading pseudopotential header in XML form from ../../../Psps_for_tests/ATOMICDATA/I.GGA_PBE-JTH.xml
 Pseudopotential format is: paw10
 basis_size (lnmax)=  4 (lmn_size=  8), orbitals=   0   0   1   1
 Spheres core radius: rc_sph= 2.30022271
 1 radial meshes are used:
  - mesh 1: r(i)=AA*[exp(BB*(i-1))-1], size=2000 , AA= 0.12610E-03 BB= 0.66836E-02
 Shapefunction is SIN type: shapef(r)=[sin(pi*r/rshp)/(pi*r/rshp)]**2
 Radius for shape functions =  2.10879093
 mmax= 2000
 Radial grid used for partial waves is grid 1
 Radial grid used for projectors is grid 1
 Radial grid used for (t)core density is grid 1
 Radial grid used for Vloc is grid 1
 Radial grid used for pseudo valence density is grid 1
 Mesh size for Vloc has been set to 1792 to avoid numerical noise.
 Compensation charge density is not taken into account in XC energy/potential
 pspatm: atomic psp has been read  and splines computed

- pspini: atom type   3  psp file is ../../../Psps_for_tests/ATOMICDATA/Zr.GGA_PBE-JTH.xml
- pspatm: opening atomic psp file    ../../../Psps_for_tests/ATOMICDATA/Zr.GGA_PBE-JTH.xml
- pspatm : Reading pseudopotential header in XML form from ../../../Psps_for_tests/ATOMICDATA/Zr.GGA_PBE-JTH.xml
 Pseudopotential format is: paw10
 basis_size (lnmax)=  6 (lmn_size= 18), orbitals=   0   0   1   1   2   2
 Spheres core radius: rc_sph= 2.21000000
 1 radial meshes are used:
  - mesh 1: r(i)=AA*[exp(BB*(i-1))-1], size= 941 , AA= 0.35256E-03 BB= 0.14102E-01
 Shapefunction is BESSEL type: shapef(r,l)=aa(1,l)*jl(q(1,l)*r)+aa(2,l)*jl(q(2,l)*r)
 Radius for shape functions =  2.21000000
 mmax=  941
 Radial grid used for partial waves is grid 1
 Radial grid used for projectors is grid 1
 Radial grid used for (t)core density is grid 1
 Radial grid used for Vloc is grid 1
 Radial grid used for pseudo valence density is grid 1
 Mesh size for Vloc has been set to  777 to avoid numerical noise.
 Compensation charge density is not taken into account in XC energy/potential
 pspatm: atomic psp has been read  and splines computed

- pspini: atom type   4  psp file is ../../../Psps_for_tests/ATOMICDATA/Cl.GGA_PBE-JTH.xml
- pspatm: opening atomic psp file    ../../../Psps_for_tests/ATOMICDATA/Cl.GGA_PBE-JTH.xml
- pspatm : Reading pseudopotential header in XML form from ../../../Psps_for_tests/ATOMICDATA/Cl.GGA_PBE-JTH.xml
 Pseudopotential format is: paw10
 basis_size (lnmax)=  4 (lmn_size=  8), orbitals=   0   0   1   1
 Spheres core radius: rc_sph= 1.80315674
 1 radial meshes are used:
  - mesh 1: r(i)=AA*[exp(BB*(i-1))-1], size=1400 , AA= 0.50355E-03 BB= 0.85603E-02
 Shapefunction is SIN type: shapef(r)=[sin(pi*r/rshp)/(pi*r/rshp)]**2
 Radius for shape functions =  1.61320365
 mmax= 1400
 Radial grid used for partial waves is grid 1
 Radial grid used for projectors is grid 1
 Radial grid used for (t)core density is grid 1
 Radial grid used for Vloc is grid 1
 Radial grid used for pseudo valence density is grid 1
 Mesh size for Vloc has been set to 1238 to avoid numerical noise.
 Compensation charge density is not taken into account in XC energy/potential
 pspatm: atomic psp has been read  and splines computed

--------------------------------------------------------------------------------

_setup2: Arith. and geom. avg. npw (full set) are    8175.495    8175.484

================================================================================

--- !BeginCycle
iteration_state: {dtset: 2, }
solver: {iscf: 17, nstep: 2500, nline: 4, wfoptalg: 10, }
tolerances: {toldfe: 1.00E-08, }
...

     iter   Etot(hartree)      deltaE(h)  residm     nres2
 ETOT  1  -162.12638122884    -1.621E+02 2.029E-01 1.533E+01
 ETOT  2  -162.32645530715    -2.001E-01 1.663E-02 4.072E+00
 ETOT  3  -162.32222496256     4.230E-03 4.802E-03 8.480E-01
 ETOT  4  -162.32305694096    -8.320E-04 3.409E-03 9.175E-02
 ETOT  5  -162.32249494636     5.620E-04 1.307E-03 7.322E-03
 ETOT  6  -162.32256789763    -7.295E-05 1.455E-03 1.731E-03
 ETOT  7  -162.32256694556     9.521E-07 5.090E-04 6.539E-04
 ETOT  8  -162.32256899116    -2.046E-06 1.250E-03 9.136E-05
 ETOT  9  -162.32256921336    -2.222E-07 3.490E-04 5.274E-05
 ETOT 10  -162.32256924372    -3.036E-08 3.592E-04 3.427E-06
 ETOT 11  -162.32256928989    -4.617E-08 1.811E-04 3.090E-06
 ETOT 12  -162.32256928557     4.316E-09 1.463E-04 1.651E-07
 ETOT 13  -162.32256928750    -1.923E-09 9.818E-05 1.147E-07

 At SCF step   13, etot is converged : 
  for the second time, diff in etot=  1.923E-09 < toldfe=  1.000E-08

 Cartesian components of stress tensor (hartree/bohr^3)
  sigma(1 1)= -1.38974555E-05  sigma(3 2)=  2.00157603E-14
  sigma(2 2)= -1.38974555E-05  sigma(3 1)=  2.00145414E-14
  sigma(3 3)= -1.38857240E-05  sigma(2 1)= -3.90734596E-14


--- !ResultsGS
iteration_state: {dtset: 2, }
comment   : Summary of ground state results
lattice_vectors:
- [  0.0000000,  11.1062385,  10.8409787, ]
- [ 11.1062385,   0.0000000,  10.8409787, ]
- [ 11.1062385,  11.1062385,   0.0000000, ]
lattice_lengths: [  15.52016,   15.52016,   15.70659, ]
lattice_angles: [ 59.602,  59.602,  60.796, ] # degrees, (23, 13, 12)
lattice_volume:   2.6744377E+03
convergence: {deltae: -1.923E-09, res2:  1.147E-07, residm:  9.818E-05, diffor: null, }
etotal    :  -1.62322569E+02
entropy   :   0.00000000E+00
fermie    :  -9.10375646E-02
cartesian_stress_tensor: # hartree/bohr^3
- [ -1.38974555E-05,  -3.90734596E-14,   2.00145414E-14, ]
- [ -3.90734596E-14,  -1.38974555E-05,   2.00157603E-14, ]
- [  2.00145414E-14,   2.00157603E-14,  -1.38857240E-05, ]
pressure_GPa:   4.0876E-01
xred      :
- [  2.5284E-01,   2.5284E-01,   2.4716E-01, Cs]
- [  7.5284E-01,   7.5284E-01,   7.4716E-01, Cs]
- [  2.2041E-01,   2.2041E-01,   7.7959E-01, Cl]
- [  7.5631E-01,   7.5631E-01,   2.4369E-01,  I]
- [  2.4778E-01,   7.5708E-01,   7.5222E-01,  I]
- [  7.5708E-01,   2.4778E-01,   7.5222E-01,  I]
- [  2.4778E-01,   7.5708E-01,   2.4292E-01,  I]
- [  7.5708E-01,   2.4778E-01,   2.4292E-01,  I]
- [  7.8887E-03,   7.8887E-03,  -7.8887E-03, Zr]
cartesian_forces: # hartree/bohr
- [ -7.08016380E-23,   2.62373329E-23,  -2.86089389E-05, ]
- [  1.14946094E-21,  -1.19402524E-21,  -2.86089389E-05, ]
- [ -9.79722904E-23,   5.34079853E-23,   4.32799253E-05, ]
- [ -4.26785676E-22,   3.82221371E-22,  -1.18415897E-05, ]
- [ -1.01531205E-05,   3.65329628E-17,   5.12322481E-06, ]
- [  3.65341668E-17,  -1.01531205E-05,   5.12322481E-06, ]
- [ -3.65323973E-17,   1.01531205E-05,   5.12322481E-06, ]
- [  1.01531205E-05,  -3.65319072E-17,   5.12322481E-06, ]
- [ -1.24954684E-21,   1.20498253E-21,   5.28664307E-06, ]
force_length_stats: {min:   5.28664307E-06, max:   4.32799253E-05, mean:   1.81239949E-05, }
...

 Integrated electronic density in atomic spheres:
 ------------------------------------------------
 Atom  Sphere_radius  Integrated_density
    1        2.20660          5.36635742
    2        2.20660          5.36635742
    3        1.80316          4.36256256
    4        2.30022          4.01228820
    5        2.30022          4.01413537
    6        2.30022          4.01413537
    7        2.30022          4.01413537
    8        2.30022          4.01413537
    9        2.21000          8.82446363

 PAW TEST:
 ==== Compensation charge inside spheres ============
 The following values must be close to each other ...
 Compensation charge over spherical meshes =     -5.341196090474970
[...]
                       5.4786199420E+00  2.8182194303E+00  5.2793884427E+00
                       2.8182194303E+00  5.4786199420E+00  5.2793884427E+00
                      -1.8885555255E-12 -1.8885555255E-12  1.3390543438E-01
           xangst10    2.7108129415E+00  2.7108129415E+00  2.6155013482E+00
                       8.1324388244E+00  8.1324388244E+00  7.8370109914E+00
                       5.4216258829E+00  5.4216258829E+00  2.5689894630E+00
                       5.4216258829E+00  5.4216258829E+00  7.7715288041E+00
                       8.0396703732E+00  5.4216258829E+00  5.2090326298E+00
                       5.4216258829E+00  8.0396703732E+00  5.2090326298E+00
                       5.4216258829E+00  2.8035813927E+00  5.2090326298E+00
                       2.8035813927E+00  5.4216258829E+00  5.2090326298E+00
                       5.8798172909E-13  5.8798172909E-13  1.4291601968E-01
            xcart1     5.6094529822E+00  5.6094529822E+00  5.5405970687E+00
                       1.6828358947E+01  1.6828358947E+01  1.6493489512E+01
                       1.1218905964E+01  1.1218905964E+01  4.7710729409E+00
                       1.1218905964E+01  1.1218905964E+01  1.6606254415E+01
                       1.6978266548E+01  1.1218905964E+01  1.1011752925E+01
                       1.1218905964E+01  1.6978266548E+01  1.1011752925E+01
                       1.1218905964E+01  5.4595453808E+00  1.1011752925E+01
                       5.4595453808E+00  1.1218905964E+01  1.1011752925E+01
                      -3.1465384172E-12 -3.1465384172E-12  1.6471390729E-01
            xcart2     5.5531192370E+00  5.5531192370E+00  5.4820373482E+00
                       1.6659357711E+01  1.6659357711E+01  1.6323016095E+01
                       1.1106238474E+01  1.1106238474E+01  4.7788257742E+00
                       1.1106238474E+01  1.1106238474E+01  1.6398341320E+01
                       1.6762656521E+01  1.1106238474E+01  1.0893641573E+01
                       1.1106238474E+01  1.6762656521E+01  1.0893641573E+01
                       1.1106238474E+01  5.4498204269E+00  1.0893641573E+01
                       5.4498204269E+00  1.1106238474E+01  1.0893641573E+01
                      -6.3054421516E-13 -6.3054421516E-13  1.7104314538E-01
            xcart3     5.4971470521E+00  5.4971470521E+00  5.4220481699E+00
                       1.6491441156E+01  1.6491441156E+01  1.6149702146E+01
                       1.0994294104E+01  1.0994294104E+01  4.7867872697E+00
                       1.0994294104E+01  1.0994294104E+01  1.6190129476E+01
                       1.6550189401E+01  1.0994294104E+01  1.0773628711E+01
                       1.0994294104E+01  1.6550189401E+01  1.0773628711E+01
                       1.0994294104E+01  5.4383988077E+00  1.0773628711E+01
                       5.4383988077E+00  1.0994294104E+01  1.0773628711E+01
                      -3.9112225613E-12 -3.9112225613E-12  1.7804990227E-01
            xcart4     5.4420977692E+00  5.4420977692E+00  5.3580839545E+00
                       1.6326293308E+01  1.6326293308E+01  1.5968814429E+01
                       1.0884195538E+01  1.0884195538E+01  4.7964969255E+00
                       1.0884195538E+01  1.0884195538E+01  1.5978383757E+01
                       1.6343212692E+01  1.0884195538E+01  1.0649263259E+01
                       1.0884195538E+01  1.6343212692E+01  1.0649263259E+01
                       1.0884195538E+01  5.4251783849E+00  1.0649263259E+01
                       5.4251783849E+00  1.0884195538E+01  1.0649263259E+01
                      -2.3000446370E-12 -2.3000446370E-12  1.8701169520E-01
            xcart5     5.3883608499E+00  5.3883608499E+00  5.2927889050E+00
                       1.6165082550E+01  1.6165082550E+01  1.5781490630E+01
                       1.0776721700E+01  1.0776721700E+01  4.8050343010E+00
                       1.0776721700E+01  1.0776721700E+01  1.5758852473E+01
                       1.6143389681E+01  1.0776721700E+01  1.0518827072E+01
                       1.0776721700E+01  1.6143389681E+01  1.0518827072E+01
                       1.0776721700E+01  5.4100537190E+00  1.0518827072E+01
                       5.4100537190E+00  1.0776721700E+01  1.0518827072E+01
                      -3.6213900417E-12 -3.6213900417E-12  1.9613920341E-01
            xcart6     5.3352323828E+00  5.3352323828E+00  5.2228673037E+00
                       1.6005697148E+01  1.6005697148E+01  1.5587195179E+01
                       1.0670464765E+01  1.0670464765E+01  4.8168331570E+00
                       1.0670464766E+01  1.0670464766E+01  1.5539190844E+01
                       1.5948240586E+01  1.0670464765E+01  1.0384866422E+01
                       1.0670464765E+01  1.5948240586E+01  1.0384866422E+01
                       1.0670464766E+01  5.3926889450E+00  1.0384866422E+01
                       5.3926889450E+00  1.0670464766E+01  1.0384866422E+01
                       1.8752087377E-12  1.8752087377E-12  2.0907083140E-01
            xcart7     5.2817721874E+00  5.2817721874E+00  5.1552786741E+00
                       1.5845316562E+01  1.5845316562E+01  1.5396547788E+01
                       1.0563544375E+01  1.0563544375E+01  4.8264740612E+00
                       1.0563544375E+01  1.0563544375E+01  1.5323794572E+01
                       1.5754214272E+01  1.0563544375E+01  1.0251650531E+01
                       1.0563544375E+01  1.5754214272E+01  1.0251650531E+01
                       1.0563544375E+01  5.3728744773E+00  1.0251650531E+01
                       5.3728744773E+00  1.0563544375E+01  1.0251650531E+01
                      -5.9174871361E-12 -5.9174871361E-12  2.2145569552E-01
            xcart8     5.2287417842E+00  5.2287417842E+00  5.0850451671E+00
                       1.5686225353E+01  1.5686225353E+01  1.5201616662E+01
                       1.0457483569E+01  1.0457483569E+01  4.8366374028E+00
                       1.0457483568E+01  1.0457483568E+01  1.5108750653E+01
                       1.5564149436E+01  1.0457483569E+01  1.0116099834E+01
                       1.0457483569E+01  1.5564149436E+01  1.0116099834E+01
                       1.0457483568E+01  5.3508177014E+00  1.0116099834E+01
                       5.3508177014E+00  1.0457483568E+01  1.0116099834E+01
                      -4.4356320457E-12 -4.4356320457E-12  2.3612273947E-01
            xcart9     5.1765456383E+00  5.1765456383E+00  5.0119048623E+00
                       1.5529636915E+01  1.5529636915E+01  1.5000590515E+01
                       1.0353091277E+01  1.0353091277E+01  4.8473069461E+00
                       1.0353091277E+01  1.0353091277E+01  1.4890245072E+01
                       1.5380519648E+01  1.0353091277E+01  9.9765983059E+00
                       1.0353091277E+01  1.5380519648E+01  9.9765983059E+00
                       1.0353091277E+01  5.3256629056E+00  9.9765983059E+00
                       5.3256629056E+00  1.0353091277E+01  9.9765983059E+00
                      -3.5688527299E-12 -3.5688527299E-12  2.5304459868E-01
            xcart10    5.1226940568E+00  5.1226940568E+00  4.9425812482E+00
                       1.5368082171E+01  1.5368082171E+01  1.4809804474E+01
                       1.0245388114E+01  1.0245388114E+01  4.8546865233E+00
                       1.0245388114E+01  1.0245388114E+01  1.4686061074E+01
                       1.5192775204E+01  1.0245388114E+01  9.8436450876E+00
                       1.0245388114E+01  1.5192775204E+01  9.8436450876E+00
                       1.0245388114E+01  5.2980010234E+00  9.8436450876E+00
                       5.2980010234E+00  1.0245388114E+01  9.8436450876E+00
                       1.1111244391E-12  1.1111244391E-12  2.7007213720E-01
             xred1     2.5292848887E-01  2.5292848887E-01  2.4707151113E-01
                       7.5292848887E-01  7.5292848887E-01  7.4707151113E-01
                       2.1779968012E-01  2.1779968012E-01  7.8220031988E-01
                       7.5807621145E-01  7.5807621145E-01  2.4192378855E-01
                       2.4600595763E-01  7.5936800932E-01  7.5399404237E-01
                       7.5936800932E-01  2.4600595763E-01  7.5399404237E-01
                       2.4600595763E-01  7.5936800932E-01  2.4063199068E-01
                       7.5936800932E-01  2.4600595763E-01  2.4063199068E-01
                       7.5191967851E-03  7.5191967851E-03 -7.5191967851E-03
             xred2     2.5283867242E-01  2.5283867242E-01  2.4716132758E-01
                       7.5283867242E-01  7.5283867242E-01  7.4716132758E-01
                       2.2040564260E-01  2.2040564260E-01  7.7959435740E-01
                       7.5631276948E-01  7.5631276948E-01  2.4368723052E-01
                       2.4777839197E-01  7.5707936371E-01  7.5222160803E-01
                       7.5707936371E-01  2.4777839197E-01  7.5222160803E-01
                       2.4777839197E-01  7.5707936371E-01  2.4292063629E-01
                       7.5707936371E-01  2.4777839197E-01  2.4292063629E-01
                       7.8887316992E-03  7.8887316992E-03 -7.8887316992E-03
             xred3     2.5271360272E-01  2.5271360272E-01  2.4728639728E-01
                       7.5271360272E-01  7.5271360272E-01  7.4728639728E-01
                       2.2310503678E-01  2.2310503678E-01  7.7689496322E-01
                       7.5459786045E-01  7.5459786045E-01  2.4540213955E-01
                       2.4947105339E-01  7.5481457466E-01  7.5052894661E-01
                       7.5481457466E-01  2.4947105339E-01  7.5052894661E-01
                       2.4947105339E-01  7.5481457466E-01  2.4518542534E-01
                       7.5481457466E-01  2.4947105339E-01  2.4518542534E-01
                       8.2986411880E-03  8.2986411880E-03 -8.2986411880E-03
             xred4     2.5248421715E-01  2.5248421715E-01  2.4751578285E-01
                       7.5248421715E-01  7.5248421715E-01  7.4751578285E-01
                       2.2602105185E-01  2.2602105185E-01  7.7397894815E-01
                       7.5293514408E-01  7.5293514408E-01  2.4706485592E-01
                       2.5103850054E-01  7.5259299157E-01  7.4896149946E-01
                       7.5259299157E-01  2.5103850054E-01  7.4896149946E-01
                       2.5103850054E-01  7.5259299157E-01  2.4740700843E-01
                       7.5259299157E-01  2.5103850054E-01  2.4740700843E-01
                       8.8123855210E-03  8.8123855210E-03 -8.8123855210E-03
             xred5     2.5230905805E-01  2.5230905805E-01  2.4769094195E-01
                       7.5230905805E-01  7.5230905805E-01  7.4769094195E-01
                       2.2905762919E-01  2.2905762919E-01  7.7094237081E-01
                       7.5122988935E-01  7.5122988935E-01  2.4877011065E-01
                       2.5244255443E-01  7.5042961676E-01  7.4755744557E-01
                       7.5042961676E-01  2.5244255443E-01  7.4755744557E-01
                       2.5244255443E-01  7.5042961676E-01  2.4957038324E-01
                       7.5042961676E-01  2.5244255443E-01  2.4957038324E-01
                       9.3500229366E-03  9.3500229366E-03 -9.3500229366E-03
             xred6     2.5196362786E-01  2.5196362786E-01  2.4803637214E-01
                       7.5196362786E-01  7.5196362786E-01  7.4803637214E-01
                       2.3237556814E-01  2.3237556814E-01  7.6762443186E-01
                       7.4964778373E-01  7.4964778373E-01  2.5035221627E-01
                       2.5368314638E-01  7.4829851099E-01  7.4631685362E-01
                       7.4829851099E-01  2.5368314638E-01  7.4631685362E-01
                       2.5368314638E-01  7.4829851099E-01  2.5170148901E-01
                       7.4829851099E-01  2.5368314638E-01  2.5170148901E-01
                       1.0086077646E-02  1.0086077646E-02 -1.0086077646E-02
             xred7     2.5169139765E-01  2.5169139765E-01  2.4830860235E-01
                       7.5169139765E-01  7.5169139765E-01  7.4830860235E-01
                       2.3563847446E-01  2.3563847446E-01  7.6436152554E-01
                       7.4813943471E-01  7.4813943471E-01  2.5186056529E-01
                       2.5481895035E-01  7.4619473421E-01  7.4518104965E-01
                       7.4619473421E-01  2.5481895035E-01  7.4518104965E-01
                       2.5481895035E-01  7.4619473421E-01  2.5380526579E-01
                       7.4619473421E-01  2.5481895035E-01  2.5380526579E-01
                       1.0811926386E-02  1.0811926386E-02 -1.0811926386E-02
             xred8     2.5132255377E-01  2.5132255377E-01  2.4867744623E-01
                       7.5132255377E-01  7.5132255377E-01  7.4867744623E-01
                       2.3904528353E-01  2.3904528353E-01  7.6095471647E-01
                       7.4673275727E-01  7.4673275727E-01  2.5326724273E-01
                       2.5581346176E-01  7.4413991560E-01  7.4418653824E-01
                       7.4413991560E-01  2.5581346176E-01  7.4418653824E-01
                       2.5581346176E-01  7.4413991560E-01  2.5586008440E-01
                       7.4413991560E-01  2.5581346176E-01  2.5586008440E-01
                       1.1670096909E-02  1.1670096909E-02 -1.1670096909E-02
             xred9     2.5087909645E-01  2.5087909645E-01  2.4912090355E-01
                       7.5087909645E-01  7.5087909645E-01  7.4912090355E-01
                       2.4263987850E-01  2.4263987850E-01  7.5736012150E-01
                       7.4535557483E-01  7.4535557483E-01  2.5464442517E-01
                       2.5659652990E-01  7.4219336631E-01  7.4340347010E-01
                       7.4219336631E-01  2.5659652990E-01  7.4340347010E-01
                       2.5659652990E-01  7.4219336631E-01  2.5780663369E-01
                       7.4219336631E-01  2.5659652990E-01  2.5780663369E-01
                       1.2666561322E-02  1.2666561322E-02 -1.2666561322E-02
             xred10    2.5045451669E-01  2.5045451669E-01  2.4954548331E-01
                       7.5045451669E-01  7.5045451669E-01  7.4954548331E-01
                       2.4600064335E-01  2.4600064335E-01  7.5399935665E-01
                       7.4418408996E-01  7.4418408996E-01  2.5581591004E-01
                       2.5736063807E-01  7.4024982054E-01  7.4263936193E-01
                       7.4024982054E-01  2.5736063807E-01  7.4263936193E-01
                       2.5736063807E-01  7.4024982054E-01  2.5975017946E-01
                       7.4024982054E-01  2.5736063807E-01  2.5975017946E-01
                       1.3685316072E-02  1.3685316072E-02 -1.3685316072E-02
            znucl       55.00000   53.00000   40.00000   17.00000

================================================================================


- Timing analysis has been suppressed with timopt=0



================================================================================

 Suggested references for the acknowledgment of ABINIT usage.

 The users of ABINIT have little formal obligations with respect to the ABINIT group
 (those specified in the GNU General Public License, http://www.gnu.org/copyleft/gpl.txt).
 However, it is common practice in the scientific literature,
 to acknowledge the efforts of people that have made the research possible.
 In this spirit, please find below suggested citations of work written by ABINIT developers,
 corresponding to implementations inside of ABINIT that you have used in the present run.
 Note also that it will be of great value to readers of publications presenting these results,
 to read papers enabling them to understand the theoretical formalism and details
 of the ABINIT implementation.
 For information on why they are suggested, see also https://docs.abinit.org/theory/acknowledgments.
-
- [1] Implementation of the Projector Augmented-Wave Method in the ABINIT code.
- M. Torrent, F. Jollet, F. Bottin, G. Zerah, and X. Gonze Comput. Mat. Science 42, 337, (2008).
- Comment: PAW calculations. Strong suggestion to cite this paper.
- DOI and bibtex: see https://docs.abinit.org/theory/bibliography/#torrent2008
-
- [2] Libxc: A library of exchange and correlation functionals for density functional theory.
- M.A.L. Marques, M.J.T. Oliveira, T. Burnus, Computer Physics Communications 183, 2227 (2012).
- Comment: to be cited when LibXC is used (negative value of ixc)
- Strong suggestion to cite this paper.
- DOI and bibtex: see https://docs.abinit.org/theory/bibliography/#marques2012
-
- [3] The Abinit project: Impact, environment and recent developments.
- Computer Phys. Comm. 248, 107042 (2020).
- X.Gonze, B. Amadon, G. Antonius, F.Arnardi, L.Baguet, J.-M.Beuken,
- J.Bieder, F.Bottin, J.Bouchet, E.Bousquet, N.Brouwer, F.Bruneval,
- G.Brunin, T.Cavignac, J.-B. Charraud, Wei Chen, M.Cote, S.Cottenier,
- J.Denier, G.Geneste, Ph.Ghosez, M.Giantomassi, Y.Gillet, O.Gingras,
- D.R.Hamann, G.Hautier, Xu He, N.Helbig, N.Holzwarth, Y.Jia, F.Jollet,
- W.Lafargue-Dit-Hauret, K.Lejaeghere, M.A.L.Marques, A.Martin, C.Martins,
- H.P.C. Miranda, F.Naccarato, K. Persson, G.Petretto, V.Planes, Y.Pouillon,
- S.Prokhorenko, F.Ricci, G.-M.Rignanese, A.H.Romero, M.M.Schmitt, M.Torrent,
- M.J.van Setten, B.Van Troeye, M.J.Verstraete, G.Zerah and J.W.Zwanzig
- Comment: the fifth generic paper describing the ABINIT project.
- Note that a version of this paper, that is not formatted for Computer Phys. Comm. 
- is available at https://www.abinit.org/sites/default/files/ABINIT20.pdf .
- The licence allows the authors to put it on the Web.
- DOI and bibtex: see https://docs.abinit.org/theory/bibliography/#gonze2020
-
- [4] ABINIT: Overview, and focus on selected capabilities
- J. Chem. Phys. 152, 124102 (2020).
- A. Romero, D.C. Allan, B. Amadon, G. Antonius, T. Applencourt, L.Baguet,
- J.Bieder, F.Bottin, J.Bouchet, E.Bousquet, F.Bruneval,
- G.Brunin, D.Caliste, M.Cote,
- J.Denier, C. Dreyer, Ph.Ghosez, M.Giantomassi, Y.Gillet, O.Gingras,
- D.R.Hamann, G.Hautier, F.Jollet, G. Jomard,
- A.Martin, 
- H.P.C. Miranda, F.Naccarato, G.Petretto, N.A. Pike, V.Planes,
- S.Prokhorenko, T. Rangel, F.Ricci, G.-M.Rignanese, M.Royo, M.Stengel, M.Torrent,
- M.J.van Setten, B.Van Troeye, M.J.Verstraete, J.Wiktor, J.W.Zwanziger, and X.Gonze.
- Comment: a global overview of ABINIT, with focus on selected capabilities .
- Note that a version of this paper, that is not formatted for J. Chem. Phys 
- is available at https://www.abinit.org/sites/default/files/ABINIT20_JPC.pdf .
- The licence allows the authors to put it on the Web.
- DOI and bibtex: see https://docs.abinit.org/theory/bibliography/#romero2020
-
- [5] Recent developments in the ABINIT software package.
- Computer Phys. Comm. 205, 106 (2016).
- X.Gonze, F.Jollet, F.Abreu Araujo, D.Adams, B.Amadon, T.Applencourt,
- C.Audouze, J.-M.Beuken, J.Bieder, A.Bokhanchuk, E.Bousquet, F.Bruneval
- D.Caliste, M.Cote, F.Dahm, F.Da Pieve, M.Delaveau, M.Di Gennaro,
- B.Dorado, C.Espejo, G.Geneste, L.Genovese, A.Gerossier, M.Giantomassi,
- Y.Gillet, D.R.Hamann, L.He, G.Jomard, J.Laflamme Janssen, S.Le Roux,
- A.Levitt, A.Lherbier, F.Liu, I.Lukacevic, A.Martin, C.Martins,
- M.J.T.Oliveira, S.Ponce, Y.Pouillon, T.Rangel, G.-M.Rignanese,
- A.H.Romero, B.Rousseau, O.Rubel, A.A.Shukri, M.Stankovski, M.Torrent,
- M.J.Van Setten, B.Van Troeye, M.J.Verstraete, D.Waroquier, J.Wiktor,
- B.Xu, A.Zhou, J.W.Zwanziger.
- Comment: the fourth generic paper describing the ABINIT project.
- Note that a version of this paper, that is not formatted for Computer Phys. Comm. 
- is available at https://www.abinit.org/sites/default/files/ABINIT16.pdf .
- The licence allows the authors to put it on the Web.
- DOI and bibtex: see https://docs.abinit.org/theory/bibliography/#gonze2016
-
- Proc.   0 individual time (sec): cpu=      17811.9  wall=      17940.3

================================================================================

 Calculation completed.
.Delivered   0 WARNINGs and   1 COMMENTs to log file.
+Overall time at end (sec) : cpu=      71262.8  wall=      71761.1
