
.Version 9.2.2 of ABINIT 
.(MPI version, prepared for a x86_64_linux_gnu9.3 computer) 

.Copyright (C) 1998-2020 ABINIT group . 
 ABINIT comes with ABSOLUTELY NO WARRANTY.
 It is free software, and you are welcome to redistribute it
 under certain conditions (GNU General Public License,
 see ~abinit/COPYING or http://www.gnu.org/copyleft/gpl.txt).

 ABINIT is a project of the Universite Catholique de Louvain,
 Corning Inc. and other collaborators, see ~abinit/doc/developers/contributors.txt .
 Please read https://docs.abinit.org/theory/acknowledgments for suggested
 acknowledgments of the ABINIT effort.
 For more information, see https://www.abinit.org .

.Starting date : Sat 10 Dec 2022.
- ( at 19h13 )
  
- The starting date is more than 2 years after the initial release
- of this version of ABINIT, namely Nov 2020.
- Note that the use beyond 3 years after the release will not be supported.
- Action: please, switch to a more recent version of ABINIT.

- input  file    -> Cs2TiI6.in
- output file    -> Cs2TiI6.out
- root for input  files -> Cs2TiI6i
- root for output files -> Cs2TiI6o

- inpspheads : Reading pseudopotential header in XML form from 
-   ../../../Psps_for_tests/ATOMICDATA/Cs.GGA_PBE-JTH.xml
- inpspheads : Reading pseudopotential header in XML form from 
-   ../../../Psps_for_tests/ATOMICDATA/Cl.GGA_PBE-JTH.xml
- inpspheads : Reading pseudopotential header in XML form from 
-   ../../../Psps_for_tests/ATOMICDATA/Zr.GGA_PBE-JTH.xml

 DATASET    1 : space group Fm -3 m (#225); Bravais cF (face-center cubic)
================================================================================
 Values of the parameters that define the memory need for DATASET  1.
     intxc =       0    ionmov =       0      iscf =      17    lmnmax =      18
     lnmax =       6     mgfft =      54  mpssoang =       3    mqgrid =    3318
     natom =       9  nloc_mem =       2    nspden =       1   nspinor =       1
    nsppol =       1      nsym =      48    n1xccc =       1    ntypat =       3
    occopt =       1   xclevel =       2
-    mband =          42        mffmem =           1         mkmem =          18
       mpw =        6303          nfft =      157464          nkpt =          72
Pmy_natom=         3
 PAW method is used; the additional fine FFT grid is defined by:
   mgfftf=        90    nfftf =    729000
================================================================================
P This job should need less than                     284.202 Mbytes of memory.
  Rough estimation (10% accuracy) of disk space for files :
_ WF disk file :    290.839 Mbytes ; DEN or POT disk file :      5.564 Mbytes.
================================================================================


 DATASET    2 : space group Fm -3 m (#225); Bravais cF (face-center cubic)
================================================================================
 Values of the parameters that define the memory need for DATASET  2.
     intxc =       0    ionmov =       0      iscf =      17    lmnmax =      18
     lnmax =       6     mgfft =      54  mpssoang =       3    mqgrid =    3285
     natom =       9  nloc_mem =       2    nspden =       1   nspinor =       1
    nsppol =       1      nsym =      48    n1xccc =       1    ntypat =       3
    occopt =       1   xclevel =       2
-    mband =          42        mffmem =           1         mkmem =          18
       mpw =        6120          nfft =      157464          nkpt =          72
Pmy_natom=         3
 PAW method is used; the additional fine FFT grid is defined by:
   mgfftf=        90    nfftf =    729000
================================================================================
P This job should need less than                     281.980 Mbytes of memory.
  Rough estimation (10% accuracy) of disk space for files :
_ WF disk file :    282.395 Mbytes ; DEN or POT disk file :      5.564 Mbytes.
================================================================================


 DATASET    3 : space group Fm -3 m (#225); Bravais cF (face-center cubic)
================================================================================
 Values of the parameters that define the memory need for DATASET  3.
     intxc =       0    ionmov =       0      iscf =      17    lmnmax =      18
     lnmax =       6     mgfft =      54  mpssoang =       3    mqgrid =    3251
     natom =       9  nloc_mem =       2    nspden =       1   nspinor =       1
    nsppol =       1      nsym =      48    n1xccc =       1    ntypat =       3
    occopt =       1   xclevel =       2
-    mband =          42        mffmem =           1         mkmem =          18
       mpw =        5942          nfft =      157464          nkpt =          72
Pmy_natom=         3
 PAW method is used; the additional fine FFT grid is defined by:
   mgfftf=        80    nfftf =    512000
================================================================================
P This job should need less than                     227.659 Mbytes of memory.
  Rough estimation (10% accuracy) of disk space for files :
_ WF disk file :    274.181 Mbytes ; DEN or POT disk file :      3.908 Mbytes.
================================================================================


 DATASET    4 : space group Fm -3 m (#225); Bravais cF (face-center cubic)
================================================================================
 Values of the parameters that define the memory need for DATASET  4.
     intxc =       0    ionmov =       0      iscf =      17    lmnmax =      18
     lnmax =       6     mgfft =      50  mpssoang =       3    mqgrid =    3218
     natom =       9  nloc_mem =       2    nspden =       1   nspinor =       1
    nsppol =       1      nsym =      48    n1xccc =       1    ntypat =       3
    occopt =       1   xclevel =       2
-    mband =          42        mffmem =           1         mkmem =          18
       mpw =        5767          nfft =      125000          nkpt =          72
Pmy_natom=         3
 PAW method is used; the additional fine FFT grid is defined by:
   mgfftf=        80    nfftf =    512000
================================================================================
P This job should need less than                     220.670 Mbytes of memory.
  Rough estimation (10% accuracy) of disk space for files :
_ WF disk file :    266.106 Mbytes ; DEN or POT disk file :      3.908 Mbytes.
================================================================================


 DATASET    5 : space group Fm -3 m (#225); Bravais cF (face-center cubic)
================================================================================
 Values of the parameters that define the memory need for DATASET  5.
     intxc =       0    ionmov =       0      iscf =      17    lmnmax =      18
     lnmax =       6     mgfft =      50  mpssoang =       3    mqgrid =    3184
     natom =       9  nloc_mem =       2    nspden =       1   nspinor =       1
    nsppol =       1      nsym =      48    n1xccc =       1    ntypat =       3
    occopt =       1   xclevel =       2
-    mband =          42        mffmem =           1         mkmem =          18
       mpw =        5609          nfft =      125000          nkpt =          72
Pmy_natom=         3
 PAW method is used; the additional fine FFT grid is defined by:
   mgfftf=        80    nfftf =    512000
================================================================================
P This job should need less than                     218.741 Mbytes of memory.
  Rough estimation (10% accuracy) of disk space for files :
_ WF disk file :    258.816 Mbytes ; DEN or POT disk file :      3.908 Mbytes.
================================================================================


 DATASET    6 : space group Fm -3 m (#225); Bravais cF (face-center cubic)
================================================================================
 Values of the parameters that define the memory need for DATASET  6.
     intxc =       0    ionmov =       0      iscf =      17    lmnmax =      18
     lnmax =       6     mgfft =      50  mpssoang =       3    mqgrid =    3151
     natom =       9  nloc_mem =       2    nspden =       1   nspinor =       1
    nsppol =       1      nsym =      48    n1xccc =       1    ntypat =       3
    occopt =       1   xclevel =       2
-    mband =          42        mffmem =           1         mkmem =          18
       mpw =        5400          nfft =      125000          nkpt =          72
Pmy_natom=         3
 PAW method is used; the additional fine FFT grid is defined by:
   mgfftf=        80    nfftf =    512000
================================================================================
P This job should need less than                     216.154 Mbytes of memory.
  Rough estimation (10% accuracy) of disk space for files :
_ WF disk file :    249.172 Mbytes ; DEN or POT disk file :      3.908 Mbytes.
================================================================================


 DATASET    7 : space group Fm -3 m (#225); Bravais cF (face-center cubic)
================================================================================
 Values of the parameters that define the memory need for DATASET  7.
     intxc =       0    ionmov =       0      iscf =      17    lmnmax =      18
     lnmax =       6     mgfft =      50  mpssoang =       3    mqgrid =    3117
     natom =       9  nloc_mem =       2    nspden =       1   nspinor =       1
    nsppol =       1      nsym =      48    n1xccc =       1    ntypat =       3
    occopt =       1   xclevel =       2
-    mband =          42        mffmem =           1         mkmem =          18
       mpw =        5237          nfft =      125000          nkpt =          72
Pmy_natom=         3
 PAW method is used; the additional fine FFT grid is defined by:
   mgfftf=        80    nfftf =    512000
================================================================================
P This job should need less than                     214.170 Mbytes of memory.
  Rough estimation (10% accuracy) of disk space for files :
_ WF disk file :    241.651 Mbytes ; DEN or POT disk file :      3.908 Mbytes.
================================================================================


 DATASET    8 : space group Fm -3 m (#225); Bravais cF (face-center cubic)
================================================================================
 Values of the parameters that define the memory need for DATASET  8.
     intxc =       0    ionmov =       0      iscf =      17    lmnmax =      18
     lnmax =       6     mgfft =      48  mpssoang =       3    mqgrid =    3084
     natom =       9  nloc_mem =       2    nspden =       1   nspinor =       1
    nsppol =       1      nsym =      48    n1xccc =       1    ntypat =       3
    occopt =       1   xclevel =       2
-    mband =          42        mffmem =           1         mkmem =          18
       mpw =        5062          nfft =      110592          nkpt =          72
Pmy_natom=         3
 PAW method is used; the additional fine FFT grid is defined by:
   mgfftf=        80    nfftf =    512000
================================================================================
P This job should need less than                     209.892 Mbytes of memory.
  Rough estimation (10% accuracy) of disk space for files :
_ WF disk file :    233.576 Mbytes ; DEN or POT disk file :      3.908 Mbytes.
================================================================================


 DATASET    9 : space group Fm -3 m (#225); Bravais cF (face-center cubic)
================================================================================
 Values of the parameters that define the memory need for DATASET  9.
     intxc =       0    ionmov =       0      iscf =      17    lmnmax =      18
     lnmax =       6     mgfft =      48  mpssoang =       3    mqgrid =    3050
     natom =       9  nloc_mem =       2    nspden =       1   nspinor =       1
    nsppol =       1      nsym =      48    n1xccc =       1    ntypat =       3
    occopt =       1   xclevel =       2
-    mband =          42        mffmem =           1         mkmem =          18
       mpw =        4905          nfft =      110592          nkpt =          72
Pmy_natom=         3
 PAW method is used; the additional fine FFT grid is defined by:
   mgfftf=        80    nfftf =    512000
================================================================================
P This job should need less than                     207.999 Mbytes of memory.
  Rough estimation (10% accuracy) of disk space for files :
_ WF disk file :    226.331 Mbytes ; DEN or POT disk file :      3.908 Mbytes.
================================================================================


 DATASET   10 : space group Fm -3 m (#225); Bravais cF (face-center cubic)
================================================================================
 Values of the parameters that define the memory need for DATASET 10.
     intxc =       0    ionmov =       0      iscf =      17    lmnmax =      18
     lnmax =       6     mgfft =      48  mpssoang =       3    mqgrid =    3017
     natom =       9  nloc_mem =       2    nspden =       1   nspinor =       1
    nsppol =       1      nsym =      48    n1xccc =       1    ntypat =       3
    occopt =       1   xclevel =       2
-    mband =          42        mffmem =           1         mkmem =          18
       mpw =        4756          nfft =      110592          nkpt =          72
Pmy_natom=         3
 PAW method is used; the additional fine FFT grid is defined by:
   mgfftf=        75    nfftf =    421875
================================================================================
P This job should need less than                     184.203 Mbytes of memory.
  Rough estimation (10% accuracy) of disk space for files :
_ WF disk file :    219.456 Mbytes ; DEN or POT disk file :      3.221 Mbytes.
================================================================================

--------------------------------------------------------------------------------
------------- Echo of variables that govern the present computation ------------
--------------------------------------------------------------------------------
-
- outvars: echo of selected default values                                      
-   iomode0 =  0 , fftalg0 =112 , wfoptalg0 = 10
-
- outvars: echo of global parameters not present in the input file              
-  max_nthreads =    0
-
 -outvars: echo values of preprocessed input variables --------
            acell1     1.4272286659E+01  1.4272286659E+01  1.4272286659E+01 Bohr
            acell2     1.4128122148E+01  1.4128122148E+01  1.4128122148E+01 Bohr
            acell3     1.3983957636E+01  1.3983957636E+01  1.3983957636E+01 Bohr
            acell4     1.3839793124E+01  1.3839793124E+01  1.3839793124E+01 Bohr
            acell5     1.3695628612E+01  1.3695628612E+01  1.3695628612E+01 Bohr
            acell6     1.3551464101E+01  1.3551464101E+01  1.3551464101E+01 Bohr
            acell7     1.3407299589E+01  1.3407299589E+01  1.3407299589E+01 Bohr
            acell8     1.3263135077E+01  1.3263135077E+01  1.3263135077E+01 Bohr
            acell9     1.3118970566E+01  1.3118970566E+01  1.3118970566E+01 Bohr
            acell10    1.2974806054E+01  1.2974806054E+01  1.2974806054E+01 Bohr
              amu      1.32905430E+02  3.54527000E+01  9.12240000E+01
           diemac      1.20000000E+01
             ecut      1.60000000E+01 Hartree
-          fftalg         112
           istwfk        2    0    0    0    0    0    3    0    0    0
                         0    0    0    0    0    0    0    0    0    0
                         0    0    0    0    0    0    0    0    0    0
                         0    0    0    0    0    0    0    0    0    0
                         0    0    7    0    0    0    0    0    0    0
                       outvar_i_n : Printing only first  50 k-points.
              ixc     -101130
           jdtset        1    2    3    4    5    6    7    8    9   10
              kpt      0.00000000E+00  0.00000000E+00  0.00000000E+00
                       8.33333333E-02  0.00000000E+00  0.00000000E+00
                       1.66666667E-01  0.00000000E+00  0.00000000E+00
                       2.50000000E-01  0.00000000E+00  0.00000000E+00
                       3.33333333E-01  0.00000000E+00  0.00000000E+00
                       4.16666667E-01  0.00000000E+00  0.00000000E+00
                       5.00000000E-01  0.00000000E+00  0.00000000E+00
                       8.33333333E-02  8.33333333E-02  0.00000000E+00
                       1.66666667E-01  8.33333333E-02  0.00000000E+00
                       2.50000000E-01  8.33333333E-02  0.00000000E+00
                       3.33333333E-01  8.33333333E-02  0.00000000E+00
                       4.16666667E-01  8.33333333E-02  0.00000000E+00
                       5.00000000E-01  8.33333333E-02  0.00000000E+00
                      -4.16666667E-01  8.33333333E-02  0.00000000E+00
                      -3.33333333E-01  8.33333333E-02  0.00000000E+00
                      -2.50000000E-01  8.33333333E-02  0.00000000E+00
                      -1.66666667E-01  8.33333333E-02  0.00000000E+00
                      -8.33333333E-02  8.33333333E-02  0.00000000E+00
                       1.66666667E-01  1.66666667E-01  0.00000000E+00
                       2.50000000E-01  1.66666667E-01  0.00000000E+00
                       3.33333333E-01  1.66666667E-01  0.00000000E+00
                       4.16666667E-01  1.66666667E-01  0.00000000E+00
                       5.00000000E-01  1.66666667E-01  0.00000000E+00
                      -4.16666667E-01  1.66666667E-01  0.00000000E+00
                      -3.33333333E-01  1.66666667E-01  0.00000000E+00
                      -2.50000000E-01  1.66666667E-01  0.00000000E+00
                      -1.66666667E-01  1.66666667E-01  0.00000000E+00
                       2.50000000E-01  2.50000000E-01  0.00000000E+00
                       3.33333333E-01  2.50000000E-01  0.00000000E+00
                       4.16666667E-01  2.50000000E-01  0.00000000E+00
                       5.00000000E-01  2.50000000E-01  0.00000000E+00
                      -4.16666667E-01  2.50000000E-01  0.00000000E+00
                      -3.33333333E-01  2.50000000E-01  0.00000000E+00
                      -2.50000000E-01  2.50000000E-01  0.00000000E+00
                       3.33333333E-01  3.33333333E-01  0.00000000E+00
                       4.16666667E-01  3.33333333E-01  0.00000000E+00
                       5.00000000E-01  3.33333333E-01  0.00000000E+00
                      -4.16666667E-01  3.33333333E-01  0.00000000E+00
                      -3.33333333E-01  3.33333333E-01  0.00000000E+00
                       4.16666667E-01  4.16666667E-01  0.00000000E+00
                       5.00000000E-01  4.16666667E-01  0.00000000E+00
                      -4.16666667E-01  4.16666667E-01  0.00000000E+00
                       5.00000000E-01  5.00000000E-01  0.00000000E+00
                       2.50000000E-01  1.66666667E-01  8.33333333E-02
                       3.33333333E-01  1.66666667E-01  8.33333333E-02
                       4.16666667E-01  1.66666667E-01  8.33333333E-02
                       5.00000000E-01  1.66666667E-01  8.33333333E-02
                      -4.16666667E-01  1.66666667E-01  8.33333333E-02
                       3.33333333E-01  2.50000000E-01  8.33333333E-02
                       4.16666667E-01  2.50000000E-01  8.33333333E-02
                       outvar_i_n : Printing only first  50 k-points.
         kptrlatt       12    0    0      0   12    0      0    0   12
          kptrlen1     1.71267440E+02
          kptrlen2     1.69537466E+02
          kptrlen3     1.67807492E+02
          kptrlen4     1.66077517E+02
          kptrlen5     1.64347543E+02
          kptrlen6     1.62617569E+02
          kptrlen7     1.60887595E+02
          kptrlen8     1.59157621E+02
          kptrlen9     1.57427647E+02
          kptrlen10    1.55697673E+02
P           mkmem          18
            natom           9
            nband          42
           ndtset          10
            ngfft1         54      54      54
            ngfft2         54      54      54
            ngfft3         54      54      54
            ngfft4         50      50      50
            ngfft5         50      50      50
            ngfft6         50      50      50
            ngfft7         50      50      50
            ngfft8         48      48      48
            ngfft9         48      48      48
            ngfft10        48      48      48
          ngfftdg1         90      90      90
          ngfftdg2         90      90      90
          ngfftdg3         80      80      80
          ngfftdg4         80      80      80
          ngfftdg5         80      80      80
          ngfftdg6         80      80      80
          ngfftdg7         80      80      80
          ngfftdg8         80      80      80
          ngfftdg9         80      80      80
          ngfftdg10        75      75      75
             nkpt          72
            nstep        2500
             nsym          48
           ntypat           3
              occ      2.000000  2.000000  2.000000  2.000000  2.000000  2.000000
                       2.000000  2.000000  2.000000  2.000000  2.000000  2.000000
                       2.000000  2.000000  2.000000  2.000000  2.000000  2.000000
                       2.000000  2.000000  2.000000  2.000000  2.000000  2.000000
                       2.000000  2.000000  2.000000  2.000000  2.000000  2.000000
                       2.000000  2.000000  2.000000  2.000000  2.000000  2.000000
                       0.000000  0.000000  0.000000  0.000000  0.000000  0.000000
        pawecutdg      4.00000000E+01 Hartree
            prtwf           0
            rprim      0.0000000000E+00  7.0710678119E-01  7.0710678119E-01
                       7.0710678119E-01  0.0000000000E+00  7.0710678119E-01
                       7.0710678119E-01  7.0710678119E-01  0.0000000000E+00
          spgroup         225
           symrel      1  0  0   0  1  0   0  0  1      -1  0  0   0 -1  0   0  0 -1
                       0 -1  1   0 -1  0   1 -1  0       0  1 -1   0  1  0  -1  1  0
                      -1  0  0  -1  0  1  -1  1  0       1  0  0   1  0 -1   1 -1  0
                       0  1 -1   1  0 -1   0  0 -1       0 -1  1  -1  0  1   0  0  1
                      -1  0  0  -1  1  0  -1  0  1       1  0  0   1 -1  0   1  0 -1
                       0 -1  1   1 -1  0   0 -1  0       0  1 -1  -1  1  0   0  1  0
                       1  0  0   0  0  1   0  1  0      -1  0  0   0  0 -1   0 -1  0
                       0  1 -1   0  0 -1   1  0 -1       0 -1  1   0  0  1  -1  0  1
                      -1  0  1  -1  1  0  -1  0  0       1  0 -1   1 -1  0   1  0  0
                       0 -1  0   1 -1  0   0 -1  1       0  1  0  -1  1  0   0  1 -1
                       1  0 -1   0  0 -1   0  1 -1      -1  0  1   0  0  1   0 -1  1
                       0  1  0   0  0  1   1  0  0       0 -1  0   0  0 -1  -1  0  0
                       1  0 -1   0  1 -1   0  0 -1      -1  0  1   0 -1  1   0  0  1
                       0 -1  0   0 -1  1   1 -1  0       0  1  0   0  1 -1  -1  1  0
                      -1  0  1  -1  0  0  -1  1  0       1  0 -1   1  0  0   1 -1  0
                       0  1  0   1  0  0   0  0  1       0 -1  0  -1  0  0   0  0 -1
                       0  0 -1   0  1 -1   1  0 -1       0  0  1   0 -1  1  -1  0  1
                       1 -1  0   0 -1  1   0 -1  0      -1  1  0   0  1 -1   0  1  0
                       0  0  1   1  0  0   0  1  0       0  0 -1  -1  0  0   0 -1  0
                      -1  1  0  -1  0  0  -1  0  1       1 -1  0   1  0  0   1  0 -1
                       0  0  1   0  1  0   1  0  0       0  0 -1   0 -1  0  -1  0  0
                       1 -1  0   0 -1  0   0 -1  1      -1  1  0   0  1  0   0  1 -1
                       0  0 -1   1  0 -1   0  1 -1       0  0  1  -1  0  1   0 -1  1
                      -1  1  0  -1  0  1  -1  0  0       1 -1  0   1  0 -1   1  0  0
           toldfe      1.00000000E-08 Hartree
            typat      1  1  2  2  2  2  2  2  3
           useylm           1
              wtk        0.00058    0.00463    0.00463    0.00463    0.00463    0.00463
                         0.00231    0.00347    0.01389    0.01389    0.01389    0.01389
                         0.01389    0.01389    0.01389    0.01389    0.01389    0.00694
                         0.00347    0.01389    0.01389    0.01389    0.01389    0.01389
                         0.01389    0.01389    0.00694    0.00347    0.01389    0.01389
                         0.01389    0.01389    0.01389    0.00694    0.00347    0.01389
                         0.01389    0.01389    0.00694    0.00347    0.01389    0.00694
                         0.00174    0.01389    0.02778    0.02778    0.02778    0.01389
                         0.01389    0.02778
                       outvars : Printing only first  50 k-points.
           xangst1     2.6702363120E+00  2.6702363120E+00  2.6702363120E+00
                       8.0107089361E+00  8.0107089361E+00  8.0107089361E+00
                       5.3404726241E+00  5.3404726241E+00  2.4845863434E+00
                       5.3404726241E+00  5.3404726241E+00  8.1963589048E+00
                       8.1963589048E+00  5.3404726241E+00  5.3404726241E+00
                       5.3404726241E+00  8.1963589048E+00  5.3404726241E+00
                       5.3404726241E+00  2.4845863434E+00  5.3404726241E+00
                       2.4845863434E+00  5.3404726241E+00  5.3404726241E+00
                       3.1345592494E-19  2.2823066226E-18  3.1794855264E-18
           xangst2     2.6432642282E+00  2.6432642282E+00  2.6432642282E+00
                       7.9297926846E+00  7.9297926846E+00  7.9297926846E+00
                       5.2865284564E+00  5.2865284564E+00  2.4823941181E+00
                       5.2865284564E+00  5.2865284564E+00  8.0906627947E+00
                       8.0906627947E+00  5.2865284564E+00  5.2865284564E+00
                       5.2865284564E+00  8.0906627947E+00  5.2865284564E+00
                       5.2865284564E+00  2.4823941181E+00  5.2865284564E+00
                       2.4823941181E+00  5.2865284564E+00  5.2865284564E+00
                      -1.0802202405E-18  2.8561521730E-18  3.0569715265E-18
           xangst3     2.6162921442E+00  2.6162921442E+00  2.6162921442E+00
                       7.8488764326E+00  7.8488764326E+00  7.8488764326E+00
                       5.2325842884E+00  5.2325842884E+00  2.4799387391E+00
                       5.2325842884E+00  5.2325842884E+00  7.9852298376E+00
                       7.9852298376E+00  5.2325842884E+00  5.2325842884E+00
                       5.2325842884E+00  7.9852298376E+00  5.2325842884E+00
                       5.2325842884E+00  2.4799387391E+00  5.2325842884E+00
                       2.4799387391E+00  5.2325842884E+00  5.2325842884E+00
                      -1.0114337021E-18  2.8028334657E-18  3.0252917297E-18
           xangst4     2.5893200602E+00  2.5893200602E+00  2.5893200602E+00
                       7.7679601805E+00  7.7679601805E+00  7.7679601805E+00
                       5.1786401204E+00  5.1786401204E+00  2.4768607701E+00
                       5.1786401204E+00  5.1786401204E+00  7.8804194707E+00
                       7.8804194707E+00  5.1786401204E+00  5.1786401204E+00
                       5.1786401204E+00  7.8804194707E+00  5.1786401204E+00
                       5.1786401204E+00  2.4768607701E+00  5.1786401204E+00
                       2.4768607701E+00  5.1786401204E+00  5.1786401204E+00
                      -1.8027321302E-18  3.4124588575E-18  2.5360337634E-18
           xangst5     2.5623479762E+00  2.5623479762E+00  2.5623479762E+00
                       7.6870439285E+00  7.6870439285E+00  7.6870439285E+00
                       5.1246959523E+00  5.1246959523E+00  2.4732684425E+00
                       5.1246959523E+00  5.1246959523E+00  7.7761234622E+00
                       7.7761234622E+00  5.1246959523E+00  5.1246959523E+00
                       5.1246959523E+00  7.7761234622E+00  5.1246959523E+00
                       5.1246959523E+00  2.4732684425E+00  5.1246959523E+00
                       2.4732684425E+00  5.1246959523E+00  5.1246959523E+00
                      -8.2080248873E-19  3.4690175331E-18  1.4039418389E-18
           xangst6     2.5353758923E+00  2.5353758923E+00  2.5353758923E+00
                       7.6061276770E+00  7.6061276770E+00  7.6061276770E+00
                       5.0707517847E+00  5.0707517847E+00  2.4692945753E+00
                       5.0707517847E+00  5.0707517847E+00  7.6722089940E+00
                       7.6722089940E+00  5.0707517847E+00  5.0707517847E+00
                       5.0707517847E+00  7.6722089940E+00  5.0707517847E+00
                       5.0707517847E+00  2.4692945753E+00  5.0707517847E+00
                       2.4692945753E+00  5.0707517847E+00  5.0707517847E+00
                      -1.1123954183E-18  4.2915941618E-18  7.2673808619E-19
           xangst7     2.5084038083E+00  2.5084038083E+00  2.5084038083E+00
                       7.5252114250E+00  7.5252114250E+00  7.5252114250E+00
                       5.0168076166E+00  5.0168076166E+00  2.4647293752E+00
                       5.0168076166E+00  5.0168076166E+00  7.5688858581E+00
                       7.5688858581E+00  5.0168076166E+00  5.0168076166E+00
                       5.0168076166E+00  7.5688858581E+00  5.0168076166E+00
                       5.0168076166E+00  2.4647293752E+00  5.0168076166E+00
                       2.4647293752E+00  5.0168076166E+00  5.0168076166E+00
                      -1.2582255460E-18  4.3580665286E-18  7.4329460830E-19
           xangst8     2.4814317243E+00  2.4814317243E+00  2.4814317243E+00
                       7.4442951729E+00  7.4442951729E+00  7.4442951729E+00
                       4.9628634486E+00  4.9628634486E+00  2.4594063201E+00
                       4.9628634486E+00  4.9628634486E+00  7.4663205771E+00
                       7.4663205771E+00  4.9628634486E+00  4.9628634486E+00
                       4.9628634486E+00  7.4663205771E+00  4.9628634486E+00
                       4.9628634486E+00  2.4594063201E+00  4.9628634486E+00
                       2.4594063201E+00  4.9628634486E+00  4.9628634486E+00
                      -9.5036843759E-19  2.6527567381E-18  2.8696081056E-18
           xangst9     2.4544596405E+00  2.4544596405E+00  2.4544596405E+00
                       7.3633789214E+00  7.3633789214E+00  7.3633789214E+00
                       4.9089192810E+00  4.9089192810E+00  2.4532661911E+00
                       4.9089192810E+00  4.9089192810E+00  7.3645723708E+00
                       7.3645723708E+00  4.9089192810E+00  4.9089192810E+00
                       4.9089192810E+00  7.3645723708E+00  4.9089192810E+00
                       4.9089192810E+00  2.4532661911E+00  4.9089192810E+00
                       2.4532661911E+00  4.9089192810E+00  4.9089192810E+00
                      -8.9276913436E-19  2.0624149350E-18  2.9449875692E-18
           xangst10    2.4274875565E+00  2.4274875565E+00  2.4274875565E+00
                       7.2824626694E+00  7.2824626694E+00  7.2824626694E+00
                       4.8549751129E+00  4.8549751129E+00  2.4461623098E+00
                       4.8549751129E+00  4.8549751129E+00  7.2637879161E+00
                       7.2637879161E+00  4.8549751129E+00  4.8549751129E+00
                       4.8549751129E+00  7.2637879161E+00  4.8549751129E+00
                       4.8549751129E+00  2.4461623098E+00  4.8549751129E+00
                       2.4461623098E+00  4.8549751129E+00  4.8549751129E+00
                      -9.4003756539E-19  2.6224836625E-18  2.7990751180E-18
            xcart1     5.0460153398E+00  5.0460153398E+00  5.0460153398E+00
                       1.5138046019E+01  1.5138046019E+01  1.5138046019E+01
                       1.0092030680E+01  1.0092030680E+01  4.6951877425E+00
                       1.0092030680E+01  1.0092030680E+01  1.5488873617E+01
                       1.5488873617E+01  1.0092030680E+01  1.0092030680E+01
                       1.0092030680E+01  1.5488873617E+01  1.0092030680E+01
                       1.0092030680E+01  4.6951877425E+00  1.0092030680E+01
                       4.6951877425E+00  1.0092030680E+01  1.0092030680E+01
                       5.9234585286E-19  4.3129344680E-18  6.0083568884E-18
            xcart2     4.9950454882E+00  4.9950454882E+00  4.9950454882E+00
                       1.4985136464E+01  1.4985136464E+01  1.4985136464E+01
                       9.9900909763E+00  9.9900909763E+00  4.6910450371E+00
                       9.9900909763E+00  9.9900909763E+00  1.5289136916E+01
                       1.5289136916E+01  9.9900909763E+00  9.9900909763E+00
                       9.9900909763E+00  1.5289136916E+01  9.9900909763E+00
                       9.9900909763E+00  4.6910450371E+00  9.9900909763E+00
                       4.6910450371E+00  9.9900909763E+00  9.9900909763E+00
                      -2.0413204178E-18  5.3973454007E-18  5.7768389811E-18
            xcart3     4.9440756361E+00  4.9440756361E+00  4.9440756361E+00
                       1.4832226908E+01  1.4832226908E+01  1.4832226908E+01
                       9.8881512723E+00  9.8881512723E+00  4.6864050433E+00
                       9.8881512723E+00  9.8881512723E+00  1.5089897501E+01
                       1.5089897501E+01  9.8881512723E+00  9.8881512723E+00
                       9.8881512723E+00  1.5089897501E+01  9.8881512723E+00
                       9.8881512723E+00  4.6864050433E+00  9.8881512723E+00
                       4.6864050433E+00  9.8881512723E+00  9.8881512723E+00
                      -1.9113326985E-18  5.2965876463E-18  5.7169728411E-18
            xcart4     4.8931057841E+00  4.8931057841E+00  4.8931057841E+00
                       1.4679317352E+01  1.4679317352E+01  1.4679317352E+01
                       9.7862115682E+00  9.7862115682E+00  4.6805885247E+00
                       9.7862115682E+00  9.7862115682E+00  1.4891834612E+01
                       1.4891834612E+01  9.7862115682E+00  9.7862115682E+00
                       9.7862115682E+00  1.4891834612E+01  9.7862115682E+00
                       9.7862115682E+00  4.6805885247E+00  9.7862115682E+00
                       4.6805885247E+00  9.7862115682E+00  9.7862115682E+00
                      -3.4066700171E-18  6.4486126805E-18  4.7924092765E-18
            xcart5     4.8421359321E+00  4.8421359321E+00  4.8421359321E+00
                       1.4526407796E+01  1.4526407796E+01  1.4526407796E+01
                       9.6842718642E+00  9.6842718642E+00  4.6738000094E+00
                       9.6842718642E+00  9.6842718642E+00  1.4694743719E+01
                       1.4694743719E+01  9.6842718642E+00  9.6842718642E+00
                       9.6842718642E+00  1.4694743719E+01  9.6842718642E+00
                       9.6842718642E+00  4.6738000094E+00  9.6842718642E+00
                       4.6738000094E+00  9.6842718642E+00  9.6842718642E+00
                      -1.5510919129E-18  6.5554930877E-18  2.6530655819E-18
            xcart6     4.7911660804E+00  4.7911660804E+00  4.7911660804E+00
                       1.4373498241E+01  1.4373498241E+01  1.4373498241E+01
                       9.5823321609E+00  9.5823321609E+00  4.6662904888E+00
                       9.5823321609E+00  9.5823321609E+00  1.4498373833E+01
                       1.4498373833E+01  9.5823321609E+00  9.5823321609E+00
                       9.5823321609E+00  1.4498373833E+01  9.5823321609E+00
                       9.5823321609E+00  4.6662904888E+00  9.5823321609E+00
                       4.6662904888E+00  9.5823321609E+00  9.5823321609E+00
                      -2.1021226921E-18  8.1099376392E-18  1.3733359532E-18
            xcart7     4.7401962284E+00  4.7401962284E+00  4.7401962284E+00
                       1.4220588685E+01  1.4220588685E+01  1.4220588685E+01
                       9.4803924568E+00  9.4803924568E+00  4.6576635107E+00
                       9.4803924568E+00  9.4803924568E+00  1.4303121403E+01
                       1.4303121403E+01  9.4803924568E+00  9.4803924568E+00
                       9.4803924568E+00  1.4303121403E+01  9.4803924568E+00
                       9.4803924568E+00  4.6576635107E+00  9.4803924568E+00
                       4.6576635107E+00  9.4803924568E+00  9.4803924568E+00
                      -2.3777016954E-18  8.2355522080E-18  1.4046232457E-18
            xcart8     4.6892263764E+00  4.6892263764E+00  4.6892263764E+00
                       1.4067679129E+01  1.4067679129E+01  1.4067679129E+01
                       9.3784527528E+00  9.3784527528E+00  4.6476043946E+00
                       9.3784527528E+00  9.3784527528E+00  1.4109301111E+01
                       1.4109301111E+01  9.3784527528E+00  9.3784527528E+00
                       9.3784527528E+00  1.4109301111E+01  9.3784527528E+00
                       9.3784527528E+00  4.6476043946E+00  9.3784527528E+00
                       4.6476043946E+00  9.3784527528E+00  9.3784527528E+00
                      -1.7959360724E-18  5.0129837321E-18  5.4227734283E-18
            xcart9     4.6382565247E+00  4.6382565247E+00  4.6382565247E+00
                       1.3914769574E+01  1.3914769574E+01  1.3914769574E+01
                       9.2765130495E+00  9.2765130495E+00  4.6360012322E+00
                       9.2765130495E+00  9.2765130495E+00  1.3917024867E+01
                       1.3917024867E+01  9.2765130495E+00  9.2765130495E+00
                       9.2765130495E+00  1.3917024867E+01  9.2765130495E+00
                       9.2765130495E+00  4.6360012322E+00  9.2765130495E+00
                       4.6360012322E+00  9.2765130495E+00  9.2765130495E+00
                      -1.6870891638E-18  3.8973993995E-18  5.5652199705E-18
            xcart10    4.5872866727E+00  4.5872866727E+00  4.5872866727E+00
                       1.3761860018E+01  1.3761860018E+01  1.3761860018E+01
                       9.1745733454E+00  9.1745733454E+00  4.6225768421E+00
                       9.1745733454E+00  9.1745733454E+00  1.3726569849E+01
                       1.3726569849E+01  9.1745733454E+00  9.1745733454E+00
                       9.1745733454E+00  1.3726569849E+01  9.1745733454E+00
                       9.1745733454E+00  4.6225768421E+00  9.1745733454E+00
                       4.6225768421E+00  9.1745733454E+00  9.1745733454E+00
                      -1.7764135532E-18  4.9557759101E-18  5.2894853983E-18
             xred1     2.5000000000E-01  2.5000000000E-01  2.5000000000E-01
                       7.5000000000E-01  7.5000000000E-01  7.5000000000E-01
                       2.3261858250E-01  2.3261858250E-01  7.6738141750E-01
                       7.6738141750E-01  7.6738141750E-01  2.3261858250E-01
                       2.3261858250E-01  7.6738141750E-01  7.6738141750E-01
                       7.6738141750E-01  2.3261858250E-01  7.6738141750E-01
                       2.3261858250E-01  7.6738141750E-01  2.3261858250E-01
                       7.6738141750E-01  2.3261858250E-01  2.3261858250E-01
                       4.8201129249E-19  1.1334528926E-19 -5.4650872679E-20
             xred2     2.5000000000E-01  2.5000000000E-01  2.5000000000E-01
                       7.5000000000E-01  7.5000000000E-01  7.5000000000E-01
                       2.3478490077E-01  2.3478490077E-01  7.6521509923E-01
                       7.6521509923E-01  7.6521509923E-01  2.3478490077E-01
                       2.3478490077E-01  7.6521509923E-01  7.6521509923E-01
                       7.6521509923E-01  2.3478490077E-01  7.6521509923E-01
                       2.3478490077E-01  7.6521509923E-01  2.3478490077E-01
                       7.6521509923E-01  2.3478490077E-01  2.3478490077E-01
                       6.6143065318E-19 -8.3173758942E-20 -1.2116075839E-19
             xred3     2.5000000000E-01  2.5000000000E-01  2.5000000000E-01
                       7.5000000000E-01  7.5000000000E-01  7.5000000000E-01
                       2.3697073974E-01  2.3697073974E-01  7.6302926026E-01
                       7.6302926026E-01  7.6302926026E-01  2.3697073974E-01
                       2.3697073974E-01  7.6302926026E-01  7.6302926026E-01
                       7.6302926026E-01  2.3697073974E-01  7.6302926026E-01
                       2.3697073974E-01  7.6302926026E-01  2.3697073974E-01
                       7.6302926026E-01  2.3697073974E-01  2.3697073974E-01
                       6.5355458417E-19 -7.5390609560E-20 -1.1790464310E-19
             xred4     2.5000000000E-01  2.5000000000E-01  2.5000000000E-01
                       7.5000000000E-01  7.5000000000E-01  7.5000000000E-01
                       2.3914200567E-01  2.3914200567E-01  7.6085799433E-01
                       7.6085799433E-01  7.6085799433E-01  2.3914200567E-01
                       2.3914200567E-01  7.6085799433E-01  7.6085799433E-01
                       7.6085799433E-01  2.3914200567E-01  7.6085799433E-01
                       2.3914200567E-01  7.6085799433E-01  2.3914200567E-01
                       7.6085799433E-01  2.3914200567E-01  2.3914200567E-01
                       7.4838418687E-19 -2.5867381804E-19 -8.9435355088E-20
             xred5     2.5000000000E-01  2.5000000000E-01  2.5000000000E-01
                       7.5000000000E-01  7.5000000000E-01  7.5000000000E-01
                       2.4130879817E-01  2.4130879817E-01  7.5869120183E-01
                       7.5869120183E-01  7.5869120183E-01  2.4130879817E-01
                       2.4130879817E-01  7.5869120183E-01  7.5869120183E-01
                       7.5869120183E-01  2.4130879817E-01  7.5869120183E-01
                       2.4130879817E-01  7.5869120183E-01  2.4130879817E-01
                       7.5869120183E-01  2.4130879817E-01  2.4130879817E-01
                       5.5552191912E-19 -2.8156579530E-19  1.2139971006E-19
             xred6     2.5000000000E-01  2.5000000000E-01  2.5000000000E-01
                       7.5000000000E-01  7.5000000000E-01  7.5000000000E-01
                       2.4348407102E-01  2.4348407102E-01  7.5651592898E-01
                       7.5651592898E-01  7.5651592898E-01  2.4348407102E-01
                       2.4348407102E-01  7.5651592898E-01  7.5651592898E-01
                       7.5651592898E-01  2.4348407102E-01  7.5651592898E-01
                       2.4348407102E-01  7.5651592898E-01  2.4348407102E-01
                       7.5651592898E-01  2.4348407102E-01  2.4348407102E-01
                       6.0451861249E-19 -4.6119901866E-19  2.4182416744E-19
             xred7     2.5000000000E-01  2.5000000000E-01  2.5000000000E-01
                       7.5000000000E-01  7.5000000000E-01  7.5000000000E-01
                       2.4564718876E-01  2.4564718876E-01  7.5435281124E-01
                       7.5435281124E-01  7.5435281124E-01  2.4564718876E-01
                       2.4564718876E-01  7.5435281124E-01  7.5435281124E-01
                       7.5435281124E-01  2.4564718876E-01  7.5435281124E-01
                       2.4564718876E-01  7.5435281124E-01  2.4564718876E-01
                       7.5435281124E-01  2.4564718876E-01  2.4564718876E-01
                       6.3382804055E-19 -4.8566716513E-19  2.3486513281E-19
             xred8     2.5000000000E-01  2.5000000000E-01  2.5000000000E-01
                       7.5000000000E-01  7.5000000000E-01  7.5000000000E-01
                       2.4778097822E-01  2.4778097822E-01  7.5221902178E-01
                       7.5221902178E-01  7.5221902178E-01  2.4778097822E-01
                       2.4778097822E-01  7.5221902178E-01  7.5221902178E-01
                       7.5221902178E-01  2.4778097822E-01  7.5221902178E-01
                       2.4778097822E-01  7.5221902178E-01  2.4778097822E-01
                       7.5221902178E-01  2.4778097822E-01  2.4778097822E-01
                       6.5211680195E-19 -7.3900589615E-20 -1.1759539802E-19
             xred9     2.5000000000E-01  2.5000000000E-01  2.5000000000E-01
                       7.5000000000E-01  7.5000000000E-01  7.5000000000E-01
                       2.4987844072E-01  2.4987844072E-01  7.5012155928E-01
                       7.5012155928E-01  7.5012155928E-01  2.4987844072E-01
                       2.4987844072E-01  7.5012155928E-01  7.5012155928E-01
                       7.5012155928E-01  2.4987844072E-01  7.5012155928E-01
                       2.4987844072E-01  7.5012155928E-01  2.4987844072E-01
                       7.5012155928E-01  2.4987844072E-01  2.4987844072E-01
                       6.0096441812E-19 -1.0385687366E-21 -1.8082816878E-19
             xred10    2.5000000000E-01  2.5000000000E-01  2.5000000000E-01
                       7.5000000000E-01  7.5000000000E-01  7.5000000000E-01
                       2.5192325943E-01  2.5192325943E-01  7.4807674057E-01
                       7.4807674057E-01  7.4807674057E-01  2.5192325943E-01
                       2.5192325943E-01  7.4807674057E-01  7.4807674057E-01
                       7.4807674057E-01  2.5192325943E-01  7.4807674057E-01
                       2.5192325943E-01  7.4807674057E-01  2.5192325943E-01
                       7.4807674057E-01  2.5192325943E-01  2.5192325943E-01
                       6.5516261133E-19 -7.8625131144E-20 -1.1499842892E-19
            znucl       55.00000   17.00000   40.00000

================================================================================

 chkinp: Checking input parameters for consistency, jdtset=   1.

 chkinp: Checking input parameters for consistency, jdtset=   2.

 chkinp: Checking input parameters for consistency, jdtset=   3.

 chkinp: Checking input parameters for consistency, jdtset=   4.

 chkinp: Checking input parameters for consistency, jdtset=   5.

 chkinp: Checking input parameters for consistency, jdtset=   6.

 chkinp: Checking input parameters for consistency, jdtset=   7.

 chkinp: Checking input parameters for consistency, jdtset=   8.

 chkinp: Checking input parameters for consistency, jdtset=   9.

 chkinp: Checking input parameters for consistency, jdtset=  10.

================================================================================
== DATASET  1 ==================================================================
-   mpi_nproc: 4, omp_nthreads: -1 (-1 if OMP is not activated)


--- !DatasetInfo
iteration_state: {dtset: 1, }
dimensions: {natom: 9, nkpt: 72, mband: 42, nsppol: 1, nspinor: 1, nspden: 1, mpw: 6303, }
cutoff_energies: {ecut:  16.0, pawecutdg:  40.0, }
electrons: {nelect:   7.20000000E+01, charge:   0.00000000E+00, occopt:   1.00000000E+00, tsmear:   1.00000000E-02, }
meta: {optdriver: 0, ionmov: 0, optcell: 0, iscf: 17, paral_kgb: 0, }
...

 Real(R)+Recip(G) space primitive vectors, cartesian coordinates (Bohr,Bohr^-1):
 R(1)=  0.0000000 10.0920307 10.0920307  G(1)= -0.0495440  0.0495440  0.0495440
 R(2)= 10.0920307  0.0000000 10.0920307  G(2)=  0.0495440 -0.0495440  0.0495440
 R(3)= 10.0920307 10.0920307  0.0000000  G(3)=  0.0495440  0.0495440 -0.0495440
 Unit cell volume ucvol=  2.0557281E+03 bohr^3
 Angles (23,13,12)=  6.00000000E+01  6.00000000E+01  6.00000000E+01 degrees

 Coarse grid specifications (used for wave-functions):

 getcut: wavevector=  0.0000  0.0000  0.0000  ngfft=  54  54  54
         ecut(hartree)=     16.000   => boxcut(ratio)=   2.10196

 Fine grid specifications (used for densities):

 getcut: wavevector=  0.0000  0.0000  0.0000  ngfft=  90  90  90
         ecut(hartree)=     40.000   => boxcut(ratio)=   2.21517

 getcut : COMMENT -
  Note that boxcut > 2.2 ; recall that boxcut=Gcut(box)/Gcut(sphere) = 2
  is sufficient for exact treatment of convolution.
  Such a large boxcut is a waste : you could raise ecut
  e.g. ecut=   49.069867 Hartrees makes boxcut=2


--- Pseudopotential description ------------------------------------------------
- pspini: atom type   1  psp file is ../../../Psps_for_tests/ATOMICDATA/Cs.GGA_PBE-JTH.xml
- pspatm: opening atomic psp file    ../../../Psps_for_tests/ATOMICDATA/Cs.GGA_PBE-JTH.xml
- pspatm : Reading pseudopotential header in XML form from ../../../Psps_for_tests/ATOMICDATA/Cs.GGA_PBE-JTH.xml
 Pseudopotential format is: paw10
 basis_size (lnmax)=  6 (lmn_size= 18), orbitals=   0   0   1   1   2   2
 Spheres core radius: rc_sph= 2.20660278
 1 radial meshes are used:
  - mesh 1: r(i)=AA*[exp(BB*(i-1))-1], size=1500 , AA= 0.15922E-03 BB= 0.87573E-02
 Shapefunction is SIN type: shapef(r)=[sin(pi*r/rshp)/(pi*r/rshp)]**2
 Radius for shape functions =  2.00394208
 mmax= 1500
 Radial grid used for partial waves is grid 1
 Radial grid used for projectors is grid 1
 Radial grid used for (t)core density is grid 1
 Radial grid used for Vloc is grid 1
 Radial grid used for pseudo valence density is grid 1
 Mesh size for Vloc has been set to 1341 to avoid numerical noise.
 Compensation charge density is not taken into account in XC energy/potential
 pspatm: atomic psp has been read  and splines computed

- pspini: atom type   2  psp file is ../../../Psps_for_tests/ATOMICDATA/Cl.GGA_PBE-JTH.xml
- pspatm: opening atomic psp file    ../../../Psps_for_tests/ATOMICDATA/Cl.GGA_PBE-JTH.xml
- pspatm : Reading pseudopotential header in XML form from ../../../Psps_for_tests/ATOMICDATA/Cl.GGA_PBE-JTH.xml
 Pseudopotential format is: paw10
 basis_size (lnmax)=  4 (lmn_size=  8), orbitals=   0   0   1   1
 Spheres core radius: rc_sph= 1.80315674
 1 radial meshes are used:
  - mesh 1: r(i)=AA*[exp(BB*(i-1))-1], size=1400 , AA= 0.50355E-03 BB= 0.85603E-02
 Shapefunction is SIN type: shapef(r)=[sin(pi*r/rshp)/(pi*r/rshp)]**2
 Radius for shape functions =  1.61320365
 mmax= 1400
 Radial grid used for partial waves is grid 1
 Radial grid used for projectors is grid 1
 Radial grid used for (t)core density is grid 1
 Radial grid used for Vloc is grid 1
 Radial grid used for pseudo valence density is grid 1
 Mesh size for Vloc has been set to 1238 to avoid numerical noise.
 Compensation charge density is not taken into account in XC energy/potential
 pspatm: atomic psp has been read  and splines computed

- pspini: atom type   3  psp file is ../../../Psps_for_tests/ATOMICDATA/Zr.GGA_PBE-JTH.xml
- pspatm: opening atomic psp file    ../../../Psps_for_tests/ATOMICDATA/Zr.GGA_PBE-JTH.xml
- pspatm : Reading pseudopotential header in XML form from ../../../Psps_for_tests/ATOMICDATA/Zr.GGA_PBE-JTH.xml
 Pseudopotential format is: paw10
 basis_size (lnmax)=  6 (lmn_size= 18), orbitals=   0   0   1   1   2   2
 Spheres core radius: rc_sph= 2.21000000
 1 radial meshes are used:
  - mesh 1: r(i)=AA*[exp(BB*(i-1))-1], size= 941 , AA= 0.35256E-03 BB= 0.14102E-01
 Shapefunction is BESSEL type: shapef(r,l)=aa(1,l)*jl(q(1,l)*r)+aa(2,l)*jl(q(2,l)*r)
 Radius for shape functions =  2.21000000
 mmax=  941
 Radial grid used for partial waves is grid 1
 Radial grid used for projectors is grid 1
 Radial grid used for (t)core density is grid 1
 Radial grid used for Vloc is grid 1
 Radial grid used for pseudo valence density is grid 1
 Mesh size for Vloc has been set to  777 to avoid numerical noise.
 Compensation charge density is not taken into account in XC energy/potential
 pspatm: atomic psp has been read  and splines computed

   1.02542921E+04                                ecore*ucvol(ha*bohr**3)
--------------------------------------------------------------------------------

_setup2: Arith. and geom. avg. npw (full set) are    6283.201    6283.192

================================================================================

--- !BeginCycle
iteration_state: {dtset: 1, }
solver: {iscf: 17, nstep: 2500, nline: 4, wfoptalg: 10, }
tolerances: {toldfe: 1.00E-08, }
...

     iter   Etot(hartree)      deltaE(h)  residm     nres2
 ETOT  1  -179.70660689880    -1.797E+02 2.088E-01 2.781E+01
 ETOT  2  -179.82735472718    -1.207E-01 1.729E-02 5.996E+00
 ETOT  3  -179.82546075924     1.894E-03 7.319E-03 1.365E+00
 ETOT  4  -179.82617352588    -7.128E-04 4.975E-03 5.449E-02
 ETOT  5  -179.82605987046     1.137E-04 1.518E-03 7.926E-03
 ETOT  6  -179.82610399567    -4.413E-05 2.199E-03 4.160E-04
 ETOT  7  -179.82610667230    -2.677E-06 6.819E-04 1.166E-04
 ETOT  8  -179.82610761267    -9.404E-07 9.675E-04 9.647E-06
 ETOT  9  -179.82610762693    -1.426E-08 2.767E-04 5.392E-07
 ETOT 10  -179.82610763083    -3.895E-09 5.473E-04 7.804E-08
 ETOT 11  -179.82610763123    -3.970E-10 1.149E-04 1.618E-08

 At SCF step   11, etot is converged : 
  for the second time, diff in etot=  3.970E-10 < toldfe=  1.000E-08

 Cartesian components of stress tensor (hartree/bohr^3)
  sigma(1 1)= -3.93875221E-06  sigma(3 2)=  0.00000000E+00
  sigma(2 2)= -3.93875221E-06  sigma(3 1)=  0.00000000E+00
  sigma(3 3)= -3.93875221E-06  sigma(2 1)=  0.00000000E+00


--- !ResultsGS
iteration_state: {dtset: 1, }
comment   : Summary of ground state results
lattice_vectors:
- [  0.0000000,  10.0920307,  10.0920307, ]
- [ 10.0920307,   0.0000000,  10.0920307, ]
- [ 10.0920307,  10.0920307,   0.0000000, ]
lattice_lengths: [  14.27229,   14.27229,   14.27229, ]
lattice_angles: [ 60.000,  60.000,  60.000, ] # degrees, (23, 13, 12)
lattice_volume:   2.0557281E+03
convergence: {deltae: -3.970E-10, res2:  1.618E-08, residm:  1.149E-04, diffor: null, }
etotal    :  -1.79826108E+02
entropy   :   0.00000000E+00
fermie    :  -1.07202136E-02
cartesian_stress_tensor: # hartree/bohr^3
- [ -3.93875221E-06,   0.00000000E+00,   0.00000000E+00, ]
- [  0.00000000E+00,  -3.93875221E-06,   0.00000000E+00, ]
- [  0.00000000E+00,   0.00000000E+00,  -3.93875221E-06, ]
pressure_GPa:   1.1588E-01
xred      :
- [  2.5000E-01,   2.5000E-01,   2.5000E-01, Cs]
- [  7.5000E-01,   7.5000E-01,   7.5000E-01, Cs]
- [  2.3262E-01,   2.3262E-01,   7.6738E-01, Cl]
- [  7.6738E-01,   7.6738E-01,   2.3262E-01, Cl]
- [  2.3262E-01,   7.6738E-01,   7.6738E-01, Cl]
- [  7.6738E-01,   2.3262E-01,   7.6738E-01, Cl]
- [  2.3262E-01,   7.6738E-01,   2.3262E-01, Cl]
- [  7.6738E-01,   2.3262E-01,   2.3262E-01, Cl]
- [  4.8201E-19,   1.1335E-19,  -5.4651E-20, Zr]
cartesian_forces: # hartree/bohr
- [ -1.12937716E-21,   4.17577269E-22,   2.98421096E-22, ]
- [ -1.12937700E-21,   4.17577536E-22,   2.98420722E-22, ]
- [ -1.40570116E-21,   8.05809265E-22,   2.69065278E-05, ]
- [  1.83273458E-21,  -2.65644214E-21,  -2.69065278E-05, ]
- [ -2.69065278E-05,   8.52997216E-23,   6.30698697E-22, ]
- [  9.34754664E-22,  -2.69065278E-05,  -1.76571104E-21, ]
- [ -3.19350919E-21,   2.69065278E-05,   2.36255281E-21, ]
- [  2.69065278E-05,   4.75115031E-23,   6.68486915E-22, ]
- [ -1.12937726E-21,   4.17577536E-22,   2.98420882E-22, ]
force_length_stats: {min:   1.24053147E-21, max:   2.69065278E-05, mean:   1.79376852E-05, }
...

 Integrated electronic density in atomic spheres:
 ------------------------------------------------
 Atom  Sphere_radius  Integrated_density
    1        2.20660          5.36783116
    2        2.20660          5.36783116
    3        1.80316          4.35789211
    4        1.80316          4.35789211
    5        1.80316          4.35789211
    6        1.80316          4.35789211
    7        1.80316          4.35789211
    8        1.80316          4.35789211
    9        2.21000          8.81198617

 PAW TEST:
 ==== Compensation charge inside spheres ============
 The following values must be close to each other ...
 Compensation charge over spherical meshes =     -6.085377468464785
 Compensation charge over fine fft grid    =     -6.085331443555426

 ==== Results concerning PAW augmentation regions ====

 Total pseudopotential strength Dij (hartree):
 Atom #  1
   0.40702  -0.13498   0.00000   0.00000   0.00000   0.00000   0.00000   0.00000   0.00000   0.00000   0.00000   0.00000 ...
  -0.13498   0.04043   0.00000   0.00000   0.00000   0.00000   0.00000   0.00000   0.00000   0.00000   0.00000   0.00000 ...
   0.00000   0.00000  -0.08953   0.00000   0.00000  -0.16896   0.00000   0.00000   0.00000   0.00000   0.00000  -0.00000 ...
   0.00000   0.00000   0.00000  -0.08953   0.00000   0.00000  -0.16896   0.00000  -0.00000   0.00000   0.00000   0.00000 ...
   0.00000   0.00000   0.00000   0.00000  -0.08953   0.00000   0.00000  -0.16896   0.00000  -0.00000   0.00000   0.00000 ...
   0.00000   0.00000  -0.16896   0.00000   0.00000   0.39390   0.00000   0.00000   0.00000   0.00000   0.00000   0.00000 ...
   0.00000   0.00000   0.00000  -0.16896   0.00000   0.00000   0.39390   0.00000   0.00000   0.00000   0.00000   0.00000 ...
   0.00000   0.00000   0.00000   0.00000  -0.16896   0.00000   0.00000   0.39390   0.00000   0.00000   0.00000   0.00000 ...
   0.00000   0.00000   0.00000  -0.00000   0.00000   0.00000   0.00000   0.00000   0.00580   0.00000   0.00000   0.00000 ...
   0.00000   0.00000   0.00000   0.00000  -0.00000   0.00000   0.00000   0.00000   0.00000   0.00580   0.00000   0.00000 ...
   0.00000   0.00000   0.00000   0.00000   0.00000   0.00000   0.00000   0.00000   0.00000   0.00000   0.00580   0.00000 ...
   0.00000   0.00000  -0.00000   0.00000   0.00000   0.00000   0.00000   0.00000   0.00000   0.00000   0.00000   0.00580 ...
   ...  only 12  components have been written...
 Atom #  9
   3.03931  -0.88441   0.00000   0.00000   0.00000   0.00000   0.00000   0.00000   0.00000   0.00000   0.00000   0.00000 ...
  -0.88441   0.26408   0.00000   0.00000   0.00000   0.00000   0.00000   0.00000   0.00000   0.00000   0.00000   0.00000 ...
   0.00000   0.00000   0.28304   0.00000   0.00000  -0.05801   0.00000   0.00000   0.00000   0.00000   0.00000   0.00000 ...
   0.00000   0.00000   0.00000   0.28304   0.00000   0.00000  -0.05801   0.00000   0.00000   0.00000   0.00000   0.00000 ...
   0.00000   0.00000   0.00000   0.00000   0.28304   0.00000   0.00000  -0.05801   0.00000   0.00000   0.00000   0.00000 ...
   0.00000   0.00000  -0.05801   0.00000   0.00000   0.01573   0.00000   0.00000   0.00000   0.00000   0.00000   0.00000 ...
   0.00000   0.00000   0.00000  -0.05801   0.00000   0.00000   0.01573   0.00000   0.00000   0.00000   0.00000   0.00000 ...
   0.00000   0.00000   0.00000   0.00000  -0.05801   0.00000   0.00000   0.01573   0.00000   0.00000   0.00000   0.00000 ...
   0.00000   0.00000   0.00000   0.00000   0.00000   0.00000   0.00000   0.00000   0.00097   0.00000   0.00000   0.00000 ...
   0.00000   0.00000   0.00000   0.00000   0.00000   0.00000   0.00000   0.00000   0.00000   0.00097   0.00000   0.00000 ...
   0.00000   0.00000   0.00000   0.00000   0.00000   0.00000   0.00000   0.00000   0.00000   0.00000   0.00107   0.00000 ...
   0.00000   0.00000   0.00000   0.00000   0.00000   0.00000   0.00000   0.00000   0.00000   0.00000   0.00000   0.00097 ...
   ...  only 12  components have been written...


 Augmentation waves occupancies Rhoij:
 Atom #  1
   1.99801  -0.01437   0.00000   0.00000   0.00000   0.00000   0.00000   0.00000   0.00000   0.00000   0.00000   0.00000 ...
  -0.01437   0.10942   0.00000   0.00000   0.00000   0.00000   0.00000   0.00000   0.00000   0.00000   0.00000   0.00000 ...
   0.00000   0.00000   2.01133   0.00000   0.00000  -0.00492   0.00000   0.00000   0.00000   0.00000   0.00000   0.00139 ...
   0.00000   0.00000   0.00000   2.01133   0.00000   0.00000  -0.00492   0.00000   0.00139   0.00000   0.00000   0.00000 ...
   0.00000   0.00000   0.00000   0.00000   2.01133   0.00000   0.00000  -0.00492   0.00000   0.00139   0.00000   0.00000 ...
   0.00000   0.00000  -0.00492   0.00000   0.00000   0.00009   0.00000   0.00000   0.00000   0.00000   0.00000  -0.00017 ...
   0.00000   0.00000   0.00000  -0.00492   0.00000   0.00000   0.00009   0.00000  -0.00017   0.00000   0.00000   0.00000 ...
   0.00000   0.00000   0.00000   0.00000  -0.00492   0.00000   0.00000   0.00009   0.00000  -0.00017   0.00000   0.00000 ...
   0.00000   0.00000   0.00000   0.00139   0.00000   0.00000  -0.00017   0.00000   0.03594   0.00000   0.00000   0.00000 ...
   0.00000   0.00000   0.00000   0.00000   0.00139   0.00000   0.00000  -0.00017   0.00000   0.03594   0.00000   0.00000 ...
   0.00000   0.00000   0.00000   0.00000   0.00000   0.00000   0.00000   0.00000   0.00000   0.00000   0.02204   0.00000 ...
   0.00000   0.00000   0.00139   0.00000   0.00000  -0.00017   0.00000   0.00000   0.00000   0.00000   0.00000   0.03594 ...
   ...  only 12  components have been written...
 Atom #  9
   1.99240  -0.07417   0.00000   0.00000   0.00000   0.00000   0.00000   0.00000   0.00000   0.00000   0.00000   0.00000 ...
  -0.07417   1.06648   0.00000   0.00000   0.00000   0.00000   0.00000   0.00000   0.00000   0.00000   0.00000   0.00000 ...
   0.00000   0.00000   1.96380   0.00000   0.00000  -0.22257   0.00000   0.00000   0.00000   0.00000   0.00000   0.00000 ...
   0.00000   0.00000   0.00000   1.96380   0.00000   0.00000  -0.22257   0.00000   0.00000   0.00000   0.00000   0.00000 ...
   0.00000   0.00000   0.00000   0.00000   1.96380   0.00000   0.00000  -0.22257   0.00000   0.00000   0.00000   0.00000 ...
   0.00000   0.00000  -0.22257   0.00000   0.00000   1.80792   0.00000   0.00000   0.00000   0.00000   0.00000   0.00000 ...
   0.00000   0.00000   0.00000  -0.22257   0.00000   0.00000   1.80792   0.00000   0.00000   0.00000   0.00000   0.00000 ...
   0.00000   0.00000   0.00000   0.00000  -0.22257   0.00000   0.00000   1.80792   0.00000   0.00000   0.00000   0.00000 ...
   0.00000   0.00000   0.00000   0.00000   0.00000   0.00000   0.00000   0.00000   0.51364   0.00000   0.00000   0.00000 ...
   0.00000   0.00000   0.00000   0.00000   0.00000   0.00000   0.00000   0.00000   0.00000   0.51364   0.00000   0.00000 ...
   0.00000   0.00000   0.00000   0.00000   0.00000   0.00000   0.00000   0.00000   0.00000   0.00000   1.56458   0.00000 ...
   0.00000   0.00000   0.00000   0.00000   0.00000   0.00000   0.00000   0.00000   0.00000   0.00000   0.00000   0.51364 ...
   ...  only 12  components have been written...


================================================================================

 ----iterations are completed or convergence reached----

 Mean square residual over all n,k,spin=   35.021E-08; max=  11.493E-05
 reduced coordinates (array xred) for    9 atoms
       0.250000000000      0.250000000000      0.250000000000
       0.750000000000      0.750000000000      0.750000000000
       0.232618582500      0.232618582500      0.767381417500
       0.767381417500      0.767381417500      0.232618582500
       0.232618582500      0.767381417500      0.767381417500
       0.767381417500      0.232618582500      0.767381417500
       0.232618582500      0.767381417500      0.232618582500
       0.767381417500      0.232618582500      0.232618582500
       0.000000000000      0.000000000000     -0.000000000000
 rms dE/dt=  1.8103E-04; max dE/dt=  2.7154E-04; dE/dt below (all hartree)
    1       0.000000000000     -0.000000000000      0.000000000000
    2       0.000000000000     -0.000000000000     -0.000000000000
    3      -0.000271541504     -0.000271541504     -0.000000000000
    4       0.000271541504      0.000271541504      0.000000000000
    5      -0.000000000000      0.000271541504      0.000271541504
    6       0.000271541504      0.000000000000      0.000271541504
    7      -0.000271541504      0.000000000000     -0.000271541504
    8       0.000000000000     -0.000271541504     -0.000271541504
    9       0.000000000000      0.000000000000      0.000000000000

 cartesian coordinates (angstrom) at end:
    1      2.67023631203527     2.67023631203527     2.67023631203527
    2      8.01070893610582     8.01070893610582     8.01070893610582
    3      5.34047262407054     5.34047262407054     2.48458634338269
    4      5.34047262407054     5.34047262407054     8.19635890475840
    5      8.19635890475840     5.34047262407054     5.34047262407054
    6      5.34047262407054     8.19635890475840     5.34047262407054
    7      5.34047262407054     2.48458634338269     5.34047262407054
    8      2.48458634338269     5.34047262407054     5.34047262407054
    9      0.00000000000000     0.00000000000000     0.00000000000000

 cartesian forces (hartree/bohr) at end:
    1     -0.00000000000000     0.00000000000000     0.00000000000000
    2     -0.00000000000000     0.00000000000000     0.00000000000000
    3     -0.00000000000000     0.00000000000000     0.00002690652777
    4      0.00000000000000    -0.00000000000000    -0.00002690652777
    5     -0.00002690652777     0.00000000000000     0.00000000000000
    6      0.00000000000000    -0.00002690652777    -0.00000000000000
    7     -0.00000000000000     0.00002690652777     0.00000000000000
    8      0.00002690652777     0.00000000000000     0.00000000000000
    9     -0.00000000000000     0.00000000000000     0.00000000000000
 frms,max,avg= 1.2683859E-05 2.6906528E-05   0.000E+00  0.000E+00  0.000E+00 h/b

 cartesian forces (eV/Angstrom) at end:
    1     -0.00000000000000     0.00000000000000     0.00000000000000
    2     -0.00000000000000     0.00000000000000     0.00000000000000
    3     -0.00000000000000     0.00000000000000     0.00138358917137
    4      0.00000000000000    -0.00000000000000    -0.00138358917137
    5     -0.00138358917137     0.00000000000000     0.00000000000000
    6      0.00000000000000    -0.00138358917137    -0.00000000000000
    7     -0.00000000000000     0.00138358917137     0.00000000000000
    8      0.00138358917137     0.00000000000000     0.00000000000000
    9     -0.00000000000000     0.00000000000000     0.00000000000000
 frms,max,avg= 6.5223019E-04 1.3835892E-03   0.000E+00  0.000E+00  0.000E+00 e/A
 length scales= 14.272286659000 14.272286659000 14.272286659000 bohr
              =  7.552568814406  7.552568814406  7.552568814406 angstroms
 prteigrs : about to open file Cs2TiI6o_DS1_EIG
 Fermi (or HOMO) energy (hartree) =  -0.01072   Average Vxc (hartree)=  -0.28994
 Eigenvalues (hartree) for nkpt=  72  k points:
 kpt#   1, nband= 42, wtk=  0.00058, kpt=  0.0000  0.0000  0.0000 (reduced coord)
  -1.77773   -0.96950   -0.96950   -0.96950   -0.70543   -0.70496   -0.49239   -0.47731
  -0.47731   -0.47392   -0.47392   -0.47392   -0.22571   -0.22571   -0.22571   -0.22132
  -0.22132   -0.22132   -0.11084   -0.08321   -0.08321   -0.07561   -0.07561   -0.07561
  -0.06773   -0.06773   -0.06773   -0.03300   -0.03300   -0.03300   -0.01881   -0.01881
  -0.01881   -0.01072   -0.01072   -0.01072    0.12636    0.12636    0.12636    0.20265
   0.23028    0.23039
 prteigrs : prtvol=0 or 1, do not print more k-points.


--- !EnergyTerms
iteration_state     : {dtset: 1, }
comment             : Components of total free energy in Hartree
kinetic             :  6.16661886076871E+01
hartree             :  4.68461028178626E+01
xc                  : -5.36711533370049E+01
Ewald energy        : -1.23498496930431E+02
psp_core            :  4.98815569702955E+00
local_psp           : -1.61745071237301E+02
spherical_terms     :  4.55881425354816E+01
total_energy        : -1.79826131846676E+02
total_energy_eV     : -4.89331790173888E+03
...


--- !EnergyTermsDC
iteration_state     : {dtset: 1, }
comment             : '"Double-counting" decomposition of free energy'
band_energy         : -2.24891225291772E+01
Ewald energy        : -1.23498496930431E+02
psp_core            :  4.98815569702955E+00
xc_dc               : -5.44117954279798E+01
spherical_terms     :  1.55851515593328E+01
total_energy_dc     : -1.79826107631226E+02
total_energy_dc_eV  : -4.89331724280296E+03
...


 Cartesian components of stress tensor (hartree/bohr^3)
  sigma(1 1)= -3.93875221E-06  sigma(3 2)=  0.00000000E+00
  sigma(2 2)= -3.93875221E-06  sigma(3 1)=  0.00000000E+00
  sigma(3 3)= -3.93875221E-06  sigma(2 1)=  0.00000000E+00

-Cartesian components of stress tensor (GPa)         [Pressure=  1.1588E-01 GPa]
- sigma(1 1)= -1.15882071E-01  sigma(3 2)=  0.00000000E+00
- sigma(2 2)= -1.15882071E-01  sigma(3 1)=  0.00000000E+00
- sigma(3 3)= -1.15882071E-01  sigma(2 1)=  0.00000000E+00

================================================================================
== DATASET  2 ==================================================================
-   mpi_nproc: 4, omp_nthreads: -1 (-1 if OMP is not activated)


--- !DatasetInfo
iteration_state: {dtset: 2, }
dimensions: {natom: 9, nkpt: 72, mband: 42, nsppol: 1, nspinor: 1, nspden: 1, mpw: 6120, }
cutoff_energies: {ecut:  16.0, pawecutdg:  40.0, }
electrons: {nelect:   7.20000000E+01, charge:   0.00000000E+00, occopt:   1.00000000E+00, tsmear:   1.00000000E-02, }
meta: {optdriver: 0, ionmov: 0, optcell: 0, iscf: 17, paral_kgb: 0, }
...

 Real(R)+Recip(G) space primitive vectors, cartesian coordinates (Bohr,Bohr^-1):
 R(1)=  0.0000000  9.9900910  9.9900910  G(1)= -0.0500496  0.0500496  0.0500496
 R(2)=  9.9900910  0.0000000  9.9900910  G(2)=  0.0500496 -0.0500496  0.0500496
 R(3)=  9.9900910  9.9900910  0.0000000  G(3)=  0.0500496  0.0500496 -0.0500496
 Unit cell volume ucvol=  1.9940605E+03 bohr^3
 Angles (23,13,12)=  6.00000000E+01  6.00000000E+01  6.00000000E+01 degrees

 Coarse grid specifications (used for wave-functions):

 getcut: wavevector=  0.0000  0.0000  0.0000  ngfft=  54  54  54
         ecut(hartree)=     16.000   => boxcut(ratio)=   2.12341

 Fine grid specifications (used for densities):

 getcut: wavevector=  0.0000  0.0000  0.0000  ngfft=  90  90  90
         ecut(hartree)=     40.000   => boxcut(ratio)=   2.23778

 getcut : COMMENT -
  Note that boxcut > 2.2 ; recall that boxcut=Gcut(box)/Gcut(sphere) = 2
  is sufficient for exact treatment of convolution.
  Such a large boxcut is a waste : you could raise ecut
  e.g. ecut=   50.076402 Hartrees makes boxcut=2


--- Pseudopotential description ------------------------------------------------
- pspini: atom type   1  psp file is ../../../Psps_for_tests/ATOMICDATA/Cs.GGA_PBE-JTH.xml
- pspatm: opening atomic psp file    ../../../Psps_for_tests/ATOMICDATA/Cs.GGA_PBE-JTH.xml
- pspatm : Reading pseudopotential header in XML form from ../../../Psps_for_tests/ATOMICDATA/Cs.GGA_PBE-JTH.xml
 Pseudopotential format is: paw10
 basis_size (lnmax)=  6 (lmn_size= 18), orbitals=   0   0   1   1   2   2
 Spheres core radius: rc_sph= 2.20660278
 1 radial meshes are used:
  - mesh 1: r(i)=AA*[exp(BB*(i-1))-1], size=1500 , AA= 0.15922E-03 BB= 0.87573E-02
 Shapefunction is SIN type: shapef(r)=[sin(pi*r/rshp)/(pi*r/rshp)]**2
 Radius for shape functions =  2.00394208
 mmax= 1500
 Radial grid used for partial waves is grid 1
 Radial grid used for projectors is grid 1
 Radial grid used for (t)core density is grid 1
 Radial grid used for Vloc is grid 1
 Radial grid used for pseudo valence density is grid 1
 Mesh size for Vloc has been set to 1341 to avoid numerical noise.
 Compensation charge density is not taken into account in XC energy/potential
 pspatm: atomic psp has been read  and splines computed

- pspini: atom type   2  psp file is ../../../Psps_for_tests/ATOMICDATA/Cl.GGA_PBE-JTH.xml
- pspatm: opening atomic psp file    ../../../Psps_for_tests/ATOMICDATA/Cl.GGA_PBE-JTH.xml
- pspatm : Reading pseudopotential header in XML form from ../../../Psps_for_tests/ATOMICDATA/Cl.GGA_PBE-JTH.xml
 Pseudopotential format is: paw10
 basis_size (lnmax)=  4 (lmn_size=  8), orbitals=   0   0   1   1
 Spheres core radius: rc_sph= 1.80315674
 1 radial meshes are used:
  - mesh 1: r(i)=AA*[exp(BB*(i-1))-1], size=1400 , AA= 0.50355E-03 BB= 0.85603E-02
 Shapefunction is SIN type: shapef(r)=[sin(pi*r/rshp)/(pi*r/rshp)]**2
 Radius for shape functions =  1.61320365
 mmax= 1400
 Radial grid used for partial waves is grid 1
 Radial grid used for projectors is grid 1
 Radial grid used for (t)core density is grid 1
 Radial grid used for Vloc is grid 1
 Radial grid used for pseudo valence density is grid 1
 Mesh size for Vloc has been set to 1238 to avoid numerical noise.
 Compensation charge density is not taken into account in XC energy/potential
 pspatm: atomic psp has been read  and splines computed

- pspini: atom type   3  psp file is ../../../Psps_for_tests/ATOMICDATA/Zr.GGA_PBE-JTH.xml
- pspatm: opening atomic psp file    ../../../Psps_for_tests/ATOMICDATA/Zr.GGA_PBE-JTH.xml
- pspatm : Reading pseudopotential header in XML form from ../../../Psps_for_tests/ATOMICDATA/Zr.GGA_PBE-JTH.xml
 Pseudopotential format is: paw10
 basis_size (lnmax)=  6 (lmn_size= 18), orbitals=   0   0   1   1   2   2
 Spheres core radius: rc_sph= 2.21000000
 1 radial meshes are used:
  - mesh 1: r(i)=AA*[exp(BB*(i-1))-1], size= 941 , AA= 0.35256E-03 BB= 0.14102E-01
 Shapefunction is BESSEL type: shapef(r,l)=aa(1,l)*jl(q(1,l)*r)+aa(2,l)*jl(q(2,l)*r)
 Radius for shape functions =  2.21000000
 mmax=  941
 Radial grid used for partial waves is grid 1
 Radial grid used for projectors is grid 1
 Radial grid used for (t)core density is grid 1
 Radial grid used for Vloc is grid 1
 Radial grid used for pseudo valence density is grid 1
 Mesh size for Vloc has been set to  777 to avoid numerical noise.
 Compensation charge density is not taken into account in XC energy/potential
 pspatm: atomic psp has been read  and splines computed

--------------------------------------------------------------------------------

_setup2: Arith. and geom. avg. npw (full set) are    6096.377    6096.369

================================================================================

--- !BeginCycle
iteration_state: {dtset: 2, }
solver: {iscf: 17, nstep: 2500, nline: 4, wfoptalg: 10, }
tolerances: {toldfe: 1.00E-08, }
...

     iter   Etot(hartree)      deltaE(h)  residm     nres2
 ETOT  1  -179.69330595569    -1.797E+02 2.074E-01 2.862E+01
 ETOT  2  -179.82629956545    -1.330E-01 1.987E-02 6.193E+00
 ETOT  3  -179.82454453049     1.755E-03 5.393E-03 1.421E+00
 ETOT  4  -179.82527944402    -7.349E-04 5.423E-03 5.409E-02
 ETOT  5  -179.82516955624     1.099E-04 1.406E-03 7.505E-03
 ETOT  6  -179.82521422925    -4.467E-05 2.439E-03 3.432E-04
 ETOT  7  -179.82521672465    -2.495E-06 6.571E-04 9.948E-05
 ETOT  8  -179.82521769523    -9.706E-07 1.465E-03 8.779E-06
 ETOT  9  -179.82521771003    -1.480E-08 3.196E-04 4.273E-07
 ETOT 10  -179.82521771428    -4.248E-09 3.624E-04 4.871E-08
 ETOT 11  -179.82521771473    -4.475E-10 1.959E-04 7.445E-09

 At SCF step   11, etot is converged : 
  for the second time, diff in etot=  4.475E-10 < toldfe=  1.000E-08

 Cartesian components of stress tensor (hartree/bohr^3)
  sigma(1 1)= -1.47083331E-05  sigma(3 2)=  0.00000000E+00
  sigma(2 2)= -1.47083331E-05  sigma(3 1)=  0.00000000E+00
  sigma(3 3)= -1.47083331E-05  sigma(2 1)=  0.00000000E+00


--- !ResultsGS
iteration_state: {dtset: 2, }
comment   : Summary of ground state results
lattice_vectors:
- [  0.0000000,   9.9900910,   9.9900910, ]
- [  9.9900910,   0.0000000,   9.9900910, ]
- [  9.9900910,   9.9900910,   0.0000000, ]
lattice_lengths: [  14.12812,   14.12812,   14.12812, ]
lattice_angles: [ 60.000,  60.000,  60.000, ] # degrees, (23, 13, 12)
lattice_volume:   1.9940605E+03
convergence: {deltae: -4.475E-10, res2:  7.445E-09, residm:  1.959E-04, diffor: null, }
etotal    :  -1.79825218E+02
entropy   :   0.00000000E+00
fermie    :  -3.43440452E-03
cartesian_stress_tensor: # hartree/bohr^3
- [ -1.47083331E-05,   0.00000000E+00,   0.00000000E+00, ]
- [  0.00000000E+00,  -1.47083331E-05,   0.00000000E+00, ]
- [  0.00000000E+00,   0.00000000E+00,  -1.47083331E-05, ]
pressure_GPa:   4.3273E-01
xred      :
- [  2.5000E-01,   2.5000E-01,   2.5000E-01, Cs]
- [  7.5000E-01,   7.5000E-01,   7.5000E-01, Cs]
- [  2.3478E-01,   2.3478E-01,   7.6522E-01, Cl]
- [  7.6522E-01,   7.6522E-01,   2.3478E-01, Cl]
- [  2.3478E-01,   7.6522E-01,   7.6522E-01, Cl]
- [  7.6522E-01,   2.3478E-01,   7.6522E-01, Cl]
- [  2.3478E-01,   7.6522E-01,   2.3478E-01, Cl]
- [  7.6522E-01,   2.3478E-01,   2.3478E-01, Cl]
- [  6.6143E-19,  -8.3174E-20,  -1.2116E-19, Zr]
cartesian_forces: # hartree/bohr
- [ -3.36914502E-30,   2.03130263E-21,   1.49986192E-22, ]
- [ -3.36914502E-30,   2.03130263E-21,   1.49986192E-22, ]
- [ -6.97191331E-22,   2.72849397E-21,  -6.53567525E-05, ]
- [  6.12357921E-21,  -4.09227658E-21,   6.53567525E-05, ]
- [  6.53567525E-05,   1.33411130E-21,   8.47177519E-22, ]
- [  4.72919655E-21,   6.53567525E-05,  -4.57921036E-21, ]
- [  2.04706703E-21,  -6.53567525E-05,  -1.89708084E-21, ]
- [ -6.53567525E-05,  -2.69789392E-21,   4.87918274E-21, ]
- [ -0.00000000E+00,   2.03130263E-21,   1.49986188E-22, ]
force_length_stats: {min:   2.03683240E-21, max:   6.53567525E-05, mean:   4.35711683E-05, }
...

 Integrated electronic density in atomic spheres:
 ------------------------------------------------
 Atom  Sphere_radius  Integrated_density
    1        2.20660          5.38782947
    2        2.20660          5.38782947
    3        1.80316          4.35779392
    4        1.80316          4.35779392
    5        1.80316          4.35779392
    6        1.80316          4.35779392
    7        1.80316          4.35779392
    8        1.80316          4.35779392
    9        2.21000          8.80986809

 PAW TEST:
 ==== Compensation charge inside spheres ============
 The following values must be close to each other ...
 Compensation charge over spherical meshes =     -6.086239054851844
 Compensation charge over fine fft grid    =     -6.086207839580666

 ==== Results concerning PAW augmentation regions ====

 Total pseudopotential strength Dij (hartree):
 Atom #  1
   0.40461  -0.13419   0.00000   0.00000   0.00000   0.00000   0.00000   0.00000   0.00000   0.00000   0.00000   0.00000 ...
  -0.13419   0.04018   0.00000   0.00000   0.00000   0.00000   0.00000   0.00000   0.00000   0.00000   0.00000   0.00000 ...
   0.00000   0.00000  -0.08923   0.00000   0.00000  -0.16915   0.00000   0.00000   0.00000   0.00000   0.00000  -0.00000 ...
   0.00000   0.00000   0.00000  -0.08923   0.00000   0.00000  -0.16915   0.00000  -0.00000   0.00000   0.00000   0.00000 ...
   0.00000   0.00000   0.00000   0.00000  -0.08923   0.00000   0.00000  -0.16915   0.00000  -0.00000   0.00000   0.00000 ...
   0.00000   0.00000  -0.16915   0.00000   0.00000   0.39318   0.00000   0.00000   0.00000   0.00000   0.00000   0.00000 ...
   0.00000   0.00000   0.00000  -0.16915   0.00000   0.00000   0.39318   0.00000   0.00000   0.00000   0.00000   0.00000 ...
   0.00000   0.00000   0.00000   0.00000  -0.16915   0.00000   0.00000   0.39318   0.00000   0.00000   0.00000   0.00000 ...
   0.00000   0.00000   0.00000  -0.00000   0.00000   0.00000   0.00000   0.00000   0.00584   0.00000   0.00000   0.00000 ...
   0.00000   0.00000   0.00000   0.00000  -0.00000   0.00000   0.00000   0.00000   0.00000   0.00584   0.00000   0.00000 ...
   0.00000   0.00000   0.00000   0.00000   0.00000   0.00000   0.00000   0.00000   0.00000   0.00000   0.00584   0.00000 ...
   0.00000   0.00000  -0.00000   0.00000   0.00000   0.00000   0.00000   0.00000   0.00000   0.00000   0.00000   0.00584 ...
   ...  only 12  components have been written...
 Atom #  9
   3.03642  -0.88352   0.00000   0.00000   0.00000   0.00000   0.00000   0.00000   0.00000   0.00000   0.00000   0.00000 ...
  -0.88352   0.26380   0.00000   0.00000   0.00000   0.00000   0.00000   0.00000   0.00000   0.00000   0.00000   0.00000 ...
   0.00000   0.00000   0.28397   0.00000   0.00000  -0.05824   0.00000   0.00000   0.00000   0.00000   0.00000   0.00000 ...
   0.00000   0.00000   0.00000   0.28397   0.00000   0.00000  -0.05824   0.00000   0.00000   0.00000   0.00000   0.00000 ...
   0.00000   0.00000   0.00000   0.00000   0.28397   0.00000   0.00000  -0.05824   0.00000   0.00000   0.00000   0.00000 ...
   0.00000   0.00000  -0.05824   0.00000   0.00000   0.01578   0.00000   0.00000   0.00000   0.00000   0.00000   0.00000 ...
[...]
                       4.9089192810E+00  2.4532661911E+00  4.9089192810E+00
                       2.4532661911E+00  4.9089192810E+00  4.9089192810E+00
                      -8.9276913436E-19  2.0624149350E-18  2.9449875692E-18
           xangst10    2.4274875565E+00  2.4274875565E+00  2.4274875565E+00
                       7.2824626694E+00  7.2824626694E+00  7.2824626694E+00
                       4.8549751129E+00  4.8549751129E+00  2.4461623098E+00
                       4.8549751129E+00  4.8549751129E+00  7.2637879161E+00
                       7.2637879161E+00  4.8549751129E+00  4.8549751129E+00
                       4.8549751129E+00  7.2637879161E+00  4.8549751129E+00
                       4.8549751129E+00  2.4461623098E+00  4.8549751129E+00
                       2.4461623098E+00  4.8549751129E+00  4.8549751129E+00
                      -9.4003756539E-19  2.6224836625E-18  2.7990751180E-18
            xcart1     5.0460153398E+00  5.0460153398E+00  5.0460153398E+00
                       1.5138046019E+01  1.5138046019E+01  1.5138046019E+01
                       1.0092030680E+01  1.0092030680E+01  4.6951877425E+00
                       1.0092030680E+01  1.0092030680E+01  1.5488873617E+01
                       1.5488873617E+01  1.0092030680E+01  1.0092030680E+01
                       1.0092030680E+01  1.5488873617E+01  1.0092030680E+01
                       1.0092030680E+01  4.6951877425E+00  1.0092030680E+01
                       4.6951877425E+00  1.0092030680E+01  1.0092030680E+01
                       5.9234585286E-19  4.3129344680E-18  6.0083568884E-18
            xcart2     4.9950454882E+00  4.9950454882E+00  4.9950454882E+00
                       1.4985136464E+01  1.4985136464E+01  1.4985136464E+01
                       9.9900909763E+00  9.9900909763E+00  4.6910450371E+00
                       9.9900909763E+00  9.9900909763E+00  1.5289136916E+01
                       1.5289136916E+01  9.9900909763E+00  9.9900909763E+00
                       9.9900909763E+00  1.5289136916E+01  9.9900909763E+00
                       9.9900909763E+00  4.6910450371E+00  9.9900909763E+00
                       4.6910450371E+00  9.9900909763E+00  9.9900909763E+00
                      -2.0413204178E-18  5.3973454007E-18  5.7768389811E-18
            xcart3     4.9440756361E+00  4.9440756361E+00  4.9440756361E+00
                       1.4832226908E+01  1.4832226908E+01  1.4832226908E+01
                       9.8881512723E+00  9.8881512723E+00  4.6864050433E+00
                       9.8881512723E+00  9.8881512723E+00  1.5089897501E+01
                       1.5089897501E+01  9.8881512723E+00  9.8881512723E+00
                       9.8881512723E+00  1.5089897501E+01  9.8881512723E+00
                       9.8881512723E+00  4.6864050433E+00  9.8881512723E+00
                       4.6864050433E+00  9.8881512723E+00  9.8881512723E+00
                      -1.9113326985E-18  5.2965876463E-18  5.7169728411E-18
            xcart4     4.8931057841E+00  4.8931057841E+00  4.8931057841E+00
                       1.4679317352E+01  1.4679317352E+01  1.4679317352E+01
                       9.7862115682E+00  9.7862115682E+00  4.6805885247E+00
                       9.7862115682E+00  9.7862115682E+00  1.4891834612E+01
                       1.4891834612E+01  9.7862115682E+00  9.7862115682E+00
                       9.7862115682E+00  1.4891834612E+01  9.7862115682E+00
                       9.7862115682E+00  4.6805885247E+00  9.7862115682E+00
                       4.6805885247E+00  9.7862115682E+00  9.7862115682E+00
                      -3.4066700171E-18  6.4486126805E-18  4.7924092765E-18
            xcart5     4.8421359321E+00  4.8421359321E+00  4.8421359321E+00
                       1.4526407796E+01  1.4526407796E+01  1.4526407796E+01
                       9.6842718642E+00  9.6842718642E+00  4.6738000094E+00
                       9.6842718642E+00  9.6842718642E+00  1.4694743719E+01
                       1.4694743719E+01  9.6842718642E+00  9.6842718642E+00
                       9.6842718642E+00  1.4694743719E+01  9.6842718642E+00
                       9.6842718642E+00  4.6738000094E+00  9.6842718642E+00
                       4.6738000094E+00  9.6842718642E+00  9.6842718642E+00
                      -1.5510919129E-18  6.5554930877E-18  2.6530655819E-18
            xcart6     4.7911660804E+00  4.7911660804E+00  4.7911660804E+00
                       1.4373498241E+01  1.4373498241E+01  1.4373498241E+01
                       9.5823321609E+00  9.5823321609E+00  4.6662904888E+00
                       9.5823321609E+00  9.5823321609E+00  1.4498373833E+01
                       1.4498373833E+01  9.5823321609E+00  9.5823321609E+00
                       9.5823321609E+00  1.4498373833E+01  9.5823321609E+00
                       9.5823321609E+00  4.6662904888E+00  9.5823321609E+00
                       4.6662904888E+00  9.5823321609E+00  9.5823321609E+00
                      -2.1021226921E-18  8.1099376392E-18  1.3733359532E-18
            xcart7     4.7401962284E+00  4.7401962284E+00  4.7401962284E+00
                       1.4220588685E+01  1.4220588685E+01  1.4220588685E+01
                       9.4803924568E+00  9.4803924568E+00  4.6576635107E+00
                       9.4803924568E+00  9.4803924568E+00  1.4303121403E+01
                       1.4303121403E+01  9.4803924568E+00  9.4803924568E+00
                       9.4803924568E+00  1.4303121403E+01  9.4803924568E+00
                       9.4803924568E+00  4.6576635107E+00  9.4803924568E+00
                       4.6576635107E+00  9.4803924568E+00  9.4803924568E+00
                      -2.3777016954E-18  8.2355522080E-18  1.4046232457E-18
            xcart8     4.6892263764E+00  4.6892263764E+00  4.6892263764E+00
                       1.4067679129E+01  1.4067679129E+01  1.4067679129E+01
                       9.3784527528E+00  9.3784527528E+00  4.6476043946E+00
                       9.3784527528E+00  9.3784527528E+00  1.4109301111E+01
                       1.4109301111E+01  9.3784527528E+00  9.3784527528E+00
                       9.3784527528E+00  1.4109301111E+01  9.3784527528E+00
                       9.3784527528E+00  4.6476043946E+00  9.3784527528E+00
                       4.6476043946E+00  9.3784527528E+00  9.3784527528E+00
                      -1.7959360724E-18  5.0129837321E-18  5.4227734283E-18
            xcart9     4.6382565247E+00  4.6382565247E+00  4.6382565247E+00
                       1.3914769574E+01  1.3914769574E+01  1.3914769574E+01
                       9.2765130495E+00  9.2765130495E+00  4.6360012322E+00
                       9.2765130495E+00  9.2765130495E+00  1.3917024867E+01
                       1.3917024867E+01  9.2765130495E+00  9.2765130495E+00
                       9.2765130495E+00  1.3917024867E+01  9.2765130495E+00
                       9.2765130495E+00  4.6360012322E+00  9.2765130495E+00
                       4.6360012322E+00  9.2765130495E+00  9.2765130495E+00
                      -1.6870891638E-18  3.8973993995E-18  5.5652199705E-18
            xcart10    4.5872866727E+00  4.5872866727E+00  4.5872866727E+00
                       1.3761860018E+01  1.3761860018E+01  1.3761860018E+01
                       9.1745733454E+00  9.1745733454E+00  4.6225768421E+00
                       9.1745733454E+00  9.1745733454E+00  1.3726569849E+01
                       1.3726569849E+01  9.1745733454E+00  9.1745733454E+00
                       9.1745733454E+00  1.3726569849E+01  9.1745733454E+00
                       9.1745733454E+00  4.6225768421E+00  9.1745733454E+00
                       4.6225768421E+00  9.1745733454E+00  9.1745733454E+00
                      -1.7764135532E-18  4.9557759101E-18  5.2894853983E-18
             xred1     2.5000000000E-01  2.5000000000E-01  2.5000000000E-01
                       7.5000000000E-01  7.5000000000E-01  7.5000000000E-01
                       2.3261858250E-01  2.3261858250E-01  7.6738141750E-01
                       7.6738141750E-01  7.6738141750E-01  2.3261858250E-01
                       2.3261858250E-01  7.6738141750E-01  7.6738141750E-01
                       7.6738141750E-01  2.3261858250E-01  7.6738141750E-01
                       2.3261858250E-01  7.6738141750E-01  2.3261858250E-01
                       7.6738141750E-01  2.3261858250E-01  2.3261858250E-01
                       4.8201129249E-19  1.1334528926E-19 -5.4650872679E-20
             xred2     2.5000000000E-01  2.5000000000E-01  2.5000000000E-01
                       7.5000000000E-01  7.5000000000E-01  7.5000000000E-01
                       2.3478490077E-01  2.3478490077E-01  7.6521509923E-01
                       7.6521509923E-01  7.6521509923E-01  2.3478490077E-01
                       2.3478490077E-01  7.6521509923E-01  7.6521509923E-01
                       7.6521509923E-01  2.3478490077E-01  7.6521509923E-01
                       2.3478490077E-01  7.6521509923E-01  2.3478490077E-01
                       7.6521509923E-01  2.3478490077E-01  2.3478490077E-01
                       6.6143065318E-19 -8.3173758942E-20 -1.2116075839E-19
             xred3     2.5000000000E-01  2.5000000000E-01  2.5000000000E-01
                       7.5000000000E-01  7.5000000000E-01  7.5000000000E-01
                       2.3697073974E-01  2.3697073974E-01  7.6302926026E-01
                       7.6302926026E-01  7.6302926026E-01  2.3697073974E-01
                       2.3697073974E-01  7.6302926026E-01  7.6302926026E-01
                       7.6302926026E-01  2.3697073974E-01  7.6302926026E-01
                       2.3697073974E-01  7.6302926026E-01  2.3697073974E-01
                       7.6302926026E-01  2.3697073974E-01  2.3697073974E-01
                       6.5355458417E-19 -7.5390609560E-20 -1.1790464310E-19
             xred4     2.5000000000E-01  2.5000000000E-01  2.5000000000E-01
                       7.5000000000E-01  7.5000000000E-01  7.5000000000E-01
                       2.3914200567E-01  2.3914200567E-01  7.6085799433E-01
                       7.6085799433E-01  7.6085799433E-01  2.3914200567E-01
                       2.3914200567E-01  7.6085799433E-01  7.6085799433E-01
                       7.6085799433E-01  2.3914200567E-01  7.6085799433E-01
                       2.3914200567E-01  7.6085799433E-01  2.3914200567E-01
                       7.6085799433E-01  2.3914200567E-01  2.3914200567E-01
                       7.4838418687E-19 -2.5867381804E-19 -8.9435355088E-20
             xred5     2.5000000000E-01  2.5000000000E-01  2.5000000000E-01
                       7.5000000000E-01  7.5000000000E-01  7.5000000000E-01
                       2.4130879817E-01  2.4130879817E-01  7.5869120183E-01
                       7.5869120183E-01  7.5869120183E-01  2.4130879817E-01
                       2.4130879817E-01  7.5869120183E-01  7.5869120183E-01
                       7.5869120183E-01  2.4130879817E-01  7.5869120183E-01
                       2.4130879817E-01  7.5869120183E-01  2.4130879817E-01
                       7.5869120183E-01  2.4130879817E-01  2.4130879817E-01
                       5.5552191912E-19 -2.8156579530E-19  1.2139971006E-19
             xred6     2.5000000000E-01  2.5000000000E-01  2.5000000000E-01
                       7.5000000000E-01  7.5000000000E-01  7.5000000000E-01
                       2.4348407102E-01  2.4348407102E-01  7.5651592898E-01
                       7.5651592898E-01  7.5651592898E-01  2.4348407102E-01
                       2.4348407102E-01  7.5651592898E-01  7.5651592898E-01
                       7.5651592898E-01  2.4348407102E-01  7.5651592898E-01
                       2.4348407102E-01  7.5651592898E-01  2.4348407102E-01
                       7.5651592898E-01  2.4348407102E-01  2.4348407102E-01
                       6.0451861249E-19 -4.6119901866E-19  2.4182416744E-19
             xred7     2.5000000000E-01  2.5000000000E-01  2.5000000000E-01
                       7.5000000000E-01  7.5000000000E-01  7.5000000000E-01
                       2.4564718876E-01  2.4564718876E-01  7.5435281124E-01
                       7.5435281124E-01  7.5435281124E-01  2.4564718876E-01
                       2.4564718876E-01  7.5435281124E-01  7.5435281124E-01
                       7.5435281124E-01  2.4564718876E-01  7.5435281124E-01
                       2.4564718876E-01  7.5435281124E-01  2.4564718876E-01
                       7.5435281124E-01  2.4564718876E-01  2.4564718876E-01
                       6.3382804055E-19 -4.8566716513E-19  2.3486513281E-19
             xred8     2.5000000000E-01  2.5000000000E-01  2.5000000000E-01
                       7.5000000000E-01  7.5000000000E-01  7.5000000000E-01
                       2.4778097822E-01  2.4778097822E-01  7.5221902178E-01
                       7.5221902178E-01  7.5221902178E-01  2.4778097822E-01
                       2.4778097822E-01  7.5221902178E-01  7.5221902178E-01
                       7.5221902178E-01  2.4778097822E-01  7.5221902178E-01
                       2.4778097822E-01  7.5221902178E-01  2.4778097822E-01
                       7.5221902178E-01  2.4778097822E-01  2.4778097822E-01
                       6.5211680195E-19 -7.3900589615E-20 -1.1759539802E-19
             xred9     2.5000000000E-01  2.5000000000E-01  2.5000000000E-01
                       7.5000000000E-01  7.5000000000E-01  7.5000000000E-01
                       2.4987844072E-01  2.4987844072E-01  7.5012155928E-01
                       7.5012155928E-01  7.5012155928E-01  2.4987844072E-01
                       2.4987844072E-01  7.5012155928E-01  7.5012155928E-01
                       7.5012155928E-01  2.4987844072E-01  7.5012155928E-01
                       2.4987844072E-01  7.5012155928E-01  2.4987844072E-01
                       7.5012155928E-01  2.4987844072E-01  2.4987844072E-01
                       6.0096441812E-19 -1.0385687366E-21 -1.8082816878E-19
             xred10    2.5000000000E-01  2.5000000000E-01  2.5000000000E-01
                       7.5000000000E-01  7.5000000000E-01  7.5000000000E-01
                       2.5192325943E-01  2.5192325943E-01  7.4807674057E-01
                       7.4807674057E-01  7.4807674057E-01  2.5192325943E-01
                       2.5192325943E-01  7.4807674057E-01  7.4807674057E-01
                       7.4807674057E-01  2.5192325943E-01  7.4807674057E-01
                       2.5192325943E-01  7.4807674057E-01  2.5192325943E-01
                       7.4807674057E-01  2.5192325943E-01  2.5192325943E-01
                       6.5516261133E-19 -7.8625131144E-20 -1.1499842892E-19
            znucl       55.00000   17.00000   40.00000

================================================================================


- Timing analysis has been suppressed with timopt=0



================================================================================

 Suggested references for the acknowledgment of ABINIT usage.

 The users of ABINIT have little formal obligations with respect to the ABINIT group
 (those specified in the GNU General Public License, http://www.gnu.org/copyleft/gpl.txt).
 However, it is common practice in the scientific literature,
 to acknowledge the efforts of people that have made the research possible.
 In this spirit, please find below suggested citations of work written by ABINIT developers,
 corresponding to implementations inside of ABINIT that you have used in the present run.
 Note also that it will be of great value to readers of publications presenting these results,
 to read papers enabling them to understand the theoretical formalism and details
 of the ABINIT implementation.
 For information on why they are suggested, see also https://docs.abinit.org/theory/acknowledgments.
-
- [1] Implementation of the Projector Augmented-Wave Method in the ABINIT code.
- M. Torrent, F. Jollet, F. Bottin, G. Zerah, and X. Gonze Comput. Mat. Science 42, 337, (2008).
- Comment: PAW calculations. Strong suggestion to cite this paper.
- DOI and bibtex: see https://docs.abinit.org/theory/bibliography/#torrent2008
-
- [2] Libxc: A library of exchange and correlation functionals for density functional theory.
- M.A.L. Marques, M.J.T. Oliveira, T. Burnus, Computer Physics Communications 183, 2227 (2012).
- Comment: to be cited when LibXC is used (negative value of ixc)
- Strong suggestion to cite this paper.
- DOI and bibtex: see https://docs.abinit.org/theory/bibliography/#marques2012
-
- [3] The Abinit project: Impact, environment and recent developments.
- Computer Phys. Comm. 248, 107042 (2020).
- X.Gonze, B. Amadon, G. Antonius, F.Arnardi, L.Baguet, J.-M.Beuken,
- J.Bieder, F.Bottin, J.Bouchet, E.Bousquet, N.Brouwer, F.Bruneval,
- G.Brunin, T.Cavignac, J.-B. Charraud, Wei Chen, M.Cote, S.Cottenier,
- J.Denier, G.Geneste, Ph.Ghosez, M.Giantomassi, Y.Gillet, O.Gingras,
- D.R.Hamann, G.Hautier, Xu He, N.Helbig, N.Holzwarth, Y.Jia, F.Jollet,
- W.Lafargue-Dit-Hauret, K.Lejaeghere, M.A.L.Marques, A.Martin, C.Martins,
- H.P.C. Miranda, F.Naccarato, K. Persson, G.Petretto, V.Planes, Y.Pouillon,
- S.Prokhorenko, F.Ricci, G.-M.Rignanese, A.H.Romero, M.M.Schmitt, M.Torrent,
- M.J.van Setten, B.Van Troeye, M.J.Verstraete, G.Zerah and J.W.Zwanzig
- Comment: the fifth generic paper describing the ABINIT project.
- Note that a version of this paper, that is not formatted for Computer Phys. Comm. 
- is available at https://www.abinit.org/sites/default/files/ABINIT20.pdf .
- The licence allows the authors to put it on the Web.
- DOI and bibtex: see https://docs.abinit.org/theory/bibliography/#gonze2020
-
- [4] ABINIT: Overview, and focus on selected capabilities
- J. Chem. Phys. 152, 124102 (2020).
- A. Romero, D.C. Allan, B. Amadon, G. Antonius, T. Applencourt, L.Baguet,
- J.Bieder, F.Bottin, J.Bouchet, E.Bousquet, F.Bruneval,
- G.Brunin, D.Caliste, M.Cote,
- J.Denier, C. Dreyer, Ph.Ghosez, M.Giantomassi, Y.Gillet, O.Gingras,
- D.R.Hamann, G.Hautier, F.Jollet, G. Jomard,
- A.Martin, 
- H.P.C. Miranda, F.Naccarato, G.Petretto, N.A. Pike, V.Planes,
- S.Prokhorenko, T. Rangel, F.Ricci, G.-M.Rignanese, M.Royo, M.Stengel, M.Torrent,
- M.J.van Setten, B.Van Troeye, M.J.Verstraete, J.Wiktor, J.W.Zwanziger, and X.Gonze.
- Comment: a global overview of ABINIT, with focus on selected capabilities .
- Note that a version of this paper, that is not formatted for J. Chem. Phys 
- is available at https://www.abinit.org/sites/default/files/ABINIT20_JPC.pdf .
- The licence allows the authors to put it on the Web.
- DOI and bibtex: see https://docs.abinit.org/theory/bibliography/#romero2020
-
- [5] Recent developments in the ABINIT software package.
- Computer Phys. Comm. 205, 106 (2016).
- X.Gonze, F.Jollet, F.Abreu Araujo, D.Adams, B.Amadon, T.Applencourt,
- C.Audouze, J.-M.Beuken, J.Bieder, A.Bokhanchuk, E.Bousquet, F.Bruneval
- D.Caliste, M.Cote, F.Dahm, F.Da Pieve, M.Delaveau, M.Di Gennaro,
- B.Dorado, C.Espejo, G.Geneste, L.Genovese, A.Gerossier, M.Giantomassi,
- Y.Gillet, D.R.Hamann, L.He, G.Jomard, J.Laflamme Janssen, S.Le Roux,
- A.Levitt, A.Lherbier, F.Liu, I.Lukacevic, A.Martin, C.Martins,
- M.J.T.Oliveira, S.Ponce, Y.Pouillon, T.Rangel, G.-M.Rignanese,
- A.H.Romero, B.Rousseau, O.Rubel, A.A.Shukri, M.Stankovski, M.Torrent,
- M.J.Van Setten, B.Van Troeye, M.J.Verstraete, D.Waroquier, J.Wiktor,
- B.Xu, A.Zhou, J.W.Zwanziger.
- Comment: the fourth generic paper describing the ABINIT project.
- Note that a version of this paper, that is not formatted for Computer Phys. Comm. 
- is available at https://www.abinit.org/sites/default/files/ABINIT16.pdf .
- The licence allows the authors to put it on the Web.
- DOI and bibtex: see https://docs.abinit.org/theory/bibliography/#gonze2016
-
- Proc.   0 individual time (sec): cpu=       3082.1  wall=       3086.8

================================================================================

 Calculation completed.
.Delivered   0 WARNINGs and   4 COMMENTs to log file.
+Overall time at end (sec) : cpu=      12328.3  wall=      12347.2
