
.Version 9.2.2 of ABINIT 
.(MPI version, prepared for a x86_64_linux_gnu9.3 computer) 

.Copyright (C) 1998-2020 ABINIT group . 
 ABINIT comes with ABSOLUTELY NO WARRANTY.
 It is free software, and you are welcome to redistribute it
 under certain conditions (GNU General Public License,
 see ~abinit/COPYING or http://www.gnu.org/copyleft/gpl.txt).

 ABINIT is a project of the Universite Catholique de Louvain,
 Corning Inc. and other collaborators, see ~abinit/doc/developers/contributors.txt .
 Please read https://docs.abinit.org/theory/acknowledgments for suggested
 acknowledgments of the ABINIT effort.
 For more information, see https://www.abinit.org .

.Starting date : Sun  4 Dec 2022.
- ( at 21h25 )
  
- The starting date is more than 2 years after the initial release
- of this version of ABINIT, namely Nov 2020.
- Note that the use beyond 3 years after the release will not be supported.
- Action: please, switch to a more recent version of ABINIT.

- input  file    -> Cs2TiI6.in
- output file    -> Cs2TiI6.out
- root for input  files -> Cs2TiI6i
- root for output files -> Cs2TiI6o

- inpspheads : Reading pseudopotential header in XML form from 
-   ../../../Psps_for_tests/ATOMICDATA/Cs.GGA_PBE-JTH.xml
- inpspheads : Reading pseudopotential header in XML form from 
-   ../../../Psps_for_tests/ATOMICDATA/I.GGA_PBE-JTH.xml
- inpspheads : Reading pseudopotential header in XML form from 
-   ../../../Psps_for_tests/ATOMICDATA/Zr.GGA_PBE-JTH.xml
- inpspheads : Reading pseudopotential header in XML form from 
-   ../../../Psps_for_tests/ATOMICDATA/Cl.GGA_PBE-JTH.xml

 DATASET    1 : space group I4 m m (#107); Bravais tI (body-center tetrag.)
================================================================================
 Values of the parameters that define the memory need for DATASET  1.
     intxc =       0    ionmov =       2      iscf =      17    lmnmax =      18
     lnmax =       6     mgfft =      72  mpssoang =       3    mqgrid =    4259
     natom =       9  nloc_mem =       2    nspden =       1   nspinor =       1
    nsppol =       1      nsym =       8    n1xccc =       1    ntypat =       4
    occopt =       1   xclevel =       2
-    mband =          42        mffmem =           1         mkmem =           5
       mpw =       13334          nfft =      373248          nkpt =          20
Pmy_natom=         3
 PAW method is used; the additional fine FFT grid is defined by:
   mgfftf=       108    nfftf =   1259712
================================================================================
P This job should need less than                     428.022 Mbytes of memory.
  Rough estimation (10% accuracy) of disk space for files :
_ WF disk file :    170.909 Mbytes ; DEN or POT disk file :      9.613 Mbytes.
================================================================================


 DATASET    2 : space group I4 m m (#107); Bravais tI (body-center tetrag.)
================================================================================
 Values of the parameters that define the memory need for DATASET  2.
     intxc =       0    ionmov =       2      iscf =      17    lmnmax =      18
     lnmax =       6     mgfft =      72  mpssoang =       3    mqgrid =    4259
     natom =       9  nloc_mem =       2    nspden =       1   nspinor =       1
    nsppol =       1      nsym =       8    n1xccc =       1    ntypat =       4
    occopt =       1   xclevel =       2
-    mband =          42        mffmem =           1         mkmem =           5
       mpw =       13334          nfft =      373248          nkpt =          20
Pmy_natom=         3
 PAW method is used; the additional fine FFT grid is defined by:
   mgfftf=       108    nfftf =   1259712
================================================================================
P This job should need less than                     430.903 Mbytes of memory.
  Rough estimation (10% accuracy) of disk space for files :
_ WF disk file :    170.909 Mbytes ; DEN or POT disk file :      9.613 Mbytes.
================================================================================

--------------------------------------------------------------------------------
------------- Echo of variables that govern the present computation ------------
--------------------------------------------------------------------------------
-
- outvars: echo of selected default values                                      
-   iomode0 =  0 , fftalg0 =112 , wfoptalg0 = 10
-
- outvars: echo of global parameters not present in the input file              
-  max_nthreads =    0
-
 -outvars: echo values of preprocessed input variables --------
            acell1     1.5886054674E+01  1.5886054674E+01  1.6017060638E+01 Bohr
            acell2     1.5886054642E+01  1.5886054642E+01  1.6017060649E+01 Bohr
              amu      1.32905430E+02  1.26904470E+02  9.12240000E+01
                       3.54527000E+01
           diemac      1.20000000E+01
          dilatmx      1.15000000E+00
             ecut      1.60000000E+01 Hartree
           ecutsm      5.00000000E-01 Hartree
-          fftalg         112
           ionmov           2
              ixc     -101130
           jdtset        1    2
              kpt     -1.25000000E-01 -2.50000000E-01  0.00000000E+00
                      -1.25000000E-01  5.00000000E-01  0.00000000E+00
                      -2.50000000E-01 -3.75000000E-01  0.00000000E+00
                      -1.25000000E-01 -3.75000000E-01  1.25000000E-01
                      -1.25000000E-01  2.50000000E-01  0.00000000E+00
                      -2.50000000E-01  3.75000000E-01  0.00000000E+00
                      -1.25000000E-01  3.75000000E-01  1.25000000E-01
                      -3.75000000E-01  5.00000000E-01  0.00000000E+00
                      -2.50000000E-01  5.00000000E-01  1.25000000E-01
                      -1.25000000E-01  5.00000000E-01  2.50000000E-01
                      -1.25000000E-01  0.00000000E+00  0.00000000E+00
                      -1.25000000E-01  1.25000000E-01  1.25000000E-01
                      -1.25000000E-01  2.50000000E-01  2.50000000E-01
                      -1.25000000E-01  3.75000000E-01  3.75000000E-01
                      -3.75000000E-01  0.00000000E+00  0.00000000E+00
                      -2.50000000E-01  0.00000000E+00  1.25000000E-01
                      -3.75000000E-01  1.25000000E-01  1.25000000E-01
                      -2.50000000E-01  1.25000000E-01  2.50000000E-01
                      -3.75000000E-01  2.50000000E-01  2.50000000E-01
                      -2.50000000E-01  2.50000000E-01  3.75000000E-01
         kptrlatt        4   -4    4     -4    4    4     -4   -4    4
          kptrlen1     8.91178518E+01
          kptrlen2     8.91178514E+01
P           mkmem           5
            natom           9
            nband          42
           ndtset           2
            ngfft          72      72      72
          ngfftdg         108     108     108
             nkpt          20
            nstep        2500
             nsym           8
            ntime        1000
           ntypat           4
              occ      2.000000  2.000000  2.000000  2.000000  2.000000  2.000000
                       2.000000  2.000000  2.000000  2.000000  2.000000  2.000000
                       2.000000  2.000000  2.000000  2.000000  2.000000  2.000000
                       2.000000  2.000000  2.000000  2.000000  2.000000  2.000000
                       2.000000  2.000000  2.000000  2.000000  2.000000  2.000000
                       2.000000  2.000000  2.000000  2.000000  2.000000  2.000000
                       0.000000  0.000000  0.000000  0.000000  0.000000  0.000000
          optcell           2
        optforces           1
        pawecutdg      4.00000000E+01 Hartree
            prtwf           0
            rprim1     0.0000000000E+00  7.1293800910E-01  7.0122706392E-01
                       7.1293800910E-01  0.0000000000E+00  7.0122706392E-01
                       7.0710678119E-01  7.0710678119E-01  0.0000000000E+00
            rprim2     0.0000000000E+00  7.1293801104E-01  7.0122706195E-01
                       7.1293801104E-01  0.0000000000E+00  7.0122706195E-01
                       7.0710678119E-01  7.0710678119E-01  0.0000000000E+00
           shiftk      5.00000000E-01  5.00000000E-01  5.00000000E-01
          spgroup         107
           symrel      1  0  0   0  1  0   0  0  1       1  0 -1   0  1 -1   0  0 -1
                       0  1 -1   1  0 -1   0  0 -1       0  1  0   1  0  0   0  0  1
                       1  0  0   1  0 -1   1 -1  0       0  1  0   0  1 -1  -1  1  0
                       0  1 -1   0  1  0  -1  1  0       1  0 -1   1  0  0   1 -1  0
           toldff      1.00000000E-08
           tolmxf      1.00000000E-05
            typat1     1  1  4  2  2  2  2  2  3
            typat2     1  1  2  4  2  2  2  2  3
           useylm           1
              wtk        0.03125    0.03125    0.03125    0.06250    0.03125    0.03125
                         0.06250    0.03125    0.06250    0.06250    0.03125    0.06250
                         0.06250    0.06250    0.03125    0.06250    0.06250    0.06250
                         0.06250    0.06250
           xangst1     2.9966702568E+00  2.9966702568E+00  2.9638778924E+00
                       8.9900107704E+00  8.9900107704E+00  8.8587698995E+00
                       5.9933405136E+00  5.9933405136E+00  2.6731362947E+00
                       5.9933405136E+00  5.9933405136E+00  8.9575776446E+00
                       9.0966902820E+00  5.9933405136E+00  5.9119275351E+00
                       5.9933405136E+00  9.0966902820E+00  5.9119275351E+00
                       5.9933405136E+00  2.8899907452E+00  5.9119275351E+00
                       2.8899907452E+00  5.9933405136E+00  5.9119275351E+00
                      -3.2816307763E-13 -3.2816307763E-13  5.8064184762E-02
           xangst2     2.9966702589E+00  2.9966702589E+00  2.9310140745E+00
                       8.9900107766E+00  8.9900107766E+00  8.8259060531E+00
                       5.9933405177E+00  5.9933405177E+00  2.8322063676E+00
                       5.9933405178E+00  5.9933405178E+00  9.1166476721E+00
                       9.0966902909E+00  5.9933405177E+00  5.8778564614E+00
                       5.9933405177E+00  9.0966902909E+00  5.8778564614E+00
                       5.9933405178E+00  2.8899907446E+00  5.8778564614E+00
                       2.8899907446E+00  5.9933405178E+00  5.8778564614E+00
                      -2.6278842704E-13 -2.6278842704E-13 -5.8064183662E-02
            xcart1     5.6628860959E+00  5.6628860959E+00  5.6009175079E+00
                       1.6988658288E+01  1.6988658288E+01  1.6740648984E+01
                       1.1325772192E+01  1.1325772192E+01  5.0514955129E+00
                       1.1325772192E+01  1.1325772192E+01  1.6927368562E+01
                       1.7190253349E+01  1.1325772192E+01  1.1171923959E+01
                       1.1325772192E+01  1.7190253349E+01  1.1171923959E+01
                       1.1325772192E+01  5.4612910349E+00  1.1171923959E+01
                       5.4612910349E+00  1.1325772192E+01  1.1171923959E+01
                      -6.2013834365E-13 -6.2013834365E-13  1.0972540733E-01
            xcart2     5.6628860998E+00  5.6628860998E+00  5.5388138924E+00
                       1.6988658300E+01  1.6988658300E+01  1.6678545315E+01
                       1.1325772200E+01  1.1325772200E+01  5.3520943865E+00
                       1.1325772200E+01  1.1325772200E+01  1.7227967350E+01
                       1.7190253366E+01  1.1325772200E+01  1.1107538960E+01
                       1.1325772200E+01  1.7190253366E+01  1.1107538960E+01
                       1.1325772200E+01  5.4612910339E+00  1.1107538960E+01
                       5.4612910339E+00  1.1325772200E+01  1.1107538960E+01
                      -4.9659815801E-13 -4.9659815801E-13 -1.0972540525E-01
             xred1     2.5139373960E-01  2.5139373960E-01  2.4860626040E-01
                       7.5139373960E-01  7.5139373960E-01  7.4860626040E-01
                       2.2673327107E-01  2.2673327107E-01  7.7326672893E-01
                       7.5977453309E-01  7.5977453309E-01  2.4022546691E-01
                       2.4254510243E-01  7.6034477715E-01  7.5745489757E-01
                       7.6034477715E-01  2.4254510243E-01  7.5745489757E-01
                       2.4254510243E-01  7.6034477715E-01  2.3965522285E-01
                       7.6034477715E-01  2.4254510243E-01  2.3965522285E-01
                       4.9249574625E-03  4.9249574625E-03 -4.9249574625E-03
             xred2     2.4860625819E-01  2.4860625819E-01  2.5139374181E-01
                       7.4860625819E-01  7.4860625819E-01  7.5139374181E-01
                       2.4022546790E-01  2.4022546790E-01  7.5977453210E-01
                       7.7326672865E-01  7.7326672865E-01  2.2673327135E-01
                       2.3965522354E-01  7.5745489869E-01  7.6034477646E-01
                       7.5745489869E-01  2.3965522354E-01  7.6034477646E-01
                       2.3965522354E-01  7.5745489869E-01  2.4254510131E-01
                       7.5745489869E-01  2.3965522354E-01  2.4254510131E-01
                      -4.9249573930E-03 -4.9249573930E-03  4.9249573930E-03
            znucl       55.00000   53.00000   40.00000   17.00000

================================================================================

 chkinp: Checking input parameters for consistency, jdtset=   1.

 chkinp: Checking input parameters for consistency, jdtset=   2.

================================================================================
== DATASET  1 ==================================================================
-   mpi_nproc: 4, omp_nthreads: -1 (-1 if OMP is not activated)


--- !DatasetInfo
iteration_state: {dtset: 1, }
dimensions: {natom: 9, nkpt: 20, mband: 42, nsppol: 1, nspinor: 1, nspden: 1, mpw: 13334, }
cutoff_energies: {ecut:  16.0, pawecutdg:  40.0, }
electrons: {nelect:   7.20000000E+01, charge:   0.00000000E+00, occopt:   1.00000000E+00, tsmear:   1.00000000E-02, }
meta: {optdriver: 0, ionmov: 2, optcell: 2, iscf: 17, paral_kgb: 0, }
...

 Real(R)+Recip(G) space primitive vectors, cartesian coordinates (Bohr,Bohr^-1):
 R(1)=  0.0000000 11.3257722 11.1397315  G(1)= -0.0441471  0.0441471  0.0448844
 R(2)= 11.3257722  0.0000000 11.1397315  G(2)=  0.0441471 -0.0441471  0.0448844
 R(3)= 11.3257722 11.3257722  0.0000000  G(3)=  0.0441471  0.0441471 -0.0448844
 Unit cell volume ucvol=  2.8578561E+03 bohr^3
 Angles (23,13,12)=  5.97268276E+01  5.97268276E+01  6.05463448E+01 degrees

 Coarse grid specifications (used for wave-functions):

 getcut: wavevector=  0.0000  0.0000  0.0000  ngfft=  72  72  72
         ecut(hartree)=     21.160   => boxcut(ratio)=   2.17083

 Fine grid specifications (used for densities):

 getcut: wavevector=  0.0000  0.0000  0.0000  ngfft= 108 108 108
         ecut(hartree)=     52.900   => boxcut(ratio)=   2.05943

--- Pseudopotential description ------------------------------------------------
- pspini: atom type   1  psp file is ../../../Psps_for_tests/ATOMICDATA/Cs.GGA_PBE-JTH.xml
- pspatm: opening atomic psp file    ../../../Psps_for_tests/ATOMICDATA/Cs.GGA_PBE-JTH.xml
- pspatm : Reading pseudopotential header in XML form from ../../../Psps_for_tests/ATOMICDATA/Cs.GGA_PBE-JTH.xml
 Pseudopotential format is: paw10
 basis_size (lnmax)=  6 (lmn_size= 18), orbitals=   0   0   1   1   2   2
 Spheres core radius: rc_sph= 2.20660278
 1 radial meshes are used:
  - mesh 1: r(i)=AA*[exp(BB*(i-1))-1], size=1500 , AA= 0.15922E-03 BB= 0.87573E-02
 Shapefunction is SIN type: shapef(r)=[sin(pi*r/rshp)/(pi*r/rshp)]**2
 Radius for shape functions =  2.00394208
 mmax= 1500
 Radial grid used for partial waves is grid 1
 Radial grid used for projectors is grid 1
 Radial grid used for (t)core density is grid 1
 Radial grid used for Vloc is grid 1
 Radial grid used for pseudo valence density is grid 1
 Mesh size for Vloc has been set to 1341 to avoid numerical noise.
 Compensation charge density is not taken into account in XC energy/potential
 pspatm: atomic psp has been read  and splines computed

- pspini: atom type   2  psp file is ../../../Psps_for_tests/ATOMICDATA/I.GGA_PBE-JTH.xml
- pspatm: opening atomic psp file    ../../../Psps_for_tests/ATOMICDATA/I.GGA_PBE-JTH.xml
- pspatm : Reading pseudopotential header in XML form from ../../../Psps_for_tests/ATOMICDATA/I.GGA_PBE-JTH.xml
 Pseudopotential format is: paw10
 basis_size (lnmax)=  4 (lmn_size=  8), orbitals=   0   0   1   1
 Spheres core radius: rc_sph= 2.30022271
 1 radial meshes are used:
  - mesh 1: r(i)=AA*[exp(BB*(i-1))-1], size=2000 , AA= 0.12610E-03 BB= 0.66836E-02
 Shapefunction is SIN type: shapef(r)=[sin(pi*r/rshp)/(pi*r/rshp)]**2
 Radius for shape functions =  2.10879093
 mmax= 2000
 Radial grid used for partial waves is grid 1
 Radial grid used for projectors is grid 1
 Radial grid used for (t)core density is grid 1
 Radial grid used for Vloc is grid 1
 Radial grid used for pseudo valence density is grid 1
 Mesh size for Vloc has been set to 1792 to avoid numerical noise.
 Compensation charge density is not taken into account in XC energy/potential
 pspatm: atomic psp has been read  and splines computed

- pspini: atom type   3  psp file is ../../../Psps_for_tests/ATOMICDATA/Zr.GGA_PBE-JTH.xml
- pspatm: opening atomic psp file    ../../../Psps_for_tests/ATOMICDATA/Zr.GGA_PBE-JTH.xml
- pspatm : Reading pseudopotential header in XML form from ../../../Psps_for_tests/ATOMICDATA/Zr.GGA_PBE-JTH.xml
 Pseudopotential format is: paw10
 basis_size (lnmax)=  6 (lmn_size= 18), orbitals=   0   0   1   1   2   2
 Spheres core radius: rc_sph= 2.21000000
 1 radial meshes are used:
  - mesh 1: r(i)=AA*[exp(BB*(i-1))-1], size= 941 , AA= 0.35256E-03 BB= 0.14102E-01
 Shapefunction is BESSEL type: shapef(r,l)=aa(1,l)*jl(q(1,l)*r)+aa(2,l)*jl(q(2,l)*r)
 Radius for shape functions =  2.21000000
 mmax=  941
 Radial grid used for partial waves is grid 1
 Radial grid used for projectors is grid 1
 Radial grid used for (t)core density is grid 1
 Radial grid used for Vloc is grid 1
 Radial grid used for pseudo valence density is grid 1
 Mesh size for Vloc has been set to  777 to avoid numerical noise.
 Compensation charge density is not taken into account in XC energy/potential
 pspatm: atomic psp has been read  and splines computed

- pspini: atom type   4  psp file is ../../../Psps_for_tests/ATOMICDATA/Cl.GGA_PBE-JTH.xml
- pspatm: opening atomic psp file    ../../../Psps_for_tests/ATOMICDATA/Cl.GGA_PBE-JTH.xml
- pspatm : Reading pseudopotential header in XML form from ../../../Psps_for_tests/ATOMICDATA/Cl.GGA_PBE-JTH.xml
 Pseudopotential format is: paw10
 basis_size (lnmax)=  4 (lmn_size=  8), orbitals=   0   0   1   1
 Spheres core radius: rc_sph= 1.80315674
 1 radial meshes are used:
  - mesh 1: r(i)=AA*[exp(BB*(i-1))-1], size=1400 , AA= 0.50355E-03 BB= 0.85603E-02
 Shapefunction is SIN type: shapef(r)=[sin(pi*r/rshp)/(pi*r/rshp)]**2
 Radius for shape functions =  1.61320365
 mmax= 1400
 Radial grid used for partial waves is grid 1
 Radial grid used for projectors is grid 1
 Radial grid used for (t)core density is grid 1
 Radial grid used for Vloc is grid 1
 Radial grid used for pseudo valence density is grid 1
 Mesh size for Vloc has been set to 1238 to avoid numerical noise.
 Compensation charge density is not taken into account in XC energy/potential
 pspatm: atomic psp has been read  and splines computed

   3.89338138E+04                                ecore*ucvol(ha*bohr**3)
--------------------------------------------------------------------------------

_setup2: Arith. and geom. avg. npw (full set) are   13286.281   13286.273

================================================================================

=== [ionmov= 2] Broyden-Fletcher-Goldfard-Shanno method (forces)            
================================================================================

--- Iteration: (   1/1000) Internal Cycle: (1/1)
--------------------------------------------------------------------------------

---SELF-CONSISTENT-FIELD CONVERGENCE--------------------------------------------

--- !BeginCycle
iteration_state: {dtset: 1, itime: 1, icycle: 1, }
solver: {iscf: 17, nstep: 2500, nline: 4, wfoptalg: 10, }
tolerances: {toldff: 1.00E-08, }
...

     iter   Etot(hartree)      deltaE(h)  residm     nres2    diffor    maxfor
 ETOT  1  -162.14050026305    -1.621E+02 1.688E-01 2.584E+01 8.880E-02 8.880E-02
 ETOT  2  -162.32491563395    -1.844E-01 9.497E-03 7.023E+00 1.736E-01 9.323E-02
 ETOT  3  -162.31960515809     5.310E-03 2.488E-03 1.407E+00 6.521E-02 2.802E-02
 ETOT  4  -162.32064302382    -1.038E-03 2.547E-03 2.343E-01 2.256E-02 5.057E-02
 ETOT  5  -162.31977374127     8.693E-04 7.819E-04 2.148E-02 2.711E-02 2.347E-02
 ETOT  6  -162.31983723937    -6.350E-05 4.968E-04 5.060E-03 3.810E-03 1.966E-02
 ETOT  7  -162.31984511400    -7.875E-06 1.870E-04 2.317E-03 8.590E-04 2.048E-02
 ETOT  8  -162.31984476329     3.507E-07 1.634E-04 6.316E-04 6.253E-04 1.985E-02
 ETOT  9  -162.31984588466    -1.121E-06 1.389E-04 1.647E-04 7.230E-04 2.045E-02
 ETOT 10  -162.31984578101     1.036E-07 1.072E-04 9.837E-05 1.209E-04 2.058E-02
 ETOT 11  -162.31984559606     1.850E-07 8.148E-05 6.035E-06 2.198E-04 2.043E-02
 ETOT 12  -162.31984565979    -6.373E-08 5.404E-05 4.527E-06 5.872E-05 2.037E-02
 ETOT 13  -162.31984565493     4.857E-09 3.857E-05 5.942E-07 4.918E-05 2.042E-02
 ETOT 14  -162.31984565580    -8.687E-10 2.346E-05 5.655E-08 7.251E-06 2.042E-02
 ETOT 15  -162.31984565598    -1.768E-10 1.636E-05 5.784E-09 7.951E-06 2.043E-02
 ETOT 16  -162.31984565602    -4.545E-11 9.529E-06 4.214E-09 1.264E-06 2.043E-02
 ETOT 17  -162.31984565602     4.007E-12 6.610E-06 6.267E-10 6.625E-07 2.043E-02
 ETOT 18  -162.31984565602    -5.400E-13 3.766E-06 2.812E-10 4.967E-07 2.043E-02
 ETOT 19  -162.31984565601     4.121E-12 2.618E-06 1.259E-10 6.273E-07 2.043E-02
 ETOT 20  -162.31984565602    -1.990E-12 1.472E-06 6.905E-11 1.670E-07 2.043E-02
 ETOT 21  -162.31984565602    -2.473E-12 1.027E-06 1.639E-11 7.028E-08 2.043E-02
 ETOT 22  -162.31984565602    -1.990E-13 5.730E-07 1.644E-13 7.014E-08 2.043E-02
 ETOT 23  -162.31984565602     2.643E-12 4.012E-07 8.817E-13 1.869E-08 2.043E-02
 ETOT 24  -162.31984565602    -2.274E-12 2.226E-07 2.810E-14 1.876E-08 2.043E-02
 ETOT 25  -162.31984565602    -2.927E-12 1.564E-07 1.032E-14 2.325E-09 2.043E-02
 ETOT 26  -162.31984565601     1.171E-11 9.622E-08 9.024E-16 1.364E-09 2.043E-02

 At SCF step   26, forces are converged : 
  for the second time, max diff in force=  1.364E-09 < toldff=  1.000E-08

 Cartesian components of stress tensor (hartree/bohr^3)
  sigma(1 1)=  7.34793332E-06  sigma(3 2)=  2.69835430E-14
  sigma(2 2)=  7.34793332E-06  sigma(3 1)=  2.69829176E-14
  sigma(3 3)=  3.75643924E-05  sigma(2 1)= -5.30811899E-14


--- !ResultsGS
iteration_state: {dtset: 1, itime: 1, icycle: 1, }
comment   : Summary of ground state results
lattice_vectors:
- [  0.0000000,  11.3257722,  11.1397315, ]
- [ 11.3257722,   0.0000000,  11.1397315, ]
- [ 11.3257722,  11.3257722,   0.0000000, ]
lattice_lengths: [  15.88605,   15.88605,   16.01706, ]
lattice_angles: [ 59.727,  59.727,  60.546, ] # degrees, (23, 13, 12)
lattice_volume:   2.8578561E+03
convergence: {deltae:  1.171E-11, res2:  9.024E-16, residm:  9.622E-08, diffor:  1.364E-09, }
etotal    :  -1.62319846E+02
entropy   :   0.00000000E+00
fermie    :  -1.03455788E-01
cartesian_stress_tensor: # hartree/bohr^3
- [  7.34793332E-06,  -5.30811899E-14,   2.69829176E-14, ]
- [ -5.30811899E-14,   7.34793332E-06,   2.69835430E-14, ]
- [  2.69829176E-14,   2.69835430E-14,   3.75643924E-05, ]
pressure_GPa:  -5.1252E-01
xred      :
- [  2.5139E-01,   2.5139E-01,   2.4861E-01, Cs]
- [  7.5139E-01,   7.5139E-01,   7.4861E-01, Cs]
- [  2.2673E-01,   2.2673E-01,   7.7327E-01, Cl]
- [  7.5977E-01,   7.5977E-01,   2.4023E-01,  I]
- [  2.4255E-01,   7.6034E-01,   7.5745E-01,  I]
- [  7.6034E-01,   2.4255E-01,   7.5745E-01,  I]
- [  2.4255E-01,   7.6034E-01,   2.3966E-01,  I]
- [  7.6034E-01,   2.4255E-01,   2.3966E-01,  I]
- [  4.9250E-03,   4.9250E-03,  -4.9250E-03, Zr]
cartesian_forces: # hartree/bohr
- [ -1.03444907E-19,   8.31061263E-20,   3.75508180E-05, ]
- [ -1.02449994E-19,   8.21112136E-20,   3.75508180E-05, ]
- [  6.37164408E-19,  -6.57503188E-19,  -2.04292673E-02, ]
- [  1.56614957E-19,  -1.76953737E-19,   1.52298307E-03, ]
- [  1.29689067E-03,  -7.20910119E-15,   7.39671347E-04, ]
- [ -7.20957967E-15,   1.29689067E-03,   7.39671347E-04, ]
- [  7.20918928E-15,  -1.29689067E-03,   7.39671347E-04, ]
- [ -1.29689067E-03,   7.20934249E-15,   7.39671347E-04, ]
- [ -2.62638422E-19,   2.42299642E-19,   1.58724973E-02, ]
force_length_stats: {min:   3.75508180E-05, max:   2.04292673E-02, mean:   4.87464845E-03, }
...

 Integrated electronic density in atomic spheres:
 ------------------------------------------------
 Atom  Sphere_radius  Integrated_density
    1        2.20660          5.36173669
    2        2.20660          5.36173669
    3        1.80316          4.33303468
    4        2.30022          3.99757587
    5        2.30022          4.00427055
    6        2.30022          4.00427055
    7        2.30022          4.00427055
    8        2.30022          4.00427055
    9        2.21000          8.78630441

 PAW TEST:
 ==== Compensation charge inside spheres ============
 The following values must be close to each other ...
 Compensation charge over spherical meshes =     -5.338033206187975
 Compensation charge over fine fft grid    =     -5.338032412319864

 ==== Results concerning PAW augmentation regions ====

 Total pseudopotential strength Dij (hartree):
 Atom #  1
   0.44460  -0.14720   0.00000   0.00000   0.00000   0.00000  -0.00000   0.00000   0.00000   0.00000  -0.00000   0.00000 ...
  -0.14720   0.04439   0.00000  -0.00000   0.00000   0.00000   0.00000   0.00000  -0.00000   0.00000   0.00000   0.00000 ...
   0.00000   0.00000  -0.09412   0.00000   0.00000  -0.16622   0.00000  -0.00000   0.00000   0.00000   0.00000   0.00000 ...
   0.00000  -0.00000   0.00000  -0.09412   0.00000   0.00000  -0.16622   0.00000   0.00000   0.00000   0.00000   0.00000 ...
   0.00000   0.00000   0.00000   0.00000  -0.09412  -0.00000   0.00000  -0.16622   0.00000   0.00000   0.00000   0.00000 ...
   0.00000   0.00000  -0.16622   0.00000  -0.00000   0.40529   0.00000   0.00000   0.00000  -0.00000   0.00000   0.00000 ...
  -0.00000   0.00000   0.00000  -0.16622   0.00000   0.00000   0.40529   0.00000   0.00000   0.00000  -0.00000   0.00000 ...
   0.00000   0.00000  -0.00000   0.00000  -0.16622   0.00000   0.00000   0.40529   0.00000   0.00000   0.00000  -0.00000 ...
   0.00000  -0.00000   0.00000   0.00000   0.00000   0.00000   0.00000   0.00000   0.00515   0.00000  -0.00000   0.00000 ...
   0.00000   0.00000   0.00000   0.00000   0.00000  -0.00000   0.00000   0.00000   0.00000   0.00515   0.00000   0.00000 ...
  -0.00000   0.00000   0.00000   0.00000   0.00000   0.00000  -0.00000   0.00000  -0.00000   0.00000   0.00515   0.00000 ...
   0.00000   0.00000   0.00000   0.00000   0.00000   0.00000   0.00000  -0.00000   0.00000   0.00000   0.00000   0.00515 ...
   ...  only 12  components have been written...
 Atom #  9
   3.09234  -0.90091   0.00000  -0.00000   0.00000   0.00000  -0.00001   0.00000   0.00000   0.00000   0.00003   0.00000 ...
  -0.90091   0.26929   0.00000   0.00001   0.00000   0.00000   0.00000   0.00000   0.00000   0.00000   0.00000   0.00000 ...
   0.00000   0.00000   0.26386   0.00000   0.00000  -0.05347   0.00000   0.00000   0.00000   0.00013   0.00000   0.00000 ...
  -0.00000   0.00001   0.00000   0.26395   0.00000   0.00000  -0.05348   0.00000   0.00000   0.00000   0.00021   0.00000 ...
   0.00000   0.00000   0.00000   0.00000   0.26386   0.00000   0.00000  -0.05347   0.00000   0.00000   0.00000   0.00013 ...
   0.00000   0.00000  -0.05347   0.00000   0.00000   0.01472   0.00000   0.00000   0.00000  -0.00002   0.00000   0.00000 ...
  -0.00001   0.00000   0.00000  -0.05348   0.00000   0.00000   0.01472   0.00000   0.00000   0.00000  -0.00004   0.00000 ...
   0.00000   0.00000   0.00000   0.00000  -0.05347   0.00000   0.00000   0.01472   0.00000   0.00000   0.00000  -0.00002 ...
   0.00000   0.00000   0.00000   0.00000   0.00000   0.00000   0.00000   0.00000  -0.02001   0.00000   0.00000   0.00000 ...
   0.00000   0.00000   0.00013   0.00000   0.00000  -0.00002   0.00000   0.00000   0.00000  -0.02001   0.00000   0.00000 ...
   0.00003   0.00000   0.00000   0.00021   0.00000   0.00000  -0.00004   0.00000   0.00000   0.00000  -0.01988   0.00000 ...
   0.00000   0.00000   0.00000   0.00000   0.00013   0.00000   0.00000  -0.00002   0.00000   0.00000   0.00000  -0.02001 ...
   ...  only 12  components have been written...


 Augmentation waves occupancies Rhoij:
 Atom #  1
   1.99650  -0.01750   0.00000  -0.00000   0.00000   0.00000   0.00001   0.00000   0.00110   0.00000  -0.00042   0.00000 ...
  -0.01750   0.11313   0.00000   0.00102   0.00000   0.00000  -0.00004   0.00000  -0.01060   0.00000   0.00820   0.00000 ...
   0.00000   0.00000   2.00821   0.00000  -0.00048  -0.00507   0.00000   0.00012   0.00000   0.00076   0.00000   0.00041 ...
  -0.00000   0.00102   0.00000   2.00843   0.00000   0.00000  -0.00517   0.00000   0.00062   0.00000  -0.00003   0.00000 ...
   0.00000   0.00000  -0.00048   0.00000   2.00821   0.00012   0.00000  -0.00507   0.00000   0.00041   0.00000   0.00076 ...
   0.00000   0.00000  -0.00507   0.00000   0.00012   0.00007   0.00000  -0.00001   0.00000  -0.00003   0.00000  -0.00002 ...
   0.00001  -0.00004   0.00000  -0.00517   0.00000   0.00000   0.00009   0.00000  -0.00003   0.00000   0.00001   0.00000 ...
   0.00000   0.00000   0.00012   0.00000  -0.00507  -0.00001   0.00000   0.00007   0.00000  -0.00002   0.00000  -0.00003 ...
   0.00110  -0.01060   0.00000   0.00062   0.00000   0.00000  -0.00003   0.00000   0.02377   0.00000   0.00762   0.00000 ...
   0.00000   0.00000   0.00076   0.00000   0.00041  -0.00003   0.00000  -0.00002   0.00000   0.03765   0.00000  -0.00032 ...
  -0.00042   0.00820   0.00000  -0.00003   0.00000   0.00000   0.00001   0.00000   0.00762   0.00000   0.01812   0.00000 ...
   0.00000   0.00000   0.00041   0.00000   0.00076  -0.00002   0.00000  -0.00003   0.00000  -0.00032   0.00000   0.03765 ...
   ...  only 12  components have been written...
 Atom #  9
   1.99200  -0.06746   0.00000   0.00011   0.00000   0.00000  -0.00082   0.00000   0.00000   0.00000  -0.00490   0.00000 ...
  -0.06746   1.01888   0.00000  -0.00400   0.00000   0.00000  -0.03821   0.00000   0.00000   0.00000  -0.02296   0.00000 ...
   0.00000   0.00000   1.96506   0.00000   0.00000  -0.20615   0.00000   0.00000   0.00000   0.00005   0.00000   0.00000 ...
   0.00011  -0.00400   0.00000   1.96401   0.00000   0.00000  -0.21744   0.00000   0.00000   0.00000  -0.00674   0.00000 ...
   0.00000   0.00000   0.00000   0.00000   1.96506   0.00000   0.00000  -0.20615   0.00000   0.00000   0.00000   0.00005 ...
   0.00000   0.00000  -0.20615   0.00000   0.00000   1.44294   0.00000   0.00000   0.00000  -0.03369   0.00000   0.00000 ...
  -0.00082  -0.03821   0.00000  -0.21744   0.00000   0.00000   1.42141   0.00000   0.00000   0.00000  -0.02783   0.00000 ...
   0.00000   0.00000   0.00000   0.00000  -0.20615   0.00000   0.00000   1.44294   0.00000   0.00000   0.00000  -0.03369 ...
   0.00000   0.00000   0.00000   0.00000   0.00000   0.00000   0.00000   0.00000   0.41743   0.00000   0.00000   0.00000 ...
   0.00000   0.00000   0.00005   0.00000   0.00000  -0.03369   0.00000   0.00000   0.00000   0.40980   0.00000   0.00000 ...
  -0.00490  -0.02296   0.00000  -0.00674   0.00000   0.00000  -0.02783   0.00000   0.00000   0.00000   1.22648   0.00000 ...
   0.00000   0.00000   0.00000   0.00000   0.00005   0.00000   0.00000  -0.03369   0.00000   0.00000   0.00000   0.40980 ...
   ...  only 12  components have been written...



---OUTPUT-----------------------------------------------------------------------

 Cartesian coordinates (xcart) [bohr]
  5.66288609589896E+00  5.66288609589896E+00  5.60091750794464E+00
  1.69886582876972E+01  1.69886582876972E+01  1.67406489842663E+01
  1.13257721918327E+01  1.13257721918327E+01  5.05149551293568E+00
  1.13257721917656E+01  1.13257721917656E+01  1.69273685623405E+01
  1.71902533486641E+01  1.13257721918307E+01  1.11719239588417E+01
  1.13257721918307E+01  1.71902533486641E+01  1.11719239588417E+01
  1.13257721917655E+01  5.46129103493212E+00  1.11719239588417E+01
  5.46129103493212E+00  1.13257721917655E+01  1.11719239588417E+01
 -6.20138343646623E-13 -6.20138343646623E-13  1.09725407329113E-01
 Reduced coordinates (xred)
  2.51393739600000E-01  2.51393739600000E-01  2.48606260400000E-01
  7.51393739600000E-01  7.51393739600000E-01  7.48606260400000E-01
  2.26733271070000E-01  2.26733271070000E-01  7.73266728930000E-01
  7.59774533090000E-01  7.59774533090000E-01  2.40225466910000E-01
  2.42545102430000E-01  7.60344777150000E-01  7.57454897570000E-01
  7.60344777150000E-01  2.42545102430000E-01  7.57454897570000E-01
  2.42545102430000E-01  7.60344777150000E-01  2.39655222850000E-01
  7.60344777150000E-01  2.42545102430000E-01  2.39655222850000E-01
  4.92495746250000E-03  4.92495746250000E-03 -4.92495746250000E-03
 Cartesian forces (fcart) [Ha/bohr]; max,rms= 2.04293E-02 5.02044E-03 (free atoms)
 -1.03444906913611E-19  8.31061262536135E-20  3.75508180196805E-05
 -1.02449994222883E-19  8.21112135628858E-20  3.75508180196805E-05
  6.37164407584918E-19 -6.57503188244915E-19 -2.04292673480232E-02
  1.56614956619299E-19 -1.76953737279296E-19  1.52298307085870E-03
  1.29689067465271E-03 -7.20910119461731E-15  7.39671346786602E-04
 -7.20957967021982E-15  1.29689067465271E-03  7.39671346786602E-04
  7.20918927605390E-15 -1.29689067465271E-03  7.39671346771942E-04
 -1.29689067465271E-03  7.20934249100466E-15  7.39671346771942E-04
 -2.62638422387934E-19  2.42299641727937E-19  1.58724972540081E-02
 Reduced forces (fred)
 -4.18306029455461E-04 -4.18306029455459E-04  2.30352396415359E-19
 -4.18306029455461E-04 -4.18306029455459E-04  2.30352396415359E-19
  2.27576552514963E-01  2.27576552514963E-01  2.30352396415360E-19
 -1.69656224523496E-02 -1.69656224523496E-02  2.30352396415359E-19
 -8.23974018385026E-03 -2.29280285226344E-02 -1.46882883387842E-02
 -2.29280285226344E-02 -8.23974018385026E-03 -1.46882883387842E-02
  6.44854815493393E-03 -8.23974018385026E-03  1.46882883387842E-02
 -8.23974018385026E-03  6.44854815493393E-03  1.46882883387842E-02
 -1.76815357268302E-01 -1.76815357268302E-01  2.30352396415360E-19
 Scale of Primitive Cell (acell) [bohr]
  1.58860546740000E+01  1.58860546740000E+01  1.60170606380000E+01
 Real space primitive translations (rprimd) [bohr]
  0.00000000000000E+00  1.13257721917353E+01  1.11397314763216E+01
  1.13257721917353E+01  0.00000000000000E+00  1.11397314763216E+01
  1.13257721918612E+01  1.13257721918612E+01  0.00000000000000E+00
 Unitary Cell Volume (ucvol) [Bohr^3]=  2.85785612996083E+03
 Angles (23,13,12)= [degrees]
  5.97268276043710E+01  5.97268276043710E+01  6.05463447912581E+01
 Lengths [Bohr]
  1.58860546739471E+01  1.58860546739471E+01  1.60170606380782E+01
 Stress tensor in cartesian coordinates (strten) [Ha/bohr^3]
  7.34793331898156E-06 -5.30811898792967E-14  2.69829175738986E-14
 -5.30811898792967E-14  7.34793331898329E-06  2.69835429994859E-14
  2.69829175738986E-14  2.69835429994859E-14  3.75643924195018E-05
 Total energy (etotal) [Ha]= -1.62319845656010E+02

--- Iteration: (   2/1000) Internal Cycle: (1/1)
--------------------------------------------------------------------------------

---SELF-CONSISTENT-FIELD CONVERGENCE--------------------------------------------

--- !BeginCycle
iteration_state: {dtset: 1, itime: 2, icycle: 1, }
solver: {iscf: 17, nstep: 2500, nline: 4, wfoptalg: 10, }
tolerances: {toldff: 1.00E-08, }
...

     iter   Etot(hartree)      deltaE(h)  residm     nres2    diffor    maxfor
 ETOT  1  -162.32201789940    -1.623E+02 1.574E-02 3.614E-01 6.288E-02 8.331E-02
 ETOT  2  -162.32092665545     1.091E-03 5.148E-05 1.115E-01 7.396E-02 1.124E-02
 ETOT  3  -162.32060435740     3.223E-04 1.030E-05 4.025E-03 1.424E-02 2.358E-02
 ETOT  4  -162.32061700260    -1.265E-05 2.576E-07 9.737E-04 3.477E-03 2.011E-02
 ETOT  5  -162.32061792215    -9.196E-07 1.856E-07 2.766E-04 4.936E-04 1.961E-02
 ETOT  6  -162.32061986398    -1.942E-06 5.414E-08 8.032E-05 7.609E-04 1.885E-02
 ETOT  7  -162.32061990397    -3.999E-08 1.963E-08 4.918E-05 1.607E-04 1.901E-02
 ETOT  8  -162.32062007503    -1.711E-07 1.456E-08 6.177E-06 7.557E-05 1.898E-02
 ETOT  9  -162.32062022499    -1.500E-07 4.829E-09 6.130E-06 4.383E-05 1.898E-02
 ETOT 10  -162.32062026092    -3.592E-08 5.169E-09 5.676E-07 5.365E-05 1.892E-02
 ETOT 11  -162.32062028874    -2.782E-08 2.375E-09 5.438E-07 2.405E-05 1.890E-02
 ETOT 12  -162.32062030161    -1.288E-08 2.749E-09 2.374E-08 1.002E-05 1.891E-02
 ETOT 13  -162.32062030843    -6.816E-09 1.349E-09 1.221E-07 6.758E-06 1.891E-02
 ETOT 14  -162.32062031235    -3.921E-09 1.306E-09 4.556E-09 6.747E-06 1.890E-02
 ETOT 15  -162.32062031476    -2.415E-09 7.480E-10 3.761E-09 1.232E-06 1.890E-02
 ETOT 16  -162.32062031812    -3.350E-09 7.347E-10 9.503E-10 3.992E-07 1.890E-02
 ETOT 17  -162.32062031961    -1.499E-09 4.162E-10 4.816E-10 1.262E-07 1.890E-02
 ETOT 18  -162.32062032144    -1.829E-09 4.058E-10 1.374E-10 5.388E-07 1.890E-02
 ETOT 19  -162.32062032245    -1.008E-09 2.321E-10 1.691E-10 4.981E-08 1.890E-02
 ETOT 20  -162.32062032296    -5.069E-10 2.228E-10 1.013E-11 2.244E-07 1.890E-02
 ETOT 21  -162.32062032366    -7.025E-10 1.301E-10 2.949E-11 1.052E-07 1.890E-02
 ETOT 22  -162.32062032385    -1.857E-10 1.225E-10 5.976E-12 6.709E-08 1.890E-02
 ETOT 23  -162.32062032407    -2.196E-10 7.265E-11 3.251E-12 7.700E-08 1.890E-02
 ETOT 24  -162.32062032411    -4.545E-11 6.722E-11 1.109E-12 1.742E-08 1.890E-02
 ETOT 25  -162.32062032412    -6.253E-12 4.051E-11 1.141E-14 1.837E-08 1.890E-02
 ETOT 26  -162.32062032412    -4.007E-12 3.687E-11 3.581E-15 1.895E-09 1.890E-02
 ETOT 27  -162.32062032413    -4.178E-12 2.258E-11 1.552E-15 1.076E-09 1.890E-02

 At SCF step   27, forces are converged : 
  for the second time, max diff in force=  1.076E-09 < toldff=  1.000E-08

 Cartesian components of stress tensor (hartree/bohr^3)
  sigma(1 1)=  5.79234796E-06  sigma(3 2)=  2.70706781E-14
  sigma(2 2)=  5.79234796E-06  sigma(3 1)=  2.70711480E-14
  sigma(3 3)=  3.44117568E-05  sigma(2 1)= -5.32035199E-14


--- !ResultsGS
iteration_state: {dtset: 1, itime: 2, icycle: 1, }
comment   : Summary of ground state results
lattice_vectors:
- [  0.0000000,  11.3232756,  11.1271778, ]
- [ 11.3232756,   0.0000000,  11.1271778, ]
- [ 11.3232756,  11.3232756,   0.0000000, ]
lattice_lengths: [  15.87547,   15.87547,   16.01353, ]
lattice_angles: [ 59.712,  59.712,  60.576, ] # degrees, (23, 13, 12)
lattice_volume:   2.8533771E+03
convergence: {deltae: -4.178E-12, res2:  1.552E-15, residm:  2.258E-11, diffor:  1.076E-09, }
etotal    :  -1.62320620E+02
entropy   :   0.00000000E+00
fermie    :  -1.03140967E-01
cartesian_stress_tensor: # hartree/bohr^3
- [  5.79234796E-06,  -5.32035199E-14,   2.70711480E-14, ]
- [ -5.32035199E-14,   5.79234796E-06,   2.70706781E-14, ]
- [  2.70711480E-14,   2.70706781E-14,   3.44117568E-05, ]
pressure_GPa:  -4.5109E-01
xred      :
- [  2.5140E-01,   2.5140E-01,   2.4860E-01, Cs]
- [  7.5140E-01,   7.5140E-01,   7.4860E-01, Cs]
- [  2.2582E-01,   2.2582E-01,   7.7418E-01, Cl]
- [  7.5984E-01,   7.5984E-01,   2.4016E-01,  I]
- [  2.4252E-01,   7.6044E-01,   7.5748E-01,  I]
- [  7.6044E-01,   2.4252E-01,   7.5748E-01,  I]
- [  2.4252E-01,   7.6044E-01,   2.3956E-01,  I]
- [  7.6044E-01,   2.4252E-01,   2.3956E-01,  I]
- [  5.6374E-03,   5.6374E-03,  -5.6374E-03, Zr]
cartesian_forces: # hartree/bohr
- [ -9.90975846E-20,   8.05688185E-20,   4.51909485E-05, ]
- [ -1.02485716E-19,   8.39569503E-20,   4.51909485E-05, ]
- [  4.57383661E-19,  -4.75912427E-19,  -1.89037401E-02, ]
- [ -1.28805107E-19,   1.10276341E-19,   1.46435874E-03, ]
- [  9.74224859E-04,  -5.41267158E-15,   7.40226557E-04, ]
- [ -5.41303730E-15,   9.74224859E-04,   7.40226557E-04, ]
- [  5.41291467E-15,  -9.74224859E-04,   7.40226557E-04, ]
- [ -9.74224859E-04,   5.41301877E-15,   7.40226557E-04, ]
- [  2.54812211E-19,  -2.73340977E-19,   1.43880932E-02, ]
force_length_stats: {min:   4.51909485E-05, max:   1.89037401E-02, mean:   4.41563698E-03, }
...

 Integrated electronic density in atomic spheres:
 ------------------------------------------------
 Atom  Sphere_radius  Integrated_density
    1        2.20660          5.36075695
    2        2.20660          5.36075695
    3        1.80316          4.33791603
    4        2.30022          3.99765709
    5        2.30022          4.00434625
    6        2.30022          4.00434625
    7        2.30022          4.00434625
    8        2.30022          4.00434625
    9        2.21000          8.79019313

 PAW TEST:
 ==== Compensation charge inside spheres ============
 The following values must be close to each other ...
 Compensation charge over spherical meshes =     -5.338103269271858
 Compensation charge over fine fft grid    =     -5.338101542876742

 ==== Results concerning PAW augmentation regions ====

 Total pseudopotential strength Dij (hartree):
 Atom #  1
   0.44454  -0.14718   0.00000   0.00000   0.00000   0.00000  -0.00000   0.00000   0.00000   0.00000  -0.00000   0.00000 ...
  -0.14718   0.04438   0.00000  -0.00000   0.00000   0.00000   0.00000   0.00000  -0.00000   0.00000   0.00000   0.00000 ...
   0.00000   0.00000  -0.09412   0.00000   0.00000  -0.16622   0.00000  -0.00000   0.00000   0.00000   0.00000   0.00000 ...
   0.00000  -0.00000   0.00000  -0.09412   0.00000   0.00000  -0.16622   0.00000   0.00000   0.00000   0.00000   0.00000 ...
   0.00000   0.00000   0.00000   0.00000  -0.09412  -0.00000   0.00000  -0.16622   0.00000   0.00000   0.00000   0.00000 ...
   0.00000   0.00000  -0.16622   0.00000  -0.00000   0.40528   0.00000   0.00000   0.00000  -0.00000   0.00000   0.00000 ...
  -0.00000   0.00000   0.00000  -0.16622   0.00000   0.00000   0.40528   0.00000   0.00000   0.00000  -0.00000   0.00000 ...
   0.00000   0.00000  -0.00000   0.00000  -0.16622   0.00000   0.00000   0.40528   0.00000   0.00000   0.00000  -0.00000 ...
   0.00000  -0.00000   0.00000   0.00000   0.00000   0.00000   0.00000   0.00000   0.00515   0.00000  -0.00000   0.00000 ...
   0.00000   0.00000   0.00000   0.00000   0.00000  -0.00000   0.00000   0.00000   0.00000   0.00515   0.00000   0.00000 ...
  -0.00000   0.00000   0.00000   0.00000   0.00000   0.00000  -0.00000   0.00000  -0.00000   0.00000   0.00515   0.00000 ...
   0.00000   0.00000   0.00000   0.00000   0.00000   0.00000   0.00000  -0.00000   0.00000   0.00000   0.00000   0.00515 ...
   ...  only 12  components have been written...
 Atom #  9
   3.09200  -0.90080   0.00000  -0.00000   0.00000   0.00000  -0.00001   0.00000   0.00000   0.00000   0.00004   0.00000 ...
  -0.90080   0.26926   0.00000   0.00001   0.00000   0.00000   0.00000   0.00000   0.00000   0.00000   0.00000   0.00000 ...
   0.00000   0.00000   0.26395   0.00000   0.00000  -0.05349   0.00000   0.00000   0.00000   0.00013   0.00000   0.00000 ...
  -0.00000   0.00001   0.00000   0.26405   0.00000   0.00000  -0.05350   0.00000   0.00000   0.00000   0.00021   0.00000 ...
   0.00000   0.00000   0.00000   0.00000   0.26395   0.00000   0.00000  -0.05349   0.00000   0.00000   0.00000   0.00013 ...
   0.00000   0.00000  -0.05349   0.00000   0.00000   0.01473   0.00000   0.00000   0.00000  -0.00002   0.00000   0.00000 ...
  -0.00001   0.00000   0.00000  -0.05350   0.00000   0.00000   0.01473   0.00000   0.00000   0.00000  -0.00004   0.00000 ...
   0.00000   0.00000   0.00000   0.00000  -0.05349   0.00000   0.00000   0.01473   0.00000   0.00000   0.00000  -0.00002 ...
   0.00000   0.00000   0.00000   0.00000   0.00000   0.00000   0.00000   0.00000  -0.01990   0.00000   0.00000   0.00000 ...
   0.00000   0.00000   0.00013   0.00000   0.00000  -0.00002   0.00000   0.00000   0.00000  -0.01989   0.00000   0.00000 ...
   0.00004   0.00000   0.00000   0.00021   0.00000   0.00000  -0.00004   0.00000   0.00000   0.00000  -0.01977   0.00000 ...
   0.00000   0.00000   0.00000   0.00000   0.00013   0.00000   0.00000  -0.00002   0.00000   0.00000   0.00000  -0.01989 ...
   ...  only 12  components have been written...


 Augmentation waves occupancies Rhoij:
 Atom #  1
   1.99651  -0.01747   0.00000  -0.00000   0.00000   0.00000   0.00001   0.00000   0.00139   0.00000  -0.00047   0.00000 ...
  -0.01747   0.11379   0.00000   0.00110   0.00000   0.00000  -0.00004   0.00000  -0.01084   0.00000   0.00827   0.00000 ...
   0.00000   0.00000   2.00817   0.00000  -0.00067  -0.00507   0.00000   0.00015   0.00000   0.00082   0.00000   0.00041 ...
  -0.00000   0.00110   0.00000   2.00845   0.00000   0.00000  -0.00517   0.00000   0.00062   0.00000   0.00001   0.00000 ...
   0.00000   0.00000  -0.00067   0.00000   2.00817   0.00015   0.00000  -0.00507   0.00000   0.00041   0.00000   0.00082 ...
   0.00000   0.00000  -0.00507   0.00000   0.00015   0.00008   0.00000  -0.00001   0.00000  -0.00003   0.00000  -0.00002 ...
   0.00001  -0.00004   0.00000  -0.00517   0.00000   0.00000   0.00009   0.00000  -0.00003   0.00000   0.00001   0.00000 ...
   0.00000   0.00000   0.00015   0.00000  -0.00507  -0.00001   0.00000   0.00008   0.00000  -0.00002   0.00000  -0.00003 ...
   0.00139  -0.01084   0.00000   0.00062   0.00000   0.00000  -0.00003   0.00000   0.02383   0.00000   0.00782   0.00000 ...
   0.00000   0.00000   0.00082   0.00000   0.00041  -0.00003   0.00000  -0.00002   0.00000   0.03795   0.00000  -0.00028 ...
  -0.00047   0.00827   0.00000   0.00001   0.00000   0.00000   0.00001   0.00000   0.00782   0.00000   0.01819   0.00000 ...
   0.00000   0.00000   0.00041   0.00000   0.00082  -0.00002   0.00000  -0.00003   0.00000  -0.00028   0.00000   0.03795 ...
   ...  only 12  components have been written...
 Atom #  9
   1.99206  -0.06732   0.00000   0.00004   0.00000   0.00000  -0.00103   0.00000   0.00000   0.00000  -0.00486   0.00000 ...
  -0.06732   1.02113   0.00000  -0.00428   0.00000   0.00000  -0.02614   0.00000   0.00000   0.00000  -0.01716   0.00000 ...
   0.00000   0.00000   1.96523   0.00000   0.00000  -0.20525   0.00000   0.00000   0.00000   0.00028   0.00000   0.00000 ...
   0.00004  -0.00428   0.00000   1.96404   0.00000   0.00000  -0.21690   0.00000   0.00000   0.00000  -0.00629   0.00000 ...
   0.00000   0.00000   0.00000   0.00000   1.96523   0.00000   0.00000  -0.20525   0.00000   0.00000   0.00000   0.00028 ...
   0.00000   0.00000  -0.20525   0.00000   0.00000   1.44508   0.00000   0.00000   0.00000  -0.03558   0.00000   0.00000 ...
  -0.00103  -0.02614   0.00000  -0.21690   0.00000   0.00000   1.44616   0.00000   0.00000   0.00000  -0.00053   0.00000 ...
   0.00000   0.00000   0.00000   0.00000  -0.20525   0.00000   0.00000   1.44508   0.00000   0.00000   0.00000  -0.03558 ...
   0.00000   0.00000   0.00000   0.00000   0.00000   0.00000   0.00000   0.00000   0.41807   0.00000   0.00000   0.00000 ...
   0.00000   0.00000   0.00028   0.00000   0.00000  -0.03558   0.00000   0.00000   0.00000   0.41433   0.00000   0.00000 ...
  -0.00486  -0.01716   0.00000  -0.00629   0.00000   0.00000  -0.00053   0.00000   0.00000   0.00000   1.24257   0.00000 ...
   0.00000   0.00000   0.00000   0.00000   0.00028   0.00000   0.00000  -0.03558   0.00000   0.00000   0.00000   0.41433 ...
   ...  only 12  components have been written...



---OUTPUT-----------------------------------------------------------------------

 Cartesian coordinates (xcart) [bohr]
  5.66163778061620E+00  5.66163778061620E+00  5.59464316455012E+00
  1.69849133418490E+01  1.69849133418490E+01  1.67218209235330E+01
  1.13232755612673E+01  1.13232755612673E+01  5.02539657718552E+00
  1.13232755612001E+01  1.13232755612001E+01  1.69098138396541E+01
  1.71877605683945E+01  1.13232755612652E+01  1.11600728005592E+01
  1.13232755612652E+01  1.71877605683945E+01  1.11600728005592E+01
  1.13232755612000E+01  5.45879055407066E+00  1.11600728005592E+01
  5.45879055407066E+00  1.13232755612000E+01  1.11600728005592E+01
 -7.09203871927449E-13 -7.09523061047029E-13  1.25456364313876E-01
 Reduced coordinates (xred)
  2.51395425045385E-01  2.51395425045385E-01  2.48604574954615E-01
  7.51395425045385E-01  7.51395425045385E-01  7.48604574954615E-01
  2.25816315962444E-01  2.25816315962444E-01  7.74183684037556E-01
  7.59842891248996E-01  7.59842891248996E-01  2.40157108751004E-01
  2.42521048161157E-01  7.60435230806329E-01  7.57478951838843E-01
  7.60435230806329E-01  2.42521048161157E-01  7.57478951838843E-01
  2.42521048161157E-01  7.60435230806329E-01  2.39564769193671E-01
  7.60435230806329E-01  2.42521048161157E-01  2.39564769193671E-01
  5.63738474531853E-03  5.63738474531856E-03 -5.63738474531854E-03
 Cartesian forces (fcart) [Ha/bohr]; max,rms= 1.89037E-02 4.60477E-03 (free atoms)
 -9.90975846199970E-20  8.05688184787467E-20  4.51909484784747E-05
 -1.02485716409014E-19  8.39569502677639E-20  4.51909484784747E-05
  4.57383660559591E-19 -4.75912426700842E-19 -1.89037400946845E-02
 -1.28805106971689E-19  1.10276340830439E-19  1.46435874112790E-03
  9.74224858860966E-04 -5.41267157930202E-15  7.40226556804642E-04
 -5.41303729897401E-15  9.74224858860966E-04  7.40226556804642E-04
  5.41291467054647E-15 -9.74224858860966E-04  7.40226556793625E-04
 -9.74224858860966E-04  5.41301877020787E-15  7.40226556793625E-04
  2.54812210625749E-19 -2.73340976767000E-19  1.43880932294031E-02
 Reduced forces (fred)
 -5.02847716817026E-04 -5.02847716817024E-04  2.09806324828182E-19
 -5.02847716817026E-04 -5.02847716817024E-04  2.09806324828182E-19
  2.10345276343166E-01  2.10345276343166E-01  2.09806324828182E-19
 -1.62941800154505E-02 -1.62941800154505E-02  2.09806324828182E-19
 -8.23663247942380E-03 -1.92680490149096E-02 -1.10314165354858E-02
 -1.92680490149096E-02 -8.23663247942380E-03 -1.10314165354858E-02
  2.79478405606200E-03 -8.23663247942380E-03  1.10314165354858E-02
 -8.23663247942380E-03  2.79478405606201E-03  1.10314165354858E-02
 -1.60098870976387E-01 -1.60098870976387E-01  2.09806324828182E-19
 Scale of Primitive Cell (acell) [bohr]
  1.58754733571692E+01  1.58754733571692E+01  1.60135298692722E+01
 Real space primitive translations (rprimd) [bohr]
  0.00000000000000E+00  1.13232755611698E+01  1.11271777589829E+01
  1.13232755611698E+01  0.00000000000000E+00  1.11271777589829E+01
  1.13232755612957E+01  1.13232755612957E+01  0.00000000000000E+00
 Unitary Cell Volume (ucvol) [Bohr^3]=  2.85337711951403E+03
 Angles (23,13,12)= [degrees]
  5.97119121928481E+01  5.97119121928481E+01  6.05761756143038E+01
 Lengths [Bohr]
  1.58754733571692E+01  1.58754733571692E+01  1.60135298692722E+01
 Stress tensor in cartesian coordinates (strten) [Ha/bohr^3]
  5.79234795741301E-06 -5.32035199466123E-14  2.70711479698039E-14
 -5.32035199466123E-14  5.79234795741387E-06  2.70706780818935E-14
  2.70711479698039E-14  2.70706780818935E-14  3.44117568069667E-05
 Total energy (etotal) [Ha]= -1.62320620324125E+02

 Difference of energy with previous step (new-old):
           Absolute (Ha)=-7.74668E-04
           Relative     =-4.77247E-06

--- Iteration: (   3/1000) Internal Cycle: (1/1)
--------------------------------------------------------------------------------

---SELF-CONSISTENT-FIELD CONVERGENCE--------------------------------------------

--- !BeginCycle
iteration_state: {dtset: 1, itime: 3, icycle: 1, }
solver: {iscf: 17, nstep: 2500, nline: 4, wfoptalg: 10, }
tolerances: {toldff: 1.00E-08, }
...

     iter   Etot(hartree)      deltaE(h)  residm     nres2    diffor    maxfor
 ETOT  1  -162.39271876316    -1.624E+02 1.754E+02 4.877E+01 7.950E-01 8.139E-01
 ETOT  2  -162.37884859114     1.387E-02 7.521E+00 1.483E+01 9.986E-01 1.847E-01
 ETOT  3  -162.32304159855     5.581E-02 1.444E+00 1.659E+00 1.762E-01 1.885E-02
 ETOT  4  -162.32215848009     8.831E-04 3.152E+00 2.730E-01 9.834E-03 1.087E-02
 ETOT  5  -162.32217445818    -1.598E-05 4.853E-02 3.591E-02 1.790E-02 2.021E-02
 ETOT  6  -162.32219000713    -1.555E-05 7.986E-02 6.329E-03 5.621E-03 1.723E-02
 ETOT  7  -162.32223165033    -4.164E-05 1.648E-03 1.518E-03 3.072E-03 1.730E-02
 ETOT  8  -162.32223881618    -7.166E-06 2.840E-03 4.737E-04 7.207E-04 1.732E-02
 ETOT  9  -162.32224248524    -3.669E-06 5.782E-05 8.417E-05 1.164E-03 1.776E-02
 ETOT 10  -162.32224333489    -8.496E-07 1.080E-04 1.653E-05 1.872E-04 1.780E-02
 ETOT 11  -162.32224341790    -8.300E-08 7.735E-06 2.123E-06 2.055E-04 1.785E-02
 ETOT 12  -162.32224343223    -1.433E-08 4.569E-06 9.389E-07 9.213E-06 1.785E-02
 ETOT 13  -162.32224344476    -1.253E-08 1.776E-06 9.477E-08 1.115E-05 1.784E-02
 ETOT 14  -162.32224345067    -5.910E-09 1.143E-06 2.043E-08 7.768E-06 1.784E-02
 ETOT 15  -162.32224345688    -6.209E-09 7.688E-07 2.332E-09 2.945E-06 1.785E-02
 ETOT 16  -162.32224345935    -2.473E-09 6.043E-07 7.983E-10 1.059E-06 1.785E-02
 ETOT 17  -162.32224346121    -1.864E-09 4.017E-07 3.105E-10 4.401E-07 1.785E-02
 ETOT 18  -162.32224346310    -1.880E-09 3.438E-07 1.206E-10 5.725E-08 1.785E-02
 ETOT 19  -162.32224346446    -1.366E-09 2.334E-07 4.211E-11 1.308E-07 1.785E-02
 ETOT 20  -162.32224346561    -1.146E-09 1.956E-07 1.372E-11 4.664E-08 1.785E-02
 ETOT 21  -162.32224346632    -7.113E-10 1.418E-07 3.433E-12 3.362E-08 1.785E-02
 ETOT 22  -162.32224346679    -4.738E-10 1.112E-07 6.007E-13 1.005E-08 1.785E-02
 ETOT 23  -162.32224346695    -1.567E-10 8.760E-08 1.476E-13 1.046E-09 1.785E-02
 ETOT 24  -162.32224346703    -7.830E-11 6.321E-08 1.953E-14 5.121E-09 1.785E-02

 At SCF step   24, forces are converged : 
  for the second time, max diff in force=  5.121E-09 < toldff=  1.000E-08

 Cartesian components of stress tensor (hartree/bohr^3)
  sigma(1 1)= -1.00208865E-05  sigma(3 2)=  2.80198808E-14
  sigma(2 2)= -1.00208865E-05  sigma(3 1)=  2.80199992E-14
  sigma(3 3)= -2.59048501E-05  sigma(2 1)= -5.45112858E-14


--- !ResultsGS
iteration_state: {dtset: 1, itime: 3, icycle: 1, }
comment   : Summary of ground state results
lattice_vectors:
- [  0.0000000,  11.3001748,  10.9923334, ]
- [ 11.3001748,   0.0000000,  10.9923334, ]
- [ 11.3001748,  11.3001748,   0.0000000, ]
lattice_lengths: [  15.76469,   15.76469,   15.98086, ]
lattice_angles: [ 59.545,  59.545,  60.909, ] # degrees, (23, 13, 12)
lattice_volume:   2.8073090E+03
convergence: {deltae: -7.830E-11, res2:  1.953E-14, residm:  6.321E-08, diffor:  5.121E-09, }
etotal    :  -1.62322243E+02
entropy   :   0.00000000E+00
fermie    :  -9.53603159E-02
cartesian_stress_tensor: # hartree/bohr^3
- [ -1.00208865E-05,  -5.45112858E-14,   2.80199992E-14, ]
- [ -5.45112858E-14,  -1.00208865E-05,   2.80198808E-14, ]
- [  2.80199992E-14,   2.80198808E-14,  -2.59048501E-05, ]
pressure_GPa:   4.5060E-01
xred      :
- [  2.5142E-01,   2.5142E-01,   2.4858E-01, Cs]
- [  7.5142E-01,   7.5142E-01,   7.4858E-01, Cs]
- [  2.1586E-01,   2.1586E-01,   7.8414E-01, Cl]
- [  7.6061E-01,   7.6061E-01,   2.3939E-01,  I]
- [  2.4240E-01,   7.6133E-01,   7.5760E-01,  I]
- [  7.6133E-01,   2.4240E-01,   7.5760E-01,  I]
- [  2.4240E-01,   7.6133E-01,   2.3867E-01,  I]
- [  7.6133E-01,   2.4240E-01,   2.3867E-01,  I]
- [  1.3214E-02,   1.3214E-02,  -1.3214E-02, Zr]
cartesian_forces: # hartree/bohr
- [ -4.63202942E-21,   1.08901285E-19,   1.10246724E-04, ]
- [  8.92049774E-21,   9.53487579E-20,   1.10246724E-04, ]
- [  8.33910902E-20,   2.08781655E-20,   1.47063677E-02, ]
- [ -5.25003929E-21,   1.09519295E-19,  -7.41414079E-05, ]
- [ -2.16578126E-03,   1.19733664E-14,   7.48611768E-04, ]
- [  1.19731928E-14,  -2.16578126E-03,   7.48611768E-04, ]
- [ -1.19731988E-14,   2.16578126E-03,   7.48611768E-04, ]
- [  2.16578126E-03,  -1.19734589E-14,   7.48611768E-04, ]
- [  4.57705694E-19,  -3.53436438E-19,  -1.78471668E-02, ]
force_length_stats: {min:   7.41414079E-05, max:   1.78471668E-02, mean:   4.66824646E-03, }
...

 Integrated electronic density in atomic spheres:
 ------------------------------------------------
 Atom  Sphere_radius  Integrated_density
    1        2.20660          5.35575038
    2        2.20660          5.35575038
    3        1.80316          4.37847488
    4        2.30022          4.00448738
    5        2.30022          4.00568993
    6        2.30022          4.00568993
    7        2.30022          4.00568993
    8        2.30022          4.00568993
    9        2.21000          8.83418430

 PAW TEST:
 ==== Compensation charge inside spheres ============
 The following values must be close to each other ...
 Compensation charge over spherical meshes =     -5.338395031469854
 Compensation charge over fine fft grid    =     -5.338393910301639

 ==== Results concerning PAW augmentation regions ====

 Total pseudopotential strength Dij (hartree):
 Atom #  1
   0.44388  -0.14697   0.00000   0.00000   0.00000   0.00000  -0.00001   0.00000   0.00001   0.00000  -0.00000   0.00000 ...
  -0.14697   0.04431   0.00000  -0.00000   0.00000   0.00000   0.00000   0.00000  -0.00000   0.00000   0.00000   0.00000 ...
   0.00000   0.00000  -0.09403   0.00000   0.00000  -0.16627   0.00000  -0.00000   0.00000   0.00000   0.00000   0.00000 ...
   0.00000  -0.00000   0.00000  -0.09403   0.00000   0.00000  -0.16627   0.00000   0.00000   0.00000   0.00000   0.00000 ...
   0.00000   0.00000   0.00000   0.00000  -0.09403  -0.00000   0.00000  -0.16627   0.00000   0.00000   0.00000   0.00000 ...
   0.00000   0.00000  -0.16627   0.00000  -0.00000   0.40508   0.00000   0.00002   0.00000  -0.00000   0.00000   0.00000 ...
  -0.00001   0.00000   0.00000  -0.16627   0.00000   0.00000   0.40508   0.00000   0.00000   0.00000  -0.00000   0.00000 ...
   0.00000   0.00000  -0.00000   0.00000  -0.16627   0.00002   0.00000   0.40508   0.00000   0.00000   0.00000  -0.00000 ...
   0.00001  -0.00000   0.00000   0.00000   0.00000   0.00000   0.00000   0.00000   0.00516   0.00000  -0.00000   0.00000 ...
   0.00000   0.00000   0.00000   0.00000   0.00000  -0.00000   0.00000   0.00000   0.00000   0.00516   0.00000   0.00000 ...
  -0.00000   0.00000   0.00000   0.00000   0.00000   0.00000  -0.00000   0.00000  -0.00000   0.00000   0.00516   0.00000 ...
   0.00000   0.00000   0.00000   0.00000   0.00000   0.00000   0.00000  -0.00000   0.00000   0.00000   0.00000   0.00516 ...
   ...  only 12  components have been written...
 Atom #  9
   3.08748  -0.89942   0.00000  -0.00001   0.00000   0.00000   0.00000   0.00000   0.00000   0.00000   0.00007   0.00000 ...
  -0.89942   0.26882   0.00000   0.00001   0.00000   0.00000  -0.00000   0.00000   0.00000   0.00000  -0.00001   0.00000 ...
   0.00000   0.00000   0.26508   0.00000   0.00000  -0.05377   0.00000   0.00000   0.00000   0.00007   0.00000   0.00000 ...
  -0.00001   0.00001   0.00000   0.26517   0.00000   0.00000  -0.05379   0.00000   0.00000   0.00000   0.00002   0.00000 ...
   0.00000   0.00000   0.00000   0.00000   0.26508   0.00000   0.00000  -0.05377   0.00000   0.00000   0.00000   0.00007 ...
   0.00000   0.00000  -0.05377   0.00000   0.00000   0.01479   0.00000   0.00000   0.00000  -0.00001   0.00000   0.00000 ...
   0.00000  -0.00000   0.00000  -0.05379   0.00000   0.00000   0.01480   0.00000   0.00000   0.00000   0.00000   0.00000 ...
   0.00000   0.00000   0.00000   0.00000  -0.05377   0.00000   0.00000   0.01479   0.00000   0.00000   0.00000  -0.00001 ...
   0.00000   0.00000   0.00000   0.00000   0.00000   0.00000   0.00000   0.00000  -0.01859   0.00000   0.00000   0.00000 ...
   0.00000   0.00000   0.00007   0.00000   0.00000  -0.00001   0.00000   0.00000   0.00000  -0.01852   0.00000   0.00000 ...
   0.00007  -0.00001   0.00000   0.00002   0.00000   0.00000   0.00000   0.00000   0.00000   0.00000  -0.01842   0.00000 ...
   0.00000   0.00000   0.00000   0.00000   0.00007   0.00000   0.00000  -0.00001   0.00000   0.00000   0.00000  -0.01852 ...
   ...  only 12  components have been written...


 Augmentation waves occupancies Rhoij:
 Atom #  1
   1.99659  -0.01724   0.00000   0.00000   0.00000   0.00000   0.00002   0.00000   0.00459   0.00000  -0.00110   0.00000 ...
  -0.01724   0.12156   0.00000   0.00191   0.00000   0.00000  -0.00007   0.00000  -0.01323   0.00000   0.00883   0.00000 ...
   0.00000   0.00000   2.00771   0.00000  -0.00284  -0.00503   0.00000   0.00040   0.00000   0.00131   0.00000   0.00030 ...
   0.00000   0.00191   0.00000   2.00875   0.00000   0.00000  -0.00522   0.00000   0.00062   0.00000   0.00044   0.00000 ...
   0.00000   0.00000  -0.00284   0.00000   2.00771   0.00040   0.00000  -0.00503   0.00000   0.00030   0.00000   0.00131 ...
   0.00000   0.00000  -0.00503   0.00000   0.00040   0.00008   0.00000  -0.00001   0.00000  -0.00005   0.00000  -0.00002 ...
   0.00002  -0.00007   0.00000  -0.00522   0.00000   0.00000   0.00009   0.00000  -0.00004   0.00000   0.00000   0.00000 ...
   0.00000   0.00000   0.00040   0.00000  -0.00503  -0.00001   0.00000   0.00008   0.00000  -0.00002   0.00000  -0.00005 ...
   0.00459  -0.01323   0.00000   0.00062   0.00000   0.00000  -0.00004   0.00000   0.02448   0.00000   0.01000   0.00000 ...
   0.00000   0.00000   0.00131   0.00000   0.00030  -0.00005   0.00000  -0.00002   0.00000   0.04127   0.00000   0.00021 ...
  -0.00110   0.00883   0.00000   0.00044   0.00000   0.00000   0.00000   0.00000   0.01000   0.00000   0.01892   0.00000 ...
   0.00000   0.00000   0.00030   0.00000   0.00131  -0.00002   0.00000  -0.00005   0.00000   0.00021   0.00000   0.04127 ...
   ...  only 12  components have been written...
 Atom #  9
   1.99312  -0.06401   0.00000  -0.00066   0.00000   0.00000  -0.00258   0.00000   0.00000   0.00000  -0.00212   0.00000 ...
  -0.06401   1.06050   0.00000  -0.00532   0.00000   0.00000   0.14962   0.00000   0.00000   0.00000   0.09189   0.00000 ...
   0.00000   0.00000   1.96817   0.00000   0.00000  -0.19052   0.00000   0.00000   0.00000   0.00408   0.00000   0.00000 ...
  -0.00066  -0.00532   0.00000   1.96588   0.00000   0.00000  -0.19986   0.00000   0.00000   0.00000   0.00537   0.00000 ...
   0.00000   0.00000   0.00000   0.00000   1.96817   0.00000   0.00000  -0.19052   0.00000   0.00000   0.00000   0.00408 ...
   0.00000   0.00000  -0.19052   0.00000   0.00000   1.46203   0.00000   0.00000   0.00000  -0.03518   0.00000   0.00000 ...
  -0.00258   0.14962   0.00000  -0.19986   0.00000   0.00000   1.81387   0.00000   0.00000   0.00000   0.39267   0.00000 ...
   0.00000   0.00000   0.00000   0.00000  -0.19052   0.00000   0.00000   1.46203   0.00000   0.00000   0.00000  -0.03518 ...
   0.00000   0.00000   0.00000   0.00000   0.00000   0.00000   0.00000   0.00000   0.42322   0.00000   0.00000   0.00000 ...
   0.00000   0.00000   0.00408   0.00000   0.00000  -0.03518   0.00000   0.00000   0.00000   0.49971   0.00000   0.00000 ...
  -0.00212   0.09189   0.00000   0.00537   0.00000   0.00000   0.39267   0.00000   0.00000   0.00000   1.51872   0.00000 ...
   0.00000   0.00000   0.00000   0.00000   0.00408   0.00000   0.00000  -0.03518   0.00000   0.00000   0.00000   0.49971 ...
   ...  only 12  components have been written...



---OUTPUT-----------------------------------------------------------------------

 Cartesian coordinates (xcart) [bohr]
  5.65008739618868E+00  5.65008739618868E+00  5.52736695729980E+00
  1.69502621885664E+01  1.69502621885664E+01  1.65197003644846E+01
  1.13001747924132E+01  1.13001747924132E+01  4.74569251127384E+00
  1.13001747923452E+01  1.13001747923452E+01  1.67218381565874E+01
  1.71641243750581E+01  1.13001747924099E+01  1.10333935536206E+01
  1.13001747924099E+01  1.71641243750581E+01  1.10333935536206E+01
  1.13001747923451E+01  5.43622520969687E+00  1.10333935536206E+01
  5.43622520969687E+00  1.13001747923451E+01  1.10333935536206E+01
 -1.65083471752740E-12 -1.65114002885917E-12  2.90495052965610E-01
 Reduced coordinates (xred)
  2.51419182467983E-01  2.51419182467983E-01  2.48580817532017E-01
  7.51419182467983E-01  7.51419182467983E-01  7.48580817532017E-01
  2.15863745006677E-01  2.15863745006677E-01  7.84136254993323E-01
  7.60613672146155E-01  7.60613672146155E-01  2.39386327853845E-01
  2.42404889758596E-01  7.61330454222963E-01  7.57595110241404E-01
  7.61330454222963E-01  2.42404889758596E-01  7.57595110241404E-01
  2.42404889758596E-01  7.61330454222963E-01  2.38669545777037E-01
  7.61330454222963E-01  2.42404889758596E-01  2.38669545777037E-01
  1.32135299305849E-02  1.32135299305849E-02 -1.32135299305849E-02
 Cartesian forces (fcart) [Ha/bohr]; max,rms= 1.78472E-02 4.53722E-03 (free atoms)
 -4.63202941616350E-21  1.08901285079429E-19  1.10246724041332E-04
  8.92049773990530E-21  9.53487579233599E-20  1.10246724041332E-04
  8.33910901508796E-20  2.08781655123857E-20  1.47063677193123E-02
 -5.25003929327798E-21  1.09519294956543E-19 -7.41414079325163E-05
 -2.16578125989227E-03  1.19733664200282E-14  7.48611767787063E-04
  1.19731928171090E-14 -2.16578125989227E-03  7.48611767787063E-04
 -1.19731988233153E-14  2.16578125989227E-03  7.48611767811680E-04
  2.16578125989227E-03 -1.19734589012651E-14  7.48611767811680E-04
  4.57705694048029E-19 -3.53436438384764E-19 -1.78471668306600E-02
 Reduced forces (fred)
 -1.21186874771222E-03 -1.21186874771222E-03 -1.17826081447253E-18
 -1.21186874771222E-03 -1.21186874771222E-03 -1.17826081447253E-18
 -1.61657297179341E-01 -1.61657297179341E-01 -1.17826081447253E-18
  8.14987075272313E-04  8.14987075272315E-04 -1.17826081447253E-18
 -8.22899014419270E-03  1.62447166546460E-02  2.44737067988387E-02
  1.62447166546460E-02 -8.22899014419270E-03  2.44737067988387E-02
 -3.27026969430314E-02 -8.22899014419270E-03 -2.44737067988387E-02
 -8.22899014419270E-03 -3.27026969430314E-02 -2.44737067988386E-02
  1.96182008176264E-01  1.96182008176264E-01 -1.17826081447253E-18
 Scale of Primitive Cell (acell) [bohr]
  1.57646866150770E+01  1.57646866150770E+01  1.59808604486555E+01
 Real space primitive translations (rprimd) [bohr]
  0.00000000000000E+00  1.13001747923153E+01  1.09923334071848E+01
  1.13001747923153E+01  0.00000000000000E+00  1.09923334071848E+01
  1.13001747924402E+01  1.13001747924402E+01  0.00000000000000E+00
 Unitary Cell Volume (ucvol) [Bohr^3]=  2.80730895239794E+03
 Angles (23,13,12)= [degrees]
  5.95453467216023E+01  5.95453467216023E+01  6.09093065567954E+01
 Lengths [Bohr]
  1.57646866150770E+01  1.57646866150770E+01  1.59808604486555E+01
 Stress tensor in cartesian coordinates (strten) [Ha/bohr^3]
 -1.00208864937451E-05 -5.45112857980277E-14  2.80199992269377E-14
 -5.45112857980277E-14 -1.00208864937451E-05  2.80198807732974E-14
  2.80199992269377E-14  2.80198807732974E-14 -2.59048500640888E-05
 Total energy (etotal) [Ha]= -1.62322243467027E+02

 Difference of energy with previous step (new-old):
           Absolute (Ha)=-1.62314E-03
           Relative     =-9.99956E-06

--- Iteration: (   4/1000) Internal Cycle: (1/1)
--------------------------------------------------------------------------------

---SELF-CONSISTENT-FIELD CONVERGENCE--------------------------------------------

--- !BeginCycle
iteration_state: {dtset: 1, itime: 4, icycle: 1, }
solver: {iscf: 17, nstep: 2500, nline: 4, wfoptalg: 10, }
tolerances: {toldff: 1.00E-08, }
...

     iter   Etot(hartree)      deltaE(h)  residm     nres2    diffor    maxfor
 ETOT  1  -162.35505486868    -1.624E+02 2.412E-02 8.127E+00 3.330E-01 3.477E-01
 ETOT  2  -162.32627280857     2.878E-02 2.270E-04 1.373E+00 3.726E-01 2.492E-02
 ETOT  3  -162.32354013925     2.733E-03 1.106E-04 1.076E-01 5.124E-02 2.633E-02
 ETOT  4  -162.32336353283     1.766E-04 3.383E-05 2.594E-02 2.987E-02 4.448E-03
 ETOT  5  -162.32335318744     1.035E-05 6.348E-06 4.489E-03 3.605E-03 3.525E-03
 ETOT  6  -162.32336478517    -1.160E-05 7.045E-06 7.923E-04 6.856E-04 4.210E-03
 ETOT  7  -162.32336784247    -3.057E-06 3.105E-06 2.867E-04 8.626E-04 5.073E-03
 ETOT  8  -162.32336997729    -2.135E-06 1.183E-06 3.488E-05 3.860E-04 5.459E-03
 ETOT  9  -162.32337023483    -2.575E-07 1.563E-06 1.004E-05 1.675E-04 5.626E-03
 ETOT 10  -162.32337038616    -1.513E-07 5.709E-07 2.155E-06 1.074E-04 5.734E-03
 ETOT 11  -162.32337040654    -2.038E-08 7.675E-07 5.671E-07 2.785E-05 5.706E-03
 ETOT 12  -162.32337043083    -2.429E-08 3.497E-07 2.885E-07 1.098E-05 5.717E-03
 ETOT 13  -162.32337044714    -1.631E-08 3.802E-07 3.517E-08 1.095E-05 5.727E-03
 ETOT 14  -162.32337045987    -1.272E-08 2.166E-07 1.726E-08 2.801E-06 5.730E-03
 ETOT 15  -162.32337046901    -9.145E-09 1.872E-07 3.106E-09 1.194E-06 5.729E-03
 ETOT 16  -162.32337047548    -6.468E-09 1.334E-07 1.733E-09 8.801E-07 5.728E-03
 ETOT 17  -162.32337048034    -4.854E-09 9.240E-08 5.648E-10 6.387E-07 5.728E-03
 ETOT 18  -162.32337048387    -3.538E-09 8.207E-08 2.382E-10 2.711E-07 5.728E-03
 ETOT 19  -162.32337048586    -1.987E-09 4.570E-08 6.730E-11 2.660E-07 5.728E-03
 ETOT 20  -162.32337048773    -1.871E-09 5.043E-08 6.101E-11 5.531E-08 5.728E-03
 ETOT 21  -162.32337048828    -5.456E-10 2.264E-08 1.211E-12 1.691E-07 5.728E-03
 ETOT 22  -162.32337048851    -2.337E-10 3.096E-08 3.138E-12 1.892E-08 5.728E-03
 ETOT 23  -162.32337048856    -4.815E-11 1.122E-08 8.910E-14 3.833E-08 5.728E-03
 ETOT 24  -162.32337048859    -2.757E-11 1.898E-08 3.523E-13 8.955E-09 5.728E-03
 ETOT 25  -162.32337048858     3.467E-12 5.594E-09 6.533E-15 1.108E-08 5.728E-03
 ETOT 26  -162.32337048860    -1.626E-11 1.162E-08 2.903E-14 4.203E-09 5.728E-03
 ETOT 27  -162.32337048859     3.865E-12 3.423E-09 2.178E-14 2.559E-10 5.728E-03

 At SCF step   27, forces are converged : 
  for the second time, max diff in force=  2.559E-10 < toldff=  1.000E-08

 Cartesian components of stress tensor (hartree/bohr^3)
  sigma(1 1)= -2.31387025E-06  sigma(3 2)=  2.75636983E-14
  sigma(2 2)= -2.31387025E-06  sigma(3 1)=  2.75620401E-14
  sigma(3 3)=  9.48930366E-06  sigma(2 1)= -5.38758997E-14


--- !ResultsGS
iteration_state: {dtset: 1, itime: 4, icycle: 1, }
comment   : Summary of ground state results
lattice_vectors:
- [  0.0000000,  11.3119547,  11.0553779, ]
- [ 11.3119547,   0.0000000,  11.0553779, ]
- [ 11.3119547,  11.3119547,   0.0000000, ]
lattice_lengths: [  15.81713,   15.81713,   15.99752, ]
lattice_angles: [ 59.622,  59.622,  60.756, ] # degrees, (23, 13, 12)
lattice_volume:   2.8292994E+03
convergence: {deltae:  3.865E-12, res2:  2.178E-14, residm:  3.423E-09, diffor:  2.559E-10, }
etotal    :  -1.62323370E+02
entropy   :   0.00000000E+00
fermie    :  -9.95760408E-02
cartesian_stress_tensor: # hartree/bohr^3
- [ -2.31387025E-06,  -5.38758997E-14,   2.75620401E-14, ]
- [ -5.38758997E-14,  -2.31387025E-06,   2.75636983E-14, ]
- [  2.75620401E-14,   2.75636983E-14,   9.48930366E-06, ]
pressure_GPa:  -4.7677E-02
xred      :
- [  2.5141E-01,   2.5141E-01,   2.4859E-01, Cs]
- [  7.5141E-01,   7.5141E-01,   7.4859E-01, Cs]
- [  2.2053E-01,   2.2053E-01,   7.7947E-01, Cl]
- [  7.6028E-01,   7.6028E-01,   2.3972E-01,  I]
- [  2.4252E-01,   7.6091E-01,   7.5748E-01,  I]
- [  7.6091E-01,   2.4252E-01,   7.5748E-01,  I]
- [  2.4252E-01,   7.6091E-01,   2.3909E-01,  I]
- [  7.6091E-01,   2.4252E-01,   2.3909E-01,  I]
- [  9.5080E-03,   9.5080E-03,  -9.5080E-03, Zr]
cartesian_forces: # hartree/bohr
- [ -9.86891718E-20,   9.41959355E-20,   7.30253740E-05, ]
- [ -9.38968871E-20,   8.94036507E-20,   7.30253740E-05, ]
- [  1.15068179E-18,  -1.15517503E-18,  -5.72806485E-03, ]
- [ -1.42947254E-19,   1.38454018E-19,   7.46659757E-04, ]
- [ -6.42017418E-04,   3.55774783E-15,   6.94964692E-04, ]
- [  3.55746421E-15,  -6.42017418E-04,   6.94964692E-04, ]
- [ -3.55764772E-15,   6.42017418E-04,   6.94964692E-04, ]
- [  6.42017418E-04,  -3.55735647E-15,   6.94964692E-04, ]
- [ -2.41727347E-19,   2.37234110E-19,   2.05549558E-03, ]
force_length_stats: {min:   7.30253740E-05, max:   5.72806485E-03, mean:   1.38453240E-03, }
...

 Integrated electronic density in atomic spheres:
 ------------------------------------------------
 Atom  Sphere_radius  Integrated_density
    1        2.20660          5.35624729
    2        2.20660          5.35624729
    3        1.80316          4.35060805
    4        2.30022          4.00756526
    5        2.30022          4.00179129
    6        2.30022          4.00179129
    7        2.30022          4.00179129
    8        2.30022          4.00179129
    9        2.21000          8.80741011

 PAW TEST:
 ==== Compensation charge inside spheres ============
 The following values must be close to each other ...
 Compensation charge over spherical meshes =     -5.338390950336036
 Compensation charge over fine fft grid    =     -5.338382483346579

 ==== Results concerning PAW augmentation regions ====

 Total pseudopotential strength Dij (hartree):
 Atom #  1
   0.44420  -0.14707   0.00000   0.00000   0.00000   0.00000  -0.00001   0.00000   0.00000   0.00000  -0.00000   0.00000 ...
  -0.14707   0.04435   0.00000  -0.00000   0.00000   0.00000   0.00000   0.00000  -0.00000   0.00000   0.00000   0.00000 ...
   0.00000   0.00000  -0.09407   0.00000   0.00000  -0.16625   0.00000  -0.00000   0.00000   0.00000   0.00000   0.00000 ...
   0.00000  -0.00000   0.00000  -0.09407   0.00000   0.00000  -0.16625   0.00000   0.00000   0.00000   0.00000   0.00000 ...
   0.00000   0.00000   0.00000   0.00000  -0.09407  -0.00000   0.00000  -0.16625   0.00000   0.00000   0.00000   0.00000 ...
   0.00000   0.00000  -0.16625   0.00000  -0.00000   0.40518   0.00000   0.00001   0.00000  -0.00000   0.00000   0.00000 ...
  -0.00001   0.00000   0.00000  -0.16625   0.00000   0.00000   0.40517   0.00000   0.00000   0.00000  -0.00000   0.00000 ...
   0.00000   0.00000  -0.00000   0.00000  -0.16625   0.00001   0.00000   0.40518   0.00000   0.00000   0.00000  -0.00000 ...
   0.00000  -0.00000   0.00000   0.00000   0.00000   0.00000   0.00000   0.00000   0.00516   0.00000  -0.00000   0.00000 ...
   0.00000   0.00000   0.00000   0.00000   0.00000  -0.00000   0.00000   0.00000   0.00000   0.00516   0.00000   0.00000 ...
  -0.00000   0.00000   0.00000   0.00000   0.00000   0.00000  -0.00000   0.00000  -0.00000   0.00000   0.00516   0.00000 ...
   0.00000   0.00000   0.00000   0.00000   0.00000   0.00000   0.00000  -0.00000   0.00000   0.00000   0.00000   0.00516 ...
   ...  only 12  components have been written...
 Atom #  9
   3.08991  -0.90016   0.00000  -0.00000   0.00000   0.00000  -0.00001   0.00000   0.00000   0.00000   0.00007   0.00000 ...
  -0.90016   0.26905   0.00000   0.00001   0.00000   0.00000  -0.00000   0.00000   0.00000   0.00000  -0.00001   0.00000 ...
   0.00000   0.00000   0.26451   0.00000   0.00000  -0.05363   0.00000   0.00000   0.00000   0.00012   0.00000   0.00000 ...
  -0.00000   0.00001   0.00000   0.26462   0.00000   0.00000  -0.05365   0.00000   0.00000   0.00000   0.00015   0.00000 ...
   0.00000   0.00000   0.00000   0.00000   0.26451   0.00000   0.00000  -0.05363   0.00000   0.00000   0.00000   0.00012 ...
   0.00000   0.00000  -0.05363   0.00000   0.00000   0.01476   0.00000   0.00000   0.00000  -0.00002   0.00000   0.00000 ...
  -0.00001  -0.00000   0.00000  -0.05365   0.00000   0.00000   0.01476   0.00000   0.00000   0.00000  -0.00002   0.00000 ...
   0.00000   0.00000   0.00000   0.00000  -0.05363   0.00000   0.00000   0.01476   0.00000   0.00000   0.00000  -0.00002 ...
   0.00000   0.00000   0.00000   0.00000   0.00000   0.00000   0.00000   0.00000  -0.01927   0.00000   0.00000   0.00000 ...
   0.00000   0.00000   0.00012   0.00000   0.00000  -0.00002   0.00000   0.00000   0.00000  -0.01922   0.00000   0.00000 ...
   0.00007  -0.00001   0.00000   0.00015   0.00000   0.00000  -0.00002   0.00000   0.00000   0.00000  -0.01910   0.00000 ...
   0.00000   0.00000   0.00000   0.00000   0.00012   0.00000   0.00000  -0.00002   0.00000   0.00000   0.00000  -0.01922 ...
   ...  only 12  components have been written...


 Augmentation waves occupancies Rhoij:
 Atom #  1
   1.99655  -0.01735   0.00000   0.00000   0.00000   0.00000   0.00002   0.00000   0.00301   0.00000  -0.00080   0.00000 ...
  -0.01735   0.11767   0.00000   0.00157   0.00000   0.00000  -0.00006   0.00000  -0.01208   0.00000   0.00864   0.00000 ...
   0.00000   0.00000   2.00794   0.00000  -0.00176  -0.00505   0.00000   0.00028   0.00000   0.00111   0.00000   0.00037 ...
   0.00000   0.00157   0.00000   2.00861   0.00000   0.00000  -0.00520   0.00000   0.00063   0.00000   0.00024   0.00000 ...
   0.00000   0.00000  -0.00176   0.00000   2.00794   0.00028   0.00000  -0.00505   0.00000   0.00037   0.00000   0.00111 ...
   0.00000   0.00000  -0.00505   0.00000   0.00028   0.00008   0.00000  -0.00001   0.00000  -0.00004   0.00000  -0.00002 ...
   0.00002  -0.00006   0.00000  -0.00520   0.00000   0.00000   0.00009   0.00000  -0.00003   0.00000   0.00001   0.00000 ...
   0.00000   0.00000   0.00028   0.00000  -0.00505  -0.00001   0.00000   0.00008   0.00000  -0.00002   0.00000  -0.00004 ...
   0.00301  -0.01208   0.00000   0.00063   0.00000   0.00000  -0.00003   0.00000   0.02407   0.00000   0.00893   0.00000 ...
   0.00000   0.00000   0.00111   0.00000   0.00037  -0.00004   0.00000  -0.00002   0.00000   0.03966   0.00000  -0.00004 ...
  -0.00080   0.00864   0.00000   0.00024   0.00000   0.00000   0.00001   0.00000   0.00893   0.00000   0.01853   0.00000 ...
   0.00000   0.00000   0.00037   0.00000   0.00111  -0.00002   0.00000  -0.00004   0.00000  -0.00004   0.00000   0.03966 ...
   ...  only 12  components have been written...
 Atom #  9
   1.99249  -0.06610   0.00000  -0.00038   0.00000   0.00000  -0.00216   0.00000   0.00000   0.00000  -0.00404   0.00000 ...
  -0.06610   1.03755   0.00000  -0.00546   0.00000   0.00000   0.05351   0.00000   0.00000   0.00000   0.02920   0.00000 ...
   0.00000   0.00000   1.96650   0.00000   0.00000  -0.19893   0.00000   0.00000   0.00000   0.00184   0.00000   0.00000 ...
  -0.00038  -0.00546   0.00000   1.96457   0.00000   0.00000  -0.21109   0.00000   0.00000   0.00000  -0.00216   0.00000 ...
   0.00000   0.00000   0.00000   0.00000   1.96650   0.00000   0.00000  -0.19893   0.00000   0.00000   0.00000   0.00184 ...
   0.00000   0.00000  -0.19893   0.00000   0.00000   1.45272   0.00000   0.00000   0.00000  -0.03997   0.00000   0.00000 ...
  -0.00216   0.05351   0.00000  -0.21109   0.00000   0.00000   1.61599   0.00000   0.00000   0.00000   0.17740   0.00000 ...
   0.00000   0.00000   0.00000   0.00000  -0.19893   0.00000   0.00000   1.45272   0.00000   0.00000   0.00000  -0.03997 ...
   0.00000   0.00000   0.00000   0.00000   0.00000   0.00000   0.00000   0.00000   0.42030   0.00000   0.00000   0.00000 ...
   0.00000   0.00000   0.00184   0.00000   0.00000  -0.03997   0.00000   0.00000   0.00000   0.44939   0.00000   0.00000 ...
  -0.00404   0.02920   0.00000  -0.00216   0.00000   0.00000   0.17740   0.00000   0.00000   0.00000   1.36063   0.00000 ...
   0.00000   0.00000   0.00000   0.00000   0.00184   0.00000   0.00000  -0.03997   0.00000   0.00000   0.00000   0.44939 ...
   ...  only 12  components have been written...



---OUTPUT-----------------------------------------------------------------------

 Cartesian coordinates (xcart) [bohr]
  5.65597736858016E+00  5.65597736858016E+00  5.55889608176143E+00
  1.69679321057408E+01  1.69679321057408E+01  1.66142739580964E+01
  1.13119547371957E+01  1.13119547371957E+01  4.87607466503335E+00
  1.13119547371281E+01  1.13119547371281E+01  1.68102976766033E+01
  1.71759220328389E+01  1.13119547371930E+01  1.10933127993811E+01
  1.13119547371930E+01  1.71759220328389E+01  1.10933127993811E+01
  1.13119547371280E+01  5.44798744148203E+00  1.10933127993811E+01
  5.44798744148203E+00  1.13119547371280E+01  1.10933127993811E+01
 -1.19178994028045E-12 -1.19212300718784E-12  2.10229431273993E-01
 Reduced coordinates (xred)
  2.51411401036809E-01  2.51411401036809E-01  2.48588598963191E-01
[...]

 cartesian forces (eV/Angstrom) at end:
    1     -0.00000000000000     0.00000000000000     0.00032177879794
    2      0.00000000000000    -0.00000000000000     0.00032177879794
    3     -0.00000000000000     0.00000000000000    -0.00041111278604
    4      0.00000000000000    -0.00000000000000     0.00017722302873
    5     -0.00014472729663    -0.00000000000000    -0.00007103827856
    6     -0.00000000000000    -0.00014472729663    -0.00007103827856
    7      0.00000000000000     0.00014472729663    -0.00007103827856
    8      0.00014472729663     0.00000000000000    -0.00007103827856
    9      0.00000000000000    -0.00000000000000    -0.00012551472434
 frms,max,avg= 1.3973899E-04 4.1111279E-04   0.000E+00  0.000E+00  8.406E-04 e/A
 length scales= 15.837125060499 15.837125060499 16.026639988563 bohr
              =  8.380645631606  8.380645631606  8.480932612225 angstroms
 prteigrs : about to open file Cs2TiI6o_DS2_EIG
 Fermi (or HOMO) energy (hartree) =  -0.10098   Average Vxc (hartree)=  -0.27607
 Eigenvalues (hartree) for nkpt=  20  k points:
 kpt#   1, nband= 42, wtk=  0.03125, kpt= -0.1250 -0.2500  0.0000 (reduced coord)
  -1.91709   -1.10812   -1.10687   -1.10687   -0.85614   -0.85608   -0.62100   -0.52086
  -0.50839   -0.50793   -0.50536   -0.50327   -0.37205   -0.37164   -0.37144   -0.37089
  -0.37084   -0.37044   -0.22796   -0.20310   -0.19981   -0.19947   -0.17954   -0.17656
  -0.17577   -0.16718   -0.16691   -0.14465   -0.14363   -0.12929   -0.12579   -0.11859
  -0.11587   -0.10695   -0.10671   -0.10207   -0.03086   -0.02071   -0.02035    0.05187
   0.05484    0.06594
 prteigrs : prtvol=0 or 1, do not print more k-points.


--- !EnergyTerms
iteration_state     : {dtset: 2, itime: 35, icycle: 1, }
comment             : Components of total free energy in Hartree
kinetic             :  4.62390690919630E+01
hartree             :  4.03960452639044E+01
xc                  : -5.63425785376798E+01
Ewald energy        : -1.12092239603674E+02
psp_core            :  1.37016440314408E+01
local_psp           : -1.17985203139076E+02
spherical_terms     :  2.37595582665569E+01
total_energy        : -1.62323704626564E+02
total_energy_eV     : -4.41705263617070E+03
...


--- !EnergyTermsDC
iteration_state     : {dtset: 2, itime: 35, icycle: 1, }
comment             : '"Double-counting" decomposition of free energy'
band_energy         : -3.03286815171930E+01
Ewald energy        : -1.12092239603674E+02
psp_core            :  1.37016440314408E+01
xc_dc               : -5.52897062880870E+01
spherical_terms     :  2.16852787394689E+01
total_energy_dc     : -1.62323704638044E+02
total_energy_dc_eV  : -4.41705263648308E+03
...

 rms coord change=  4.0955E-03   atom, delta coord (reduced):
     1       -0.001735265319     -0.001735265319      0.001735265319
     2       -0.001735265319     -0.001735265319      0.001735265319
     3       -0.000060306664     -0.000060306664      0.000060306664
     4        0.011476032023      0.011476032023     -0.011476032023
     5       -0.001276364383     -0.001579775404      0.001276364383
     6       -0.001579775404     -0.001276364383      0.001276364383
     7       -0.001276364383     -0.001579775404      0.001579775404
     8       -0.001579775404     -0.001276364383      0.001579775404
     9       -0.002232915146     -0.002232915146      0.002232915146

 Cartesian components of stress tensor (hartree/bohr^3)
  sigma(1 1)=  1.18042478E-08  sigma(3 2)= -2.19063918E-14
  sigma(2 2)=  1.18042478E-08  sigma(3 1)= -2.19056914E-14
  sigma(3 3)= -4.05345997E-08  sigma(2 1)=  4.27696690E-14

-Cartesian components of stress tensor (GPa)         [Pressure=  1.6599E-04 GPa]
- sigma(1 1)=  3.47292901E-04  sigma(3 2)= -6.44508189E-10
- sigma(2 2)=  3.47292901E-04  sigma(3 1)= -6.44487583E-10
- sigma(3 3)= -1.19256890E-03  sigma(2 1)=  1.25832689E-09

== END DATASET(S) ==============================================================
================================================================================
  
 -outvars: echo values of variables after computation  --------
            acell1     1.5837124838E+01  1.5837124838E+01  1.6026639824E+01 Bohr
            acell2     1.5837125060E+01  1.5837125060E+01  1.6026639989E+01 Bohr
              amu      1.32905430E+02  1.26904470E+02  9.12240000E+01
                       3.54527000E+01
           diemac      1.20000000E+01
          dilatmx      1.15000000E+00
             ecut      1.60000000E+01 Hartree
           ecutsm      5.00000000E-01 Hartree
           etotal1    -1.6232370464E+02
           etotal2    -1.6232370464E+02
            fcart1     6.4848980620E-22 -7.0755783220E-22 -6.2571505177E-06
                      -1.7432988556E-21  1.6842308296E-21 -6.2571505177E-06
                      -1.3636143262E-22  7.7293406622E-23 -3.4441815877E-06
                      -3.2159630103E-22  2.6252827504E-22  7.9946461572E-06
                      -2.8153751127E-06  1.5590636469E-17  1.3806760359E-06
                       1.5590865201E-17 -2.8153751127E-06  1.3806760359E-06
                      -1.5590050633E-17  2.8153751127E-06  1.3806760360E-06
                       2.8153751127E-06 -1.5590423167E-17  1.3806760360E-06
                       5.5337531279E-22 -6.1244333879E-22  2.4411323220E-06
            fcart2    -1.0883062379E-22  5.9756333559E-23  6.2576018535E-06
                       1.5852352707E-21 -1.6343095609E-21  6.2576018535E-06
                      -3.6004186668E-22  3.1096757645E-22 -7.9948714720E-06
                       1.1640084851E-22 -1.6547513874E-22  3.4464394801E-06
                      -2.8144980509E-06 -1.2482992845E-17 -1.3814746851E-06
                      -1.2483388654E-17 -2.8144980509E-06 -1.3814746851E-06
                       1.2482732012E-17  2.8144980509E-06 -1.3814746852E-06
                       2.8144980509E-06  1.2483763096E-17 -1.3814746852E-06
                       8.5467547993E-23 -1.3454183822E-22 -2.4408729746E-06
-          fftalg         112
           ionmov           2
              ixc     -101130
           jdtset        1    2
              kpt     -1.25000000E-01 -2.50000000E-01  0.00000000E+00
                      -1.25000000E-01  5.00000000E-01  0.00000000E+00
                      -2.50000000E-01 -3.75000000E-01  0.00000000E+00
                      -1.25000000E-01 -3.75000000E-01  1.25000000E-01
                      -1.25000000E-01  2.50000000E-01  0.00000000E+00
                      -2.50000000E-01  3.75000000E-01  0.00000000E+00
                      -1.25000000E-01  3.75000000E-01  1.25000000E-01
                      -3.75000000E-01  5.00000000E-01  0.00000000E+00
                      -2.50000000E-01  5.00000000E-01  1.25000000E-01
                      -1.25000000E-01  5.00000000E-01  2.50000000E-01
                      -1.25000000E-01  0.00000000E+00  0.00000000E+00
                      -1.25000000E-01  1.25000000E-01  1.25000000E-01
                      -1.25000000E-01  2.50000000E-01  2.50000000E-01
                      -1.25000000E-01  3.75000000E-01  3.75000000E-01
                      -3.75000000E-01  0.00000000E+00  0.00000000E+00
                      -2.50000000E-01  0.00000000E+00  1.25000000E-01
                      -3.75000000E-01  1.25000000E-01  1.25000000E-01
                      -2.50000000E-01  1.25000000E-01  2.50000000E-01
                      -3.75000000E-01  2.50000000E-01  2.50000000E-01
                      -2.50000000E-01  2.50000000E-01  3.75000000E-01
         kptrlatt        4   -4    4     -4    4    4     -4   -4    4
          kptrlen1     8.91178518E+01
          kptrlen2     8.91178514E+01
P           mkmem           5
            natom           9
            nband          42
           ndtset           2
            ngfft          72      72      72
          ngfftdg         108     108     108
             nkpt          20
            nstep        2500
             nsym           8
            ntime        1000
           ntypat           4
              occ      2.000000  2.000000  2.000000  2.000000  2.000000  2.000000
                       2.000000  2.000000  2.000000  2.000000  2.000000  2.000000
                       2.000000  2.000000  2.000000  2.000000  2.000000  2.000000
                       2.000000  2.000000  2.000000  2.000000  2.000000  2.000000
                       2.000000  2.000000  2.000000  2.000000  2.000000  2.000000
                       2.000000  2.000000  2.000000  2.000000  2.000000  2.000000
                       0.000000  0.000000  0.000000  0.000000  0.000000  0.000000
          optcell           2
        optforces           1
        pawecutdg      4.00000000E+01 Hartree
            prtwf           0
            rprim1     0.0000000000E+00  7.1556837589E-01  6.9854269693E-01
                       7.1556837589E-01  0.0000000000E+00  6.9854269693E-01
                       7.0710678119E-01  7.0710678119E-01  0.0000000000E+00
            rprim2     0.0000000000E+00  7.1556837320E-01  6.9854269968E-01
                       7.1556837320E-01  0.0000000000E+00  6.9854269968E-01
                       7.0710678119E-01  7.0710678119E-01  0.0000000000E+00
           shiftk      5.00000000E-01  5.00000000E-01  5.00000000E-01
          spgroup         107
           strten1     1.1791907901E-08  1.1791907899E-08 -4.0549287127E-08
                       2.7355773825E-14  2.7354040641E-14 -5.3407048162E-14
           strten2     1.1804247755E-08  1.1804247753E-08 -4.0534599724E-08
                      -2.1906391787E-14 -2.1905691373E-14  4.2769669026E-14
           symrel      1  0  0   0  1  0   0  0  1       1  0 -1   0  1 -1   0  0 -1
                       0  1 -1   1  0 -1   0  0 -1       0  1  0   1  0  0   0  0  1
                       1  0  0   1  0 -1   1 -1  0       0  1  0   0  1 -1  -1  1  0
                       0  1 -1   0  1  0  -1  1  0       1  0 -1   1  0  0   1 -1  0
           toldff      1.00000000E-08
           tolmxf      1.00000000E-05
            typat1     1  1  4  2  2  2  2  2  3
            typat2     1  1  2  4  2  2  2  2  3
           useylm           1
              wtk        0.03125    0.03125    0.03125    0.06250    0.03125    0.03125
                         0.06250    0.03125    0.06250    0.06250    0.03125    0.06250
                         0.06250    0.06250    0.03125    0.06250    0.06250    0.06250
                         0.06250    0.06250
           xangst1     2.9984624496E+00  2.9984624496E+00  2.9637552310E+00
                       8.9953873488E+00  8.9953873488E+00  8.8179939502E+00
                       5.9969248992E+00  5.9969248992E+00  2.5203345619E+00
                       5.9969248992E+00  5.9969248992E+00  8.8965090272E+00
                       9.1003111094E+00  5.9969248992E+00  5.8878772995E+00
                       5.9969248992E+00  9.1003111094E+00  5.8878772995E+00
                       5.9969248992E+00  2.8935386890E+00  5.8878772995E+00
                       2.8935386890E+00  5.9969248992E+00  5.8878772995E+00
                      -4.7543750270E-13 -4.7559906649E-13  8.3807785144E-02
           xangst2     2.9984624805E+00  2.9984624805E+00  2.8904835023E+00
                       8.9953874414E+00  8.9953874414E+00  8.7447223269E+00
                       5.9969249609E+00  5.9969249609E+00  2.8119684224E+00
                       5.9969249609E+00  5.9969249609E+00  9.1881430737E+00
                       9.1003112245E+00  5.9969249609E+00  5.8206002655E+00
                       5.9969249609E+00  9.1003112245E+00  5.8206002655E+00
                       5.9969249609E+00  2.8935386974E+00  5.8206002655E+00
                       2.8935386974E+00  5.9969249609E+00  5.8206002655E+00
                      -3.8062685978E-13 -3.7964278937E-13 -8.3807790633E-02
            xcart1     5.6662728495E+00  5.6662728495E+00  5.6006857116E+00
                       1.6998818548E+01  1.6998818548E+01  1.6663593607E+01
                       1.1332545699E+01  1.1332545699E+01  4.7627420853E+00
                       1.1332545699E+01  1.1332545699E+01  1.6811965600E+01
                       1.7197095721E+01  1.1332545699E+01  1.1126475600E+01
                       1.1332545699E+01  1.7197095721E+01  1.1126475600E+01
                       1.1332545699E+01  5.4679956771E+00  1.1126475600E+01
                       5.4679956771E+00  1.1332545699E+01  1.1126475600E+01
                      -8.9844667340E-13 -8.9875198473E-13  1.5837376173E-01
            xcart2     5.6662729078E+00  5.6662729078E+00  5.4622222109E+00
                       1.6998818723E+01  1.6998818723E+01  1.6525130306E+01
                       1.1332545816E+01  1.1332545816E+01  5.3138502128E+00
                       1.1332545816E+01  1.1332545816E+01  1.7363074079E+01
                       1.7197095938E+01  1.1332545816E+01  1.0999340431E+01
                       1.1332545816E+01  1.7197095938E+01  1.0999340431E+01
                       1.1332545816E+01  5.4679956930E+00  1.0999340431E+01
                       5.4679956930E+00  1.1332545816E+01  1.0999340431E+01
                      -7.1928052380E-13 -7.1742090023E-13 -1.5837377210E-01
             xred1     2.5312900389E-01  2.5312900389E-01  2.4687099611E-01
                       7.5312900389E-01  7.5312900389E-01  7.4687099611E-01
                       2.1525724204E-01  2.1525724204E-01  7.8474275796E-01
                       7.5983483540E-01  7.5983483540E-01  2.4016516460E-01
                       2.4412488036E-01  7.6162114092E-01  7.5587511964E-01
                       7.6162114092E-01  2.4412488036E-01  7.5587511964E-01
                       2.4412488036E-01  7.6162114092E-01  2.3837885908E-01
                       7.6162114092E-01  2.4412488036E-01  2.3837885908E-01
                       7.1578721986E-03  7.1578721986E-03 -7.1578721986E-03
             xred2     2.4687099287E-01  2.4687099287E-01  2.5312900713E-01
                       7.4687099287E-01  7.4687099287E-01  7.5312900713E-01
                       2.4016516124E-01  2.4016516124E-01  7.5983483876E-01
                       7.8474276067E-01  7.8474276067E-01  2.1525723933E-01
                       2.3837885916E-01  7.5587512329E-01  7.6162114084E-01
                       7.5587512329E-01  2.3837885916E-01  7.6162114084E-01
                       2.3837885916E-01  7.5587512329E-01  2.4412487671E-01
                       7.5587512329E-01  2.3837885916E-01  2.4412487671E-01
                      -7.1578725385E-03 -7.1578725385E-03  7.1578725385E-03
            znucl       55.00000   53.00000   40.00000   17.00000

================================================================================


- Timing analysis has been suppressed with timopt=0



================================================================================

 Suggested references for the acknowledgment of ABINIT usage.

 The users of ABINIT have little formal obligations with respect to the ABINIT group
 (those specified in the GNU General Public License, http://www.gnu.org/copyleft/gpl.txt).
 However, it is common practice in the scientific literature,
 to acknowledge the efforts of people that have made the research possible.
 In this spirit, please find below suggested citations of work written by ABINIT developers,
 corresponding to implementations inside of ABINIT that you have used in the present run.
 Note also that it will be of great value to readers of publications presenting these results,
 to read papers enabling them to understand the theoretical formalism and details
 of the ABINIT implementation.
 For information on why they are suggested, see also https://docs.abinit.org/theory/acknowledgments.
-
- [1] Implementation of the Projector Augmented-Wave Method in the ABINIT code.
- M. Torrent, F. Jollet, F. Bottin, G. Zerah, and X. Gonze Comput. Mat. Science 42, 337, (2008).
- Comment: PAW calculations. Strong suggestion to cite this paper.
- DOI and bibtex: see https://docs.abinit.org/theory/bibliography/#torrent2008
-
- [2] Libxc: A library of exchange and correlation functionals for density functional theory.
- M.A.L. Marques, M.J.T. Oliveira, T. Burnus, Computer Physics Communications 183, 2227 (2012).
- Comment: to be cited when LibXC is used (negative value of ixc)
- Strong suggestion to cite this paper.
- DOI and bibtex: see https://docs.abinit.org/theory/bibliography/#marques2012
-
- [3] The Abinit project: Impact, environment and recent developments.
- Computer Phys. Comm. 248, 107042 (2020).
- X.Gonze, B. Amadon, G. Antonius, F.Arnardi, L.Baguet, J.-M.Beuken,
- J.Bieder, F.Bottin, J.Bouchet, E.Bousquet, N.Brouwer, F.Bruneval,
- G.Brunin, T.Cavignac, J.-B. Charraud, Wei Chen, M.Cote, S.Cottenier,
- J.Denier, G.Geneste, Ph.Ghosez, M.Giantomassi, Y.Gillet, O.Gingras,
- D.R.Hamann, G.Hautier, Xu He, N.Helbig, N.Holzwarth, Y.Jia, F.Jollet,
- W.Lafargue-Dit-Hauret, K.Lejaeghere, M.A.L.Marques, A.Martin, C.Martins,
- H.P.C. Miranda, F.Naccarato, K. Persson, G.Petretto, V.Planes, Y.Pouillon,
- S.Prokhorenko, F.Ricci, G.-M.Rignanese, A.H.Romero, M.M.Schmitt, M.Torrent,
- M.J.van Setten, B.Van Troeye, M.J.Verstraete, G.Zerah and J.W.Zwanzig
- Comment: the fifth generic paper describing the ABINIT project.
- Note that a version of this paper, that is not formatted for Computer Phys. Comm. 
- is available at https://www.abinit.org/sites/default/files/ABINIT20.pdf .
- The licence allows the authors to put it on the Web.
- DOI and bibtex: see https://docs.abinit.org/theory/bibliography/#gonze2020
-
- [4] ABINIT: Overview, and focus on selected capabilities
- J. Chem. Phys. 152, 124102 (2020).
- A. Romero, D.C. Allan, B. Amadon, G. Antonius, T. Applencourt, L.Baguet,
- J.Bieder, F.Bottin, J.Bouchet, E.Bousquet, F.Bruneval,
- G.Brunin, D.Caliste, M.Cote,
- J.Denier, C. Dreyer, Ph.Ghosez, M.Giantomassi, Y.Gillet, O.Gingras,
- D.R.Hamann, G.Hautier, F.Jollet, G. Jomard,
- A.Martin, 
- H.P.C. Miranda, F.Naccarato, G.Petretto, N.A. Pike, V.Planes,
- S.Prokhorenko, T. Rangel, F.Ricci, G.-M.Rignanese, M.Royo, M.Stengel, M.Torrent,
- M.J.van Setten, B.Van Troeye, M.J.Verstraete, J.Wiktor, J.W.Zwanziger, and X.Gonze.
- Comment: a global overview of ABINIT, with focus on selected capabilities .
- Note that a version of this paper, that is not formatted for J. Chem. Phys 
- is available at https://www.abinit.org/sites/default/files/ABINIT20_JPC.pdf .
- The licence allows the authors to put it on the Web.
- DOI and bibtex: see https://docs.abinit.org/theory/bibliography/#romero2020
-
- [5] Recent developments in the ABINIT software package.
- Computer Phys. Comm. 205, 106 (2016).
- X.Gonze, F.Jollet, F.Abreu Araujo, D.Adams, B.Amadon, T.Applencourt,
- C.Audouze, J.-M.Beuken, J.Bieder, A.Bokhanchuk, E.Bousquet, F.Bruneval
- D.Caliste, M.Cote, F.Dahm, F.Da Pieve, M.Delaveau, M.Di Gennaro,
- B.Dorado, C.Espejo, G.Geneste, L.Genovese, A.Gerossier, M.Giantomassi,
- Y.Gillet, D.R.Hamann, L.He, G.Jomard, J.Laflamme Janssen, S.Le Roux,
- A.Levitt, A.Lherbier, F.Liu, I.Lukacevic, A.Martin, C.Martins,
- M.J.T.Oliveira, S.Ponce, Y.Pouillon, T.Rangel, G.-M.Rignanese,
- A.H.Romero, B.Rousseau, O.Rubel, A.A.Shukri, M.Stankovski, M.Torrent,
- M.J.Van Setten, B.Van Troeye, M.J.Verstraete, D.Waroquier, J.Wiktor,
- B.Xu, A.Zhou, J.W.Zwanziger.
- Comment: the fourth generic paper describing the ABINIT project.
- Note that a version of this paper, that is not formatted for Computer Phys. Comm. 
- is available at https://www.abinit.org/sites/default/files/ABINIT16.pdf .
- The licence allows the authors to put it on the Web.
- DOI and bibtex: see https://docs.abinit.org/theory/bibliography/#gonze2016
-
- Proc.   0 individual time (sec): cpu=      29724.7  wall=      29771.3

================================================================================

 Calculation completed.
.Delivered   0 WARNINGs and  70 COMMENTs to log file.
+Overall time at end (sec) : cpu=     118900.9  wall=     119085.1
