
.Version 9.2.2 of ABINIT 
.(MPI version, prepared for a x86_64_linux_gnu9.3 computer) 

.Copyright (C) 1998-2020 ABINIT group . 
 ABINIT comes with ABSOLUTELY NO WARRANTY.
 It is free software, and you are welcome to redistribute it
 under certain conditions (GNU General Public License,
 see ~abinit/COPYING or http://www.gnu.org/copyleft/gpl.txt).

 ABINIT is a project of the Universite Catholique de Louvain,
 Corning Inc. and other collaborators, see ~abinit/doc/developers/contributors.txt .
 Please read https://docs.abinit.org/theory/acknowledgments for suggested
 acknowledgments of the ABINIT effort.
 For more information, see https://www.abinit.org .

.Starting date : Thu 24 Nov 2022.
- ( at 08h16 )
  
- input  file    -> Cs2TiI6.in
- output file    -> Cs2TiI6.out
- root for input  files -> Cs2TiI6i
- root for output files -> Cs2TiI6o

- inpspheads : Reading pseudopotential header in XML form from 
-   ../../../Psps_for_tests/ATOMICDATA/Cs.GGA_PBE-JTH.xml
- inpspheads : Reading pseudopotential header in XML form from 
-   ../../../Psps_for_tests/ATOMICDATA/I.GGA_PBE-JTH.xml
- inpspheads : Reading pseudopotential header in XML form from 
-   ../../../Psps_for_tests/ATOMICDATA/Zr.GGA_PBE-JTH.xml
- inpspheads : Reading pseudopotential header in XML form from 
-   ../../../Psps_for_tests/ATOMICDATA/Br.GGA_PBE-JTH.xml

 DATASET    1 : space group Fm m 2 (# 42); Bravais oF (face-center ortho.)
================================================================================
 Values of the parameters that define the memory need for DATASET  1.
     intxc =       0    ionmov =       0      iscf =      17    lmnmax =      18
     lnmax =       6     mgfft =      60  mpssoang =       3    mqgrid =    3594
     natom =       9  nloc_mem =       2    nspden =       1   nspinor =       1
    nsppol =       1      nsym =       4    n1xccc =       1    ntypat =       4
    occopt =       1   xclevel =       2
-    mband =          42        mffmem =           1         mkmem =          47
       mpw =        8015          nfft =      216000          nkpt =         280
Pmy_natom=         2
 PAW method is used; the additional fine FFT grid is defined by:
   mgfftf=        90    nfftf =    729000
================================================================================
P This job should need less than                     482.366 Mbytes of memory.
  Rough estimation (10% accuracy) of disk space for files :
_ WF disk file :   1438.241 Mbytes ; DEN or POT disk file :      5.564 Mbytes.
================================================================================


 DATASET    2 : space group Fm m 2 (# 42); Bravais oF (face-center ortho.)
================================================================================
 Values of the parameters that define the memory need for DATASET  2.
     intxc =       0    ionmov =       0      iscf =      17    lmnmax =      18
     lnmax =       6     mgfft =      60  mpssoang =       3    mqgrid =    3558
     natom =       9  nloc_mem =       2    nspden =       1   nspinor =       1
    nsppol =       1      nsym =       4    n1xccc =       1    ntypat =       4
    occopt =       1   xclevel =       2
-    mband =          42        mffmem =           1         mkmem =          47
       mpw =        7788          nfft =      216000          nkpt =         280
Pmy_natom=         2
 PAW method is used; the additional fine FFT grid is defined by:
   mgfftf=        90    nfftf =    729000
================================================================================
P This job should need less than                     474.780 Mbytes of memory.
  Rough estimation (10% accuracy) of disk space for files :
_ WF disk file :   1397.507 Mbytes ; DEN or POT disk file :      5.564 Mbytes.
================================================================================


 DATASET    3 : space group Fm m 2 (# 42); Bravais oF (face-center ortho.)
================================================================================
 Values of the parameters that define the memory need for DATASET  3.
     intxc =       0    ionmov =       0      iscf =      17    lmnmax =      18
     lnmax =       6     mgfft =      60  mpssoang =       3    mqgrid =    3521
     natom =       9  nloc_mem =       2    nspden =       1   nspinor =       1
    nsppol =       1      nsym =       4    n1xccc =       1    ntypat =       4
    occopt =       1   xclevel =       2
-    mband =          42        mffmem =           1         mkmem =          47
       mpw =        7550          nfft =      216000          nkpt =         280
Pmy_natom=         2
 PAW method is used; the additional fine FFT grid is defined by:
   mgfftf=        90    nfftf =    729000
================================================================================
P This job should need less than                     466.826 Mbytes of memory.
  Rough estimation (10% accuracy) of disk space for files :
_ WF disk file :   1354.799 Mbytes ; DEN or POT disk file :      5.564 Mbytes.
================================================================================


 DATASET    4 : space group Fm m 2 (# 42); Bravais oF (face-center ortho.)
================================================================================
 Values of the parameters that define the memory need for DATASET  4.
     intxc =       0    ionmov =       0      iscf =      17    lmnmax =      18
     lnmax =       6     mgfft =      60  mpssoang =       3    mqgrid =    3485
     natom =       9  nloc_mem =       2    nspden =       1   nspinor =       1
    nsppol =       1      nsym =       4    n1xccc =       1    ntypat =       4
    occopt =       1   xclevel =       2
-    mband =          42        mffmem =           1         mkmem =          47
       mpw =        7329          nfft =      216000          nkpt =         280
Pmy_natom=         2
 PAW method is used; the additional fine FFT grid is defined by:
   mgfftf=        90    nfftf =    729000
================================================================================
P This job should need less than                     459.453 Mbytes of memory.
  Rough estimation (10% accuracy) of disk space for files :
_ WF disk file :   1315.142 Mbytes ; DEN or POT disk file :      5.564 Mbytes.
================================================================================


 DATASET    5 : space group Fm m 2 (# 42); Bravais oF (face-center ortho.)
================================================================================
 Values of the parameters that define the memory need for DATASET  5.
     intxc =       0    ionmov =       0      iscf =      17    lmnmax =      18
     lnmax =       6     mgfft =      54  mpssoang =       3    mqgrid =    3449
     natom =       9  nloc_mem =       2    nspden =       1   nspinor =       1
    nsppol =       1      nsym =       4    n1xccc =       1    ntypat =       4
    occopt =       1   xclevel =       2
-    mband =          42        mffmem =           1         mkmem =          47
       mpw =        7088          nfft =      157464          nkpt =         280
Pmy_natom=         2
 PAW method is used; the additional fine FFT grid is defined by:
   mgfftf=        90    nfftf =    729000
================================================================================
P This job should need less than                     442.694 Mbytes of memory.
  Rough estimation (10% accuracy) of disk space for files :
_ WF disk file :   1271.897 Mbytes ; DEN or POT disk file :      5.564 Mbytes.
================================================================================


 DATASET    6 : space group Fm m 2 (# 42); Bravais oF (face-center ortho.)
================================================================================
 Values of the parameters that define the memory need for DATASET  6.
     intxc =       0    ionmov =       0      iscf =      17    lmnmax =      18
     lnmax =       6     mgfft =      54  mpssoang =       3    mqgrid =    3412
     natom =       9  nloc_mem =       2    nspden =       1   nspinor =       1
    nsppol =       1      nsym =       4    n1xccc =       1    ntypat =       4
    occopt =       1   xclevel =       2
-    mband =          42        mffmem =           1         mkmem =          47
       mpw =        6874          nfft =      157464          nkpt =         280
Pmy_natom=         2
 PAW method is used; the additional fine FFT grid is defined by:
   mgfftf=        90    nfftf =    729000
================================================================================
P This job should need less than                     435.569 Mbytes of memory.
  Rough estimation (10% accuracy) of disk space for files :
_ WF disk file :   1233.496 Mbytes ; DEN or POT disk file :      5.564 Mbytes.
================================================================================


 DATASET    7 : space group Fm m 2 (# 42); Bravais oF (face-center ortho.)
================================================================================
 Values of the parameters that define the memory need for DATASET  7.
     intxc =       0    ionmov =       0      iscf =      17    lmnmax =      18
     lnmax =       6     mgfft =      54  mpssoang =       3    mqgrid =    3376
     natom =       9  nloc_mem =       2    nspden =       1   nspinor =       1
    nsppol =       1      nsym =       4    n1xccc =       1    ntypat =       4
    occopt =       1   xclevel =       2
-    mband =          42        mffmem =           1         mkmem =          47
       mpw =        6652          nfft =      157464          nkpt =         280
Pmy_natom=         2
 PAW method is used; the additional fine FFT grid is defined by:
   mgfftf=        90    nfftf =    729000
================================================================================
P This job should need less than                     428.179 Mbytes of memory.
  Rough estimation (10% accuracy) of disk space for files :
_ WF disk file :   1193.659 Mbytes ; DEN or POT disk file :      5.564 Mbytes.
================================================================================


 DATASET    8 : space group Fm m 2 (# 42); Bravais oF (face-center ortho.)
================================================================================
 Values of the parameters that define the memory need for DATASET  8.
     intxc =       0    ionmov =       0      iscf =      17    lmnmax =      18
     lnmax =       6     mgfft =      54  mpssoang =       3    mqgrid =    3340
     natom =       9  nloc_mem =       2    nspden =       1   nspinor =       1
    nsppol =       1      nsym =       4    n1xccc =       1    ntypat =       4
    occopt =       1   xclevel =       2
-    mband =          42        mffmem =           1         mkmem =          47
       mpw =        6456          nfft =      157464          nkpt =         280
Pmy_natom=         2
 PAW method is used; the additional fine FFT grid is defined by:
   mgfftf=        90    nfftf =    729000
================================================================================
P This job should need less than                     421.676 Mbytes of memory.
  Rough estimation (10% accuracy) of disk space for files :
_ WF disk file :   1158.488 Mbytes ; DEN or POT disk file :      5.564 Mbytes.
================================================================================


 DATASET    9 : space group Fm m 2 (# 42); Bravais oF (face-center ortho.)
================================================================================
 Values of the parameters that define the memory need for DATASET  9.
     intxc =       0    ionmov =       0      iscf =      17    lmnmax =      18
     lnmax =       6     mgfft =      54  mpssoang =       3    mqgrid =    3303
     natom =       9  nloc_mem =       2    nspden =       1   nspinor =       1
    nsppol =       1      nsym =       4    n1xccc =       1    ntypat =       4
    occopt =       1   xclevel =       2
-    mband =          42        mffmem =           1         mkmem =          47
       mpw =        6238          nfft =      157464          nkpt =         280
Pmy_natom=         2
 PAW method is used; the additional fine FFT grid is defined by:
   mgfftf=        90    nfftf =    729000
================================================================================
P This job should need less than                     414.434 Mbytes of memory.
  Rough estimation (10% accuracy) of disk space for files :
_ WF disk file :   1119.370 Mbytes ; DEN or POT disk file :      5.564 Mbytes.
================================================================================


 DATASET   10 : space group Fm m 2 (# 42); Bravais oF (face-center ortho.)
================================================================================
 Values of the parameters that define the memory need for DATASET 10.
     intxc =       0    ionmov =       0      iscf =      17    lmnmax =      18
     lnmax =       6     mgfft =      54  mpssoang =       3    mqgrid =    3267
     natom =       9  nloc_mem =       2    nspden =       1   nspinor =       1
    nsppol =       1      nsym =       4    n1xccc =       1    ntypat =       4
    occopt =       1   xclevel =       2
-    mband =          42        mffmem =           1         mkmem =          47
       mpw =        6032          nfft =      157464          nkpt =         280
Pmy_natom=         2
 PAW method is used; the additional fine FFT grid is defined by:
   mgfftf=        90    nfftf =    729000
================================================================================
P This job should need less than                     407.605 Mbytes of memory.
  Rough estimation (10% accuracy) of disk space for files :
_ WF disk file :   1082.404 Mbytes ; DEN or POT disk file :      5.564 Mbytes.
================================================================================

--------------------------------------------------------------------------------
------------- Echo of variables that govern the present computation ------------
--------------------------------------------------------------------------------
-
- outvars: echo of selected default values                                      
-   iomode0 =  0 , fftalg0 =112 , wfoptalg0 = 10
-
- outvars: echo of global parameters not present in the input file              
-  max_nthreads =    0
-
 -outvars: echo values of preprocessed input variables --------
            acell1     1.5570243124E+01  1.5410398910E+01  1.5401625640E+01 Bohr
            acell2     1.5408674110E+01  1.5263431872E+01  1.5241385507E+01 Bohr
            acell3     1.5256407371E+01  1.5108803235E+01  1.5080175014E+01 Bohr
            acell4     1.5101642955E+01  1.4952486365E+01  1.4922944765E+01 Bohr
            acell5     1.4948867235E+01  1.4794561260E+01  1.4765486318E+01 Bohr
            acell6     1.4797769172E+01  1.4633432955E+01  1.4609679328E+01 Bohr
            acell7     1.4648115156E+01  1.4469817423E+01  1.4455063618E+01 Bohr
            acell8     1.4499150243E+01  1.4306089846E+01  1.4299997361E+01 Bohr
            acell9     1.4350047814E+01  1.4141443726E+01  1.4146043848E+01 Bohr
            acell10    1.4200658024E+01  1.3976705047E+01  1.3992519247E+01 Bohr
              amu      1.32905430E+02  1.26904470E+02  9.12240000E+01
                       7.99040000E+01
           diemac      1.20000000E+01
             ecut      1.60000000E+01 Hartree
-          fftalg         112
           istwfk        2    0    0    0    0    0    3    0    0    0
                         0    0    0    0    0    0    0    0    0    0
                         0    0    0    0    0    0    0    0    0    0
                         0    0    0    0    0    0    0    0    0    0
                         0    0    7    0    0    0    0    0    0    0
                       outvar_i_n : Printing only first  50 k-points.
              ixc     -101130
           jdtset        1    2    3    4    5    6    7    8    9   10
              kpt      0.00000000E+00  0.00000000E+00  0.00000000E+00
                       8.33333333E-02  0.00000000E+00  0.00000000E+00
                       1.66666667E-01  0.00000000E+00  0.00000000E+00
                       2.50000000E-01  0.00000000E+00  0.00000000E+00
                       3.33333333E-01  0.00000000E+00  0.00000000E+00
                       4.16666667E-01  0.00000000E+00  0.00000000E+00
                       5.00000000E-01  0.00000000E+00  0.00000000E+00
                       8.33333333E-02  8.33333333E-02  0.00000000E+00
                       1.66666667E-01  8.33333333E-02  0.00000000E+00
                       2.50000000E-01  8.33333333E-02  0.00000000E+00
                       3.33333333E-01  8.33333333E-02  0.00000000E+00
                       4.16666667E-01  8.33333333E-02  0.00000000E+00
                       5.00000000E-01  8.33333333E-02  0.00000000E+00
                      -4.16666667E-01  8.33333333E-02  0.00000000E+00
                      -3.33333333E-01  8.33333333E-02  0.00000000E+00
                      -2.50000000E-01  8.33333333E-02  0.00000000E+00
                      -1.66666667E-01  8.33333333E-02  0.00000000E+00
                      -8.33333333E-02  8.33333333E-02  0.00000000E+00
                       1.66666667E-01  1.66666667E-01  0.00000000E+00
                       2.50000000E-01  1.66666667E-01  0.00000000E+00
                       3.33333333E-01  1.66666667E-01  0.00000000E+00
                       4.16666667E-01  1.66666667E-01  0.00000000E+00
                       5.00000000E-01  1.66666667E-01  0.00000000E+00
                      -4.16666667E-01  1.66666667E-01  0.00000000E+00
                      -3.33333333E-01  1.66666667E-01  0.00000000E+00
                      -2.50000000E-01  1.66666667E-01  0.00000000E+00
                      -1.66666667E-01  1.66666667E-01  0.00000000E+00
                       2.50000000E-01  2.50000000E-01  0.00000000E+00
                       3.33333333E-01  2.50000000E-01  0.00000000E+00
                       4.16666667E-01  2.50000000E-01  0.00000000E+00
                       5.00000000E-01  2.50000000E-01  0.00000000E+00
                      -4.16666667E-01  2.50000000E-01  0.00000000E+00
                      -3.33333333E-01  2.50000000E-01  0.00000000E+00
                      -2.50000000E-01  2.50000000E-01  0.00000000E+00
                       3.33333333E-01  3.33333333E-01  0.00000000E+00
                       4.16666667E-01  3.33333333E-01  0.00000000E+00
                       5.00000000E-01  3.33333333E-01  0.00000000E+00
                      -4.16666667E-01  3.33333333E-01  0.00000000E+00
                      -3.33333333E-01  3.33333333E-01  0.00000000E+00
                       4.16666667E-01  4.16666667E-01  0.00000000E+00
                       5.00000000E-01  4.16666667E-01  0.00000000E+00
                      -4.16666667E-01  4.16666667E-01  0.00000000E+00
                       5.00000000E-01  5.00000000E-01  0.00000000E+00
                       8.33333333E-02  0.00000000E+00  8.33333333E-02
                       1.66666667E-01  0.00000000E+00  8.33333333E-02
                       2.50000000E-01  0.00000000E+00  8.33333333E-02
                       3.33333333E-01  0.00000000E+00  8.33333333E-02
                       4.16666667E-01  0.00000000E+00  8.33333333E-02
                       5.00000000E-01  0.00000000E+00  8.33333333E-02
                      -4.16666667E-01  0.00000000E+00  8.33333333E-02
                       outvar_i_n : Printing only first  50 k-points.
         kptrlatt       12    0    0      0   12    0      0    0   12
          kptrlen1     1.84819508E+02
          kptrlen2     1.82896626E+02
          kptrlen3     1.80962100E+02
          kptrlen4     1.79075337E+02
          kptrlen5     1.77185836E+02
          kptrlen6     1.75316152E+02
          kptrlen7     1.73460763E+02
          kptrlen8     1.71599968E+02
          kptrlen9     1.69697325E+02
          kptrlen10    1.67720461E+02
P           mkmem          47
            natom           9
            nband          42
           ndtset          10
            ngfft1         60      60      60
            ngfft2         60      60      60
            ngfft3         60      60      60
            ngfft4         60      60      60
            ngfft5         54      54      54
            ngfft6         54      54      54
            ngfft7         54      54      54
            ngfft8         54      54      54
            ngfft9         54      54      54
            ngfft10        54      54      54
          ngfftdg          90      90      90
             nkpt         280
            nstep        2500
             nsym           4
           ntypat           4
              occ      2.000000  2.000000  2.000000  2.000000  2.000000  2.000000
                       2.000000  2.000000  2.000000  2.000000  2.000000  2.000000
                       2.000000  2.000000  2.000000  2.000000  2.000000  2.000000
                       2.000000  2.000000  2.000000  2.000000  2.000000  2.000000
                       2.000000  2.000000  2.000000  2.000000  2.000000  2.000000
                       2.000000  2.000000  2.000000  2.000000  2.000000  2.000000
                       0.000000  0.000000  0.000000  0.000000  0.000000  0.000000
        pawecutdg      4.00000000E+01 Hartree
            prtwf           0
            rprim1     0.0000000000E+00  7.0671244456E-01  7.0750089802E-01
                       6.9928861641E-01  0.0000000000E+00  7.1483944418E-01
                       6.9968695414E-01  7.1444955470E-01  0.0000000000E+00
            rprim2     0.0000000000E+00  7.0610461956E-01  7.0810752449E-01
                       6.9928225905E-01  0.0000000000E+00  7.1484566319E-01
                       7.0029375715E-01  7.1385478474E-01  0.0000000000E+00
            rprim3     0.0000000000E+00  7.0579277639E-01  7.0841834872E-01
                       6.9877740204E-01  0.0000000000E+00  7.1533917997E-01
                       7.0010396188E-01  7.1404092499E-01  0.0000000000E+00
            rprim4     0.0000000000E+00  7.0573723847E-01  7.0847367646E-01
                       6.9857077606E-01  0.0000000000E+00  7.1554096377E-01
                       6.9995367324E-01  7.1418824921E-01  0.0000000000E+00
            rprim5     0.0000000000E+00  7.0574571076E-01  7.0846523679E-01
                       6.9824951277E-01  0.0000000000E+00  7.1585446699E-01
                       6.9962444642E-01  7.1451076547E-01  0.0000000000E+00
            rprim6     0.0000000000E+00  7.0598434705E-01  7.0822743643E-01
                       6.9791462682E-01  0.0000000000E+00  7.1618096433E-01
                       6.9904935425E-01  7.1507342303E-01  0.0000000000E+00
            rprim7     0.0000000000E+00  7.0640325014E-01  7.0780961295E-01
                       6.9755496759E-01  0.0000000000E+00  7.1653127440E-01
                       6.9826693890E-01  7.1583746901E-01  0.0000000000E+00
            rprim8     0.0000000000E+00  7.0681361568E-01  7.0739982520E-01
                       6.9712852967E-01  0.0000000000E+00  7.1694617170E-01
                       6.9742553987E-01  7.1665725164E-01  0.0000000000E+00
            rprim9     0.0000000000E+00  7.0733016077E-01  7.0688333101E-01
                       6.9675339155E-01  0.0000000000E+00  7.1731074951E-01
                       6.9652681577E-01  7.1753076234E-01  0.0000000000E+00
            rprim10    0.0000000000E+00  7.0788182771E-01  7.0633088421E-01
                       6.9640536514E-01  0.0000000000E+00  7.1764863785E-01
                       6.9561829502E-01  7.1841157259E-01  0.0000000000E+00
          spgroup          42
           symrel1     1  0  0   0  1  0   0  0  1       0  1 -1   0  1  0  -1  1  0
                       1  0  0   1  0 -1   1 -1  0       0  1 -1   1  0 -1   0  0 -1
           symrel2     1  0  0   0  1  0   0  0  1       0  1 -1   0  1  0  -1  1  0
                       1  0  0   1  0 -1   1 -1  0       0  1 -1   1  0 -1   0  0 -1
           symrel3     1  0  0   0  1  0   0  0  1       0  1 -1   0  1  0  -1  1  0
                       1  0  0   1  0 -1   1 -1  0       0  1 -1   1  0 -1   0  0 -1
           symrel4     1  0  0   0  1  0   0  0  1       1  0  0   1  0 -1   1 -1  0
                       0  1 -1   0  1  0  -1  1  0       0  1 -1   1  0 -1   0  0 -1
           symrel5     1  0  0   0  1  0   0  0  1       1  0  0   1  0 -1   1 -1  0
                       0  1 -1   0  1  0  -1  1  0       0  1 -1   1  0 -1   0  0 -1
           symrel6     1  0  0   0  1  0   0  0  1       1  0  0   1  0 -1   1 -1  0
                       0  1 -1   0  1  0  -1  1  0       0  1 -1   1  0 -1   0  0 -1
           symrel7     1  0  0   0  1  0   0  0  1       0  1 -1   0  1  0  -1  1  0
                       1  0  0   1  0 -1   1 -1  0       0  1 -1   1  0 -1   0  0 -1
           symrel8     1  0  0   0  1  0   0  0  1       1  0  0   1  0 -1   1 -1  0
                       0  1 -1   0  1  0  -1  1  0       0  1 -1   1  0 -1   0  0 -1
           symrel9     1  0  0   0  1  0   0  0  1       1  0  0   1  0 -1   1 -1  0
                       0  1 -1   1  0 -1   0  0 -1       0  1 -1   0  1  0  -1  1  0
           symrel10    1  0  0   0  1  0   0  0  1       1  0  0   1  0 -1   1 -1  0
                       0  1 -1   1  0 -1   0  0 -1       0  1 -1   0  1  0  -1  1  0
           toldfe      1.00000000E-08 Hartree
            typat      1  1  4  2  4  2  2  4  3
           useylm           1
              wtk        0.00058    0.00463    0.00463    0.00463    0.00463    0.00463
                         0.00231    0.00116    0.00463    0.00463    0.00463    0.00463
                         0.00463    0.00463    0.00463    0.00463    0.00463    0.00231
                         0.00116    0.00463    0.00463    0.00463    0.00463    0.00463
                         0.00463    0.00463    0.00231    0.00116    0.00463    0.00463
                         0.00463    0.00463    0.00463    0.00231    0.00116    0.00463
                         0.00463    0.00463    0.00231    0.00116    0.00463    0.00231
                         0.00058    0.00116    0.00463    0.00463    0.00463    0.00463
                         0.00463    0.00463
                       outvars : Printing only first  50 k-points.
           xangst1     2.8512905508E+00  2.9114495452E+00  2.9266511098E+00
                       8.5538716523E+00  8.7343486357E+00  8.7560465975E+00
                       5.7025811016E+00  5.8228990904E+00  2.6922231187E+00
                       5.7025811014E+00  5.8228990905E+00  8.8180606958E+00
                       8.7778172260E+00  5.8228990904E+00  5.8564995775E+00
                       5.7025811016E+00  8.7503618059E+00  5.8329150279E+00
                       5.7025811014E+00  2.8954363750E+00  5.8329150276E+00
                       2.6273449771E+00  5.8228990905E+00  5.8564995778E+00
                      -2.1740590655E-12  1.1544221781E-12  6.3353169131E-02
           xangst2     2.8240724767E+00  2.8787599909E+00  2.8975295165E+00
                       8.4722174300E+00  8.6362799728E+00  8.6713810230E+00
                       5.6481449534E+00  5.7575199818E+00  2.6926005834E+00
                       5.6481449532E+00  5.7575199819E+00  8.7145527017E+00
                       8.6705817029E+00  5.7575199818E+00  5.8008370358E+00
                       5.6481449534E+00  8.6258269030E+00  5.7742029101E+00
                       5.6481449532E+00  2.8892130606E+00  5.7742029100E+00
                       2.6257082037E+00  5.7575199819E+00  5.8008370360E+00
                      -1.6614742780E-12  3.7556603952E-13  6.4668336345E-02
           xangst3     2.7934445339E+00  2.8490536085E+00  2.8704837862E+00
                       8.3803336016E+00  8.5471608256E+00  8.5897881493E+00
                       5.5868890678E+00  5.6981072170E+00  2.6921240152E+00
                       5.5868890676E+00  5.6981072171E+00  8.6134900334E+00
                       8.5501932426E+00  5.6981072170E+00  5.7446093929E+00
                       5.5868890678E+00  8.5138370987E+00  5.7167516266E+00
                       5.5868890676E+00  2.8823773354E+00  5.7167516264E+00
                       2.6235848928E+00  5.6981072171E+00  5.7446093931E+00
                      -2.0048336388E-12  3.2677643915E-13  6.5826881636E-02
           xangst4     2.7637258707E+00  2.8199302559E+00  2.8404338521E+00
                       8.2911776120E+00  8.4597907678E+00  8.5021624584E+00
                       5.5274517413E+00  5.6398605118E+00  2.6915778968E+00
                       5.5274517414E+00  5.6398605119E+00  8.5079004937E+00
                       8.4342526609E+00  5.6398605118E+00  5.6860119314E+00
                       5.5274517413E+00  8.4054011798E+00  5.6560634814E+00
                       5.5274517414E+00  2.8743198439E+00  5.6560634813E+00
                       2.6206508218E+00  5.6398605120E+00  5.6860119316E+00
                       6.4840392146E-13  2.0495834417E-12  6.7603323803E-02
           xangst5     2.7332783866E+00  2.7914359515E+00  2.8107887065E+00
                       8.1998351599E+00  8.3743078546E+00  8.4151736917E+00
                       5.4665567733E+00  5.5828719030E+00  2.6905634323E+00
                       5.4665567733E+00  5.5828719031E+00  8.4040330117E+00
                       8.3161289020E+00  5.5828719030E+00  5.6269620937E+00
                       5.4665567733E+00  8.3003699292E+00  5.5955173793E+00
                       5.4665567733E+00  2.8653738769E+00  5.5955173792E+00
                       2.6169846445E+00  5.5828719031E+00  5.6269620938E+00
                       2.8928174136E-13  6.9280709094E-13  6.9562093383E-02
           xangst6     2.7022134907E+00  2.7641554045E+00  2.7807955095E+00
                       8.1066404721E+00  8.2924662136E+00  8.3266711489E+00
                       5.4044269814E+00  5.5283108090E+00  2.6887429659E+00
                       5.4044269813E+00  5.5283108091E+00  8.2991733750E+00
                       8.1963193757E+00  5.5283108090E+00  5.5659808504E+00
                       5.4044269814E+00  8.2012207914E+00  5.5340066086E+00
                       5.4044269813E+00  2.8554008267E+00  5.5340066085E+00
                       2.6125345871E+00  5.5283108091E+00  5.5659808505E+00
                      -5.2524089020E-13  8.4582661716E-13  7.1647197653E-02
           xangst7     2.6706232316E+00  2.7378242737E+00  2.7493261089E+00
                       8.0118696949E+00  8.2134728212E+00  8.2358760053E+00
                       5.3412464634E+00  5.4756485475E+00  2.6867615886E+00
                       5.3412464632E+00  5.4756485475E+00  8.1942148653E+00
                       8.0755201933E+00  5.4756485475E+00  5.5037500338E+00
                       5.3412464634E+00  8.1072362963E+00  5.4720368406E+00
                       5.3412464632E+00  2.8440607987E+00  5.4720368404E+00
                       2.6069727333E+00  5.4756485475E+00  5.5037500339E+00
                      -2.2018034065E-12 -2.3133287424E-13  7.4646855233E-02
           xangst8     2.6387906708E+00  2.7115560898E+00  2.7179126193E+00
                       7.9163720124E+00  8.1346682694E+00  8.1455225617E+00
                       5.2775813416E+00  5.4231121796E+00  2.6840938265E+00
                       5.2775813416E+00  5.4231121796E+00  8.0916042977E+00
                       7.9549281592E+00  5.4231121796E+00  5.4411572667E+00
                       5.2775813416E+00  8.0147897019E+00  5.4106749875E+00
                       5.2775813416E+00  2.8314346573E+00  5.4106749874E+00
                       2.6002345240E+00  5.4231121797E+00  5.4411572668E+00
                       1.2903021954E-13  1.3279238575E-12  7.8081725835E-02
           xangst9     2.6070176799E+00  2.6856329735E+00  2.6863929342E+00
                       7.8210530398E+00  8.0568989206E+00  8.0542657820E+00
                       5.2140353598E+00  5.3712659469E+00  2.6801522477E+00
                       5.2140353599E+00  5.3712659472E+00  7.9884994279E+00
                       7.8357485593E+00  5.3712659469E+00  5.3770369202E+00
                       5.2140353598E+00  7.9251488851E+00  5.3489701882E+00
                       5.2140353599E+00  2.8173830090E+00  5.3489701880E+00
                       2.5923221605E+00  5.3712659472E+00  5.3770369204E+00
                       1.2627798375E-12  3.9577976085E-12  8.1658174186E-02
           xangst10    2.5753605806E+00  2.6597472464E+00  2.6546334616E+00
                       7.7260817419E+00  7.9792417392E+00  7.9624731342E+00
                       5.1507211613E+00  5.3194944928E+00  2.6753257714E+00
                       5.1507211613E+00  5.3194944928E+00  7.8861928791E+00
                       7.7182873230E+00  5.3194944928E+00  5.3121273898E+00
                       5.1507211613E+00  7.8369332485E+00  5.2869769522E+00
                       5.1507211613E+00  2.8020557370E+00  5.2869769523E+00
                       2.5831549996E+00  5.3194944928E+00  5.3121273898E+00
                       3.3152639377E-13 -8.2698932490E-14  8.5883450785E-02
            xcart1     5.3881582662E+00  5.5018422902E+00  5.5305690840E+00
                       1.6164474799E+01  1.6505526871E+01  1.6546530076E+01
                       1.0776316533E+01  1.1003684580E+01  5.0875643829E+00
                       1.0776316532E+01  1.1003684580E+01  1.6663719738E+01
                       1.6587670602E+01  1.1003684580E+01  1.1067180299E+01
                       1.0776316533E+01  1.6535787377E+01  1.1022611959E+01
                       1.0776316532E+01  5.4715817839E+00  1.1022611959E+01
                       4.9649624633E+00  1.1003684580E+01  1.1067180299E+01
                      -4.1083762305E-12  2.1815417583E-12  1.1972013931E-01
            xcart2     5.3367235603E+00  5.4400679852E+00  5.4755372481E+00
                       1.6010170681E+01  1.6320203955E+01  1.6386535327E+01
                       1.0673447121E+01  1.0880135970E+01  5.0882776879E+00
                       1.0673447120E+01  1.0880135970E+01  1.6468117977E+01
                       1.6385024831E+01  1.0880135970E+01  1.0961993339E+01
                       1.0673447121E+01  1.6300450516E+01  1.0911662136E+01
                       1.0673447120E+01  5.4598214242E+00  1.0911662136E+01
                       4.9618694100E+00  1.0880135970E+01  1.0961993339E+01
                      -3.1397313622E-12  7.0971695951E-13  1.2220544516E-01
            xcart3     5.2788451364E+00  5.3839310580E+00  5.4244282248E+00
                       1.5836535409E+01  1.6151793174E+01  1.6232347142E+01
                       1.0557690273E+01  1.0767862116E+01  5.0873771044E+00
                       1.0557690273E+01  1.0767862116E+01  1.6277137212E+01
                       1.6157523612E+01  1.0767862116E+01  1.0855738493E+01
                       1.0557690273E+01  1.6088820457E+01  1.0803094944E+01
                       1.0557690273E+01  5.4469037755E+00  1.0803094944E+01
                       4.9578569338E+00  1.0767862116E+01  1.0855738493E+01
                      -3.7885865193E-12  6.1751797667E-13  1.2439477847E-01
            xcart4     5.2226850020E+00  5.3288958975E+00  5.3676420790E+00
                       1.5668055006E+01  1.5986687693E+01  1.6066758584E+01
                       1.0445370004E+01  1.0657791795E+01  5.0863450904E+00
                       1.0445370004E+01  1.0657791795E+01  1.6077601899E+01
                       1.5938427665E+01  1.0657791795E+01  1.0745005339E+01
                       1.0445370004E+01  1.5883906267E+01  1.0688410970E+01
                       1.0445370004E+01  5.4316773233E+00  1.0688410970E+01
                       4.9523123431E+00  1.0657791795E+01  1.0745005339E+01
                       1.2253058351E-12  3.8731513912E-12  1.2775176766E-01
            xcart5     5.1651475957E+00  5.2750494659E+00  5.3116208728E+00
                       1.5495442787E+01  1.5825148398E+01  1.5902373638E+01
                       1.0330295191E+01  1.0550098932E+01  5.0844280303E+00
                       1.0330295191E+01  1.0550098932E+01  1.5881320804E+01
                       1.5715206111E+01  1.0550098932E+01  1.0633417317E+01
                       1.0330295191E+01  1.5685425968E+01  1.0573995419E+01
                       1.0330295191E+01  5.4147718957E+00  1.0573995418E+01
                       4.9453842722E+00  1.0550098932E+01  1.0633417317E+01
                       5.4666326641E-13  1.3092156648E-12  1.3145330572E-01
            xcart6     5.1064434500E+00  5.2234967033E+00  5.2549419446E+00
                       1.5319330350E+01  1.5670490110E+01  1.5735128070E+01
                       1.0212886900E+01  1.0446993407E+01  5.0809878473E+00
                       1.0212886900E+01  1.0446993407E+01  1.5683164808E+01
                       1.5488798918E+01  1.0446993407E+01  1.0518179468E+01
                       1.0212886900E+01  1.5498061251E+01  1.0457756908E+01
                       1.0212886900E+01  5.3959255620E+00  1.0457756908E+01
                       4.9369748823E+00  1.0446993407E+01  1.0518179468E+01
                      -9.9256143627E-13  1.5983806623E-12  1.3539358175E-01
            xcart7     5.0467465119E+00  5.1737380773E+00  5.1954733958E+00
                       1.5140239536E+01  1.5521214232E+01  1.5563550115E+01
                       1.0093493024E+01  1.0347476155E+01  5.0772435868E+00
                       1.0093493024E+01  1.0347476155E+01  1.5484821969E+01
                       1.5260521546E+01  1.0347476155E+01  1.0400580268E+01
                       1.0093493024E+01  1.5320456295E+01  1.0340651018E+01
                       1.0093493024E+01  5.3744960147E+00  1.0340651017E+01
                       4.9264645018E+00  1.0347476155E+01  1.0400580268E+01
                      -4.1608054368E-12 -4.3715577785E-13  1.4106211307E-01
            xcart8     4.9865916898E+00  5.1240984037E+00  5.1361105036E+00
                       1.4959775069E+01  1.5372295211E+01  1.5392806851E+01
                       9.9731833796E+00  1.0248196807E+01  5.0722022471E+00
                       9.9731833797E+00  1.0248196807E+01  1.5290916098E+01
                       1.5032635628E+01  1.0248196807E+01  1.0282297080E+01
                       9.9731833796E+00  1.5145757549E+01  1.0224693920E+01
                       9.9731833797E+00  5.3506360655E+00  1.0224693920E+01
                       4.9137311317E+00  1.0248196807E+01  1.0282297080E+01
                       2.4383177780E-13  2.5094124160E-12  1.4755307781E-01
            xcart9     4.9265494387E+00  5.0751108134E+00  5.0765469310E+00
                       1.4779648316E+01  1.5225332440E+01  1.5220356530E+01
                       9.8530988773E+00  1.0150221627E+01  5.0647537426E+00
                       9.8530988774E+00  1.0150221627E+01  1.5096076131E+01
                       1.4807418823E+01  1.0150221627E+01  1.0161127186E+01
                       9.8530988773E+00  1.4976360955E+01  1.0108088749E+01
                       9.8530988774E+00  5.3240822985E+00  1.0108088748E+01
                       4.8987789315E+00  1.0150221627E+01  1.0161127186E+01
                       2.3863080591E-12  7.4791535695E-12  1.5431158572E-01
            xcart10    4.8667261908E+00  5.0261938784E+00  5.0165302255E+00
                       1.4600178573E+01  1.5078581635E+01  1.5046893564E+01
                       9.7334523817E+00  1.0052387757E+01  5.0556330243E+00
                       9.7334523817E+00  1.0052387757E+01  1.4902744773E+01
                       1.4585449255E+01  1.0052387757E+01  1.0038465950E+01
                       9.7334523817E+00  1.4809657561E+01  9.9909385106E+00
                       9.7334523817E+00  5.2951179521E+00  9.9909385107E+00
                       4.8814555080E+00  1.0052387757E+01  1.0038465950E+01
                       6.2649409004E-13 -1.5627833389E-13  1.6229620133E-01
             xred1     2.5102526634E-01  2.5102526634E-01  2.4897473366E-01
                       7.5102526634E-01  7.5102526634E-01  7.4897473366E-01
                       2.3091786484E-01  2.3091786484E-01  7.6908213516E-01
                       7.5634435118E-01  7.5634435118E-01  2.4365564882E-01
                       2.3268931993E-01  7.7196023422E-01  7.6731068007E-01
                       7.5167689563E-01  2.4892686167E-01  7.5107313833E-01
                       2.4892686167E-01  7.5167689563E-01  2.4832310437E-01
                       7.7196023422E-01  2.3268931993E-01  2.2803976578E-01
                       5.4339398712E-03  5.4339398712E-03 -5.4339398712E-03
             xred2     2.5091825735E-01  2.5091825735E-01  2.4908174265E-01
                       7.5091825735E-01  7.5091825735E-01  7.4908174265E-01
                       2.3317196332E-01  2.3317196332E-01  7.6682803668E-01
                       7.5465680852E-01  7.5465680852E-01  2.4534319148E-01
                       2.3477674831E-01  7.6989700010E-01  7.6522325169E-01
                       7.4912265522E-01  2.5093820597E-01  7.4906179403E-01
                       2.5093820597E-01  7.4912265522E-01  2.5087734478E-01
                       7.6989700010E-01  2.3477674831E-01  2.3010299990E-01
                       5.6001038710E-03  5.6001038710E-03 -5.6001038710E-03
             xred3     2.5094693375E-01  2.5094693375E-01  2.4905306625E-01
                       7.5094693375E-01  7.5094693375E-01  7.4905306625E-01
                       2.3535414836E-01  2.3535414836E-01  7.6464585164E-01
                       7.5301902877E-01  7.5301902877E-01  2.4698097123E-01
                       2.3701061717E-01  7.6741387719E-01  7.6298938283E-01
                       7.4685272662E-01  2.5270093649E-01  7.4729906351E-01
                       2.5270093649E-01  7.4685272662E-01  2.5314727338E-01
                       7.6741387719E-01  2.3701061717E-01  2.3258612281E-01
                       5.7547979140E-03  5.7547979140E-03 -5.7547979140E-03
             xred4     2.5084510841E-01  2.5084510841E-01  2.4915489159E-01
                       7.5084510841E-01  7.5084510841E-01  7.4915489159E-01
                       2.3769930387E-01  2.3769930387E-01  7.6230069613E-01
                       7.5135184723E-01  7.5135184723E-01  2.4864815277E-01
                       2.3920229006E-01  7.6508674018E-01  7.6079770994E-01
                       7.4467780882E-01  2.5432159130E-01  7.4567840870E-01
                       2.5432159130E-01  7.4467780882E-01  2.5532219118E-01
                       7.6508674018E-01  2.3920229006E-01  2.3491325982E-01
                       5.9702017267E-03  5.9702017267E-03 -5.9702017267E-03
             xred5     2.5076691858E-01  2.5076691858E-01  2.4923308142E-01
                       7.5076691858E-01  7.5076691858E-01  7.4923308142E-01
                       2.4004091791E-01  2.4004091791E-01  7.5995908209E-01
                       7.4977299328E-01  7.4977299328E-01  2.5022700672E-01
                       2.4137739947E-01  7.6265107263E-01  7.5862260053E-01
                       7.4258701494E-01  2.5583072296E-01  7.4416927704E-01
                       2.5583072296E-01  7.4258701494E-01  2.5741298506E-01
                       7.6265107263E-01  2.4137739947E-01  2.3734892737E-01
                       6.2060416591E-03  6.2060416591E-03 -6.2060416591E-03
             xred6     2.5070842644E-01  2.5070842644E-01  2.4929157356E-01
                       7.5070842644E-01  7.5070842644E-01  7.4929157356E-01
                       2.4240923713E-01  2.4240923713E-01  7.5759076287E-01
                       7.4822930721E-01  7.4822930721E-01  2.5177069279E-01
                       2.4351582692E-01  7.6010942767E-01  7.5648417308E-01
                       7.4067736375E-01  2.5718248173E-01  7.4281751827E-01
                       2.5718248173E-01  7.4067736375E-01  2.5932263625E-01
                       7.6010942767E-01  2.4351582692E-01  2.3989057233E-01
                       6.4595027289E-03  6.4595027289E-03 -6.4595027289E-03
             xred7     2.5055145408E-01  2.5055145408E-01  2.4944854592E-01
                       7.5055145408E-01  7.5055145408E-01  7.4944854592E-01
                       2.4484982724E-01  2.4484982724E-01  7.5515017276E-01
                       7.4675479308E-01  7.4675479308E-01  2.5324520692E-01
                       2.4560908841E-01  7.5752587577E-01  7.5439091159E-01
                       7.3897658026E-01  2.5837821351E-01  7.4162178649E-01
                       2.5837821351E-01  7.3897658026E-01  2.6102341974E-01
                       7.5752587577E-01  2.4560908841E-01  2.4247412423E-01
                       6.8027136034E-03  6.8027136034E-03 -6.8027136034E-03
             xred8     2.5037840303E-01  2.5037840303E-01  2.4962159697E-01
                       7.5037840303E-01  7.5037840303E-01  7.4962159697E-01
                       2.4726296243E-01  2.4726296243E-01  7.5273703757E-01
                       7.4541136739E-01  7.4541136739E-01  2.5458863261E-01
                       2.4759517737E-01  7.5490082446E-01  7.5240482263E-01
                       7.3738736317E-01  2.5949248723E-01  7.4050751277E-01
                       2.5949248723E-01  7.3738736317E-01  2.6261263683E-01
                       7.5490082446E-01  2.4759517737E-01  2.4509917554E-01
                       7.1930119024E-03  7.1930119024E-03 -7.1930119024E-03
             xred9     2.5022881599E-01  2.5022881599E-01  2.4977118401E-01
                       7.5022881599E-01  7.5022881599E-01  7.4977118401E-01
                       2.4964751622E-01  2.4964751622E-01  7.5035248378E-01
                       7.4410289274E-01  7.4410289274E-01  2.5589710726E-01
                       2.4944437666E-01  7.5226283078E-01  7.5055562334E-01
                       7.3597494098E-01  2.6050361575E-01  7.3949638425E-01
                       2.6050361575E-01  7.3597494098E-01  2.6402505902E-01
                       7.5226283078E-01  2.4944437666E-01  2.4773716922E-01
                       7.6061949026E-03  7.6061949026E-03 -7.6061949026E-03
             xred10    2.5006722370E-01  2.5006722370E-01  2.4993277630E-01
                       7.5006722370E-01  7.5006722370E-01  7.4993277630E-01
                       2.5201644515E-01  2.5201644515E-01  7.4798355485E-01
                       7.4288160207E-01  7.4288160207E-01  2.5711839793E-01
                       2.5116053792E-01  7.4964727042E-01  7.4883946208E-01
                       7.3465859669E-01  2.6141085498E-01  7.3858914502E-01
                       2.6141085498E-01  7.3465859669E-01  2.6534140331E-01
                       7.4964727042E-01  2.5116053792E-01  2.5035272958E-01
                       8.0902453806E-03  8.0902453806E-03 -8.0902453806E-03
            znucl       55.00000   53.00000   40.00000   35.00000

================================================================================

 chkinp: Checking input parameters for consistency, jdtset=   1.

 chkinp: Checking input parameters for consistency, jdtset=   2.

 chkinp: Checking input parameters for consistency, jdtset=   3.

 chkinp: Checking input parameters for consistency, jdtset=   4.

 chkinp: Checking input parameters for consistency, jdtset=   5.

 chkinp: Checking input parameters for consistency, jdtset=   6.

 chkinp: Checking input parameters for consistency, jdtset=   7.

 chkinp: Checking input parameters for consistency, jdtset=   8.

 chkinp: Checking input parameters for consistency, jdtset=   9.

 chkinp: Checking input parameters for consistency, jdtset=  10.

================================================================================
== DATASET  1 ==================================================================
-   mpi_nproc: 6, omp_nthreads: -1 (-1 if OMP is not activated)


--- !DatasetInfo
iteration_state: {dtset: 1, }
dimensions: {natom: 9, nkpt: 280, mband: 42, nsppol: 1, nspinor: 1, nspden: 1, mpw: 8015, }
cutoff_energies: {ecut:  16.0, pawecutdg:  40.0, }
electrons: {nelect:   7.20000000E+01, charge:   0.00000000E+00, occopt:   1.00000000E+00, tsmear:   1.00000000E-02, }
meta: {optdriver: 0, ionmov: 0, optcell: 0, iscf: 17, paral_kgb: 0, }
...

 Real(R)+Recip(G) space primitive vectors, cartesian coordinates (Bohr,Bohr^-1):
 R(1)=  0.0000000 11.0036846 11.0159610  G(1)= -0.0463980  0.0454393  0.0453887
 R(2)= 10.7763165  0.0000000 11.0159610  G(2)=  0.0463980 -0.0454393  0.0453887
 R(3)= 10.7763165 11.0036846  0.0000000  G(3)=  0.0463980  0.0454393 -0.0453887
 Unit cell volume ucvol=  2.6125274E+03 bohr^3
 Angles (23,13,12)=  6.07065258E+01  5.96745959E+01  5.96188783E+01 degrees

 Coarse grid specifications (used for wave-functions):

 getcut: wavevector=  0.0000  0.0000  0.0000  ngfft=  60  60  60
         ecut(hartree)=     16.000   => boxcut(ratio)=   2.14008

 Fine grid specifications (used for densities):

 getcut: wavevector=  0.0000  0.0000  0.0000  ngfft=  90  90  90
         ecut(hartree)=     40.000   => boxcut(ratio)=   2.03052

--- Pseudopotential description ------------------------------------------------
- pspini: atom type   1  psp file is ../../../Psps_for_tests/ATOMICDATA/Cs.GGA_PBE-JTH.xml
- pspatm: opening atomic psp file    ../../../Psps_for_tests/ATOMICDATA/Cs.GGA_PBE-JTH.xml
- pspatm : Reading pseudopotential header in XML form from ../../../Psps_for_tests/ATOMICDATA/Cs.GGA_PBE-JTH.xml
 Pseudopotential format is: paw10
 basis_size (lnmax)=  6 (lmn_size= 18), orbitals=   0   0   1   1   2   2
 Spheres core radius: rc_sph= 2.20660278
 1 radial meshes are used:
  - mesh 1: r(i)=AA*[exp(BB*(i-1))-1], size=1500 , AA= 0.15922E-03 BB= 0.87573E-02
 Shapefunction is SIN type: shapef(r)=[sin(pi*r/rshp)/(pi*r/rshp)]**2
 Radius for shape functions =  2.00394208
 mmax= 1500
 Radial grid used for partial waves is grid 1
 Radial grid used for projectors is grid 1
 Radial grid used for (t)core density is grid 1
 Radial grid used for Vloc is grid 1
 Radial grid used for pseudo valence density is grid 1
 Mesh size for Vloc has been set to 1341 to avoid numerical noise.
 Compensation charge density is not taken into account in XC energy/potential
 pspatm: atomic psp has been read  and splines computed

- pspini: atom type   2  psp file is ../../../Psps_for_tests/ATOMICDATA/I.GGA_PBE-JTH.xml
- pspatm: opening atomic psp file    ../../../Psps_for_tests/ATOMICDATA/I.GGA_PBE-JTH.xml
- pspatm : Reading pseudopotential header in XML form from ../../../Psps_for_tests/ATOMICDATA/I.GGA_PBE-JTH.xml
 Pseudopotential format is: paw10
 basis_size (lnmax)=  4 (lmn_size=  8), orbitals=   0   0   1   1
 Spheres core radius: rc_sph= 2.30022271
 1 radial meshes are used:
  - mesh 1: r(i)=AA*[exp(BB*(i-1))-1], size=2000 , AA= 0.12610E-03 BB= 0.66836E-02
 Shapefunction is SIN type: shapef(r)=[sin(pi*r/rshp)/(pi*r/rshp)]**2
 Radius for shape functions =  2.10879093
 mmax= 2000
 Radial grid used for partial waves is grid 1
 Radial grid used for projectors is grid 1
 Radial grid used for (t)core density is grid 1
 Radial grid used for Vloc is grid 1
 Radial grid used for pseudo valence density is grid 1
 Mesh size for Vloc has been set to 1792 to avoid numerical noise.
 Compensation charge density is not taken into account in XC energy/potential
 pspatm: atomic psp has been read  and splines computed

- pspini: atom type   3  psp file is ../../../Psps_for_tests/ATOMICDATA/Zr.GGA_PBE-JTH.xml
- pspatm: opening atomic psp file    ../../../Psps_for_tests/ATOMICDATA/Zr.GGA_PBE-JTH.xml
- pspatm : Reading pseudopotential header in XML form from ../../../Psps_for_tests/ATOMICDATA/Zr.GGA_PBE-JTH.xml
 Pseudopotential format is: paw10
 basis_size (lnmax)=  6 (lmn_size= 18), orbitals=   0   0   1   1   2   2
 Spheres core radius: rc_sph= 2.21000000
 1 radial meshes are used:
  - mesh 1: r(i)=AA*[exp(BB*(i-1))-1], size= 941 , AA= 0.35256E-03 BB= 0.14102E-01
 Shapefunction is BESSEL type: shapef(r,l)=aa(1,l)*jl(q(1,l)*r)+aa(2,l)*jl(q(2,l)*r)
 Radius for shape functions =  2.21000000
 mmax=  941
 Radial grid used for partial waves is grid 1
 Radial grid used for projectors is grid 1
 Radial grid used for (t)core density is grid 1
 Radial grid used for Vloc is grid 1
 Radial grid used for pseudo valence density is grid 1
 Mesh size for Vloc has been set to  777 to avoid numerical noise.
 Compensation charge density is not taken into account in XC energy/potential
 pspatm: atomic psp has been read  and splines computed

- pspini: atom type   4  psp file is ../../../Psps_for_tests/ATOMICDATA/Br.GGA_PBE-JTH.xml
- pspatm: opening atomic psp file    ../../../Psps_for_tests/ATOMICDATA/Br.GGA_PBE-JTH.xml
- pspatm : Reading pseudopotential header in XML form from ../../../Psps_for_tests/ATOMICDATA/Br.GGA_PBE-JTH.xml
 Pseudopotential format is: paw10
 basis_size (lnmax)=  4 (lmn_size=  8), orbitals=   0   0   1   1
 Spheres core radius: rc_sph= 2.20000000
 1 radial meshes are used:
  - mesh 1: r(i)=AA*[exp(BB*(i-1))-1], size= 927 , AA= 0.40483E-03 BB= 0.14169E-01
 Shapefunction is BESSEL type: shapef(r,l)=aa(1,l)*jl(q(1,l)*r)+aa(2,l)*jl(q(2,l)*r)
 Radius for shape functions =  2.02066386
 mmax=  927
 Radial grid used for partial waves is grid 1
 Radial grid used for projectors is grid 1
 Radial grid used for (t)core density is grid 1
 Radial grid used for Vloc is grid 1
 Radial grid used for pseudo valence density is grid 1
 Mesh size for Vloc has been set to  763 to avoid numerical noise.
 Compensation charge density is not taken into account in XC energy/potential
 pspatm: atomic psp has been read  and splines computed

   3.31466423E+04                                ecore*ucvol(ha*bohr**3)
--------------------------------------------------------------------------------

_setup2: Arith. and geom. avg. npw (full set) are    7986.182    7986.174

================================================================================

--- !BeginCycle
iteration_state: {dtset: 1, }
solver: {iscf: 17, nstep: 2500, nline: 4, wfoptalg: 10, }
tolerances: {toldfe: 1.00E-08, }
...

     iter   Etot(hartree)      deltaE(h)  residm     nres2
 ETOT  1  -164.52882721699    -1.645E+02 2.135E-01 1.614E+01
 ETOT  2  -164.70525846544    -1.764E-01 2.038E-02 4.179E+00
 ETOT  3  -164.70159521181     3.663E-03 6.104E-03 9.167E-01
 ETOT  4  -164.70225277294    -6.576E-04 2.772E-03 6.958E-02
 ETOT  5  -164.70186795528     3.848E-04 1.357E-03 7.495E-03
 ETOT  6  -164.70192932542    -6.137E-05 7.670E-04 9.092E-04
 ETOT  7  -164.70192894068     3.847E-07 4.832E-04 2.594E-04
 ETOT  8  -164.70193119714    -2.256E-06 6.420E-04 4.564E-05
 ETOT  9  -164.70193114960     4.754E-08 3.135E-04 1.567E-05
 ETOT 10  -164.70193119923    -4.963E-08 2.814E-04 1.087E-06
 ETOT 11  -164.70193121156    -1.234E-08 1.583E-04 7.538E-07
 ETOT 12  -164.70193121003     1.536E-09 1.998E-04 8.732E-08
 ETOT 13  -164.70193121082    -7.900E-10 9.138E-05 3.602E-08

 At SCF step   13, etot is converged : 
  for the second time, diff in etot=  7.900E-10 < toldfe=  1.000E-08

 Cartesian components of stress tensor (hartree/bohr^3)
  sigma(1 1)= -4.97163670E-06  sigma(3 2)= -3.53661270E-13
  sigma(2 2)= -4.89957195E-06  sigma(3 1)=  4.37337633E-13
  sigma(3 3)= -4.93358496E-06  sigma(2 1)= -7.63005449E-14


--- !ResultsGS
iteration_state: {dtset: 1, }
comment   : Summary of ground state results
lattice_vectors:
- [  0.0000000,  11.0036846,  11.0159610, ]
- [ 10.7763165,   0.0000000,  11.0159610, ]
- [ 10.7763165,  11.0036846,   0.0000000, ]
lattice_lengths: [  15.57024,   15.41040,   15.40163, ]
lattice_angles: [ 60.707,  59.675,  59.619, ] # degrees, (23, 13, 12)
lattice_volume:   2.6125274E+03
convergence: {deltae: -7.900E-10, res2:  3.602E-08, residm:  9.138E-05, diffor: null, }
etotal    :  -1.64701931E+02
entropy   :   0.00000000E+00
fermie    :  -7.30701671E-02
cartesian_stress_tensor: # hartree/bohr^3
- [ -4.97163670E-06,  -7.63005449E-14,   4.37337633E-13, ]
- [ -7.63005449E-14,  -4.89957195E-06,  -3.53661270E-13, ]
- [  4.37337633E-13,  -3.53661270E-13,  -4.93358496E-06, ]
pressure_GPa:   1.4519E-01
xred      :
- [  2.5103E-01,   2.5103E-01,   2.4897E-01, Cs]
- [  7.5103E-01,   7.5103E-01,   7.4897E-01, Cs]
- [  2.3092E-01,   2.3092E-01,   7.6908E-01, Br]
- [  7.5634E-01,   7.5634E-01,   2.4366E-01,  I]
- [  2.3269E-01,   7.7196E-01,   7.6731E-01, Br]
- [  7.5168E-01,   2.4893E-01,   7.5107E-01,  I]
- [  2.4893E-01,   7.5168E-01,   2.4832E-01,  I]
- [  7.7196E-01,   2.3269E-01,   2.2804E-01, Br]
- [  5.4339E-03,   5.4339E-03,  -5.4339E-03, Zr]
cartesian_forces: # hartree/bohr
- [ -6.65358122E-16,   6.51610260E-16,  -1.19178871E-05, ]
- [ -6.65358193E-16,   6.51610191E-16,  -1.19178871E-05, ]
- [ -4.74124857E-16,   4.64328383E-16,  -8.49252072E-06, ]
- [  1.32960670E-15,  -1.30213439E-15,   2.38158972E-05, ]
- [  1.26811637E-05,  -5.82868477E-17,  -6.90209575E-06, ]
- [  1.67558418E-16,  -1.64604009E-05,   8.49335029E-06, ]
- [  7.80783772E-16,   1.64604009E-05,   8.49335029E-06, ]
- [ -1.26811637E-05,   8.13031126E-16,  -6.90209575E-06, ]
- [  2.97559818E-16,  -2.91411889E-16,   5.32988870E-06, ]
force_length_stats: {min:   5.32988870E-06, max:   2.38158972E-05, mean:   1.41549632E-05, }
...

 Integrated electronic density in atomic spheres:
 ------------------------------------------------
 Atom  Sphere_radius  Integrated_density
    1        2.20660          5.36205574
    2        2.20660          5.36205574
    3        2.20000          4.92507507
    4        2.30022          4.01715595
    5        2.20000          4.92118951
    6        2.30022          4.00647633
    7        2.30022          4.00647633
    8        2.20000          4.92118951
    9        2.21000          8.81156210

 PAW TEST:
 ==== Compensation charge inside spheres ============
 The following values must be close to each other ...
 Compensation charge over spherical meshes =     -5.038179441537493
 Compensation charge over fine fft grid    =     -5.038176377933809

 ==== Results concerning PAW augmentation regions ====

 Total pseudopotential strength Dij (hartree):
 Atom #  1
   0.43688  -0.14469   0.00000   0.00000   0.00000   0.00000  -0.00000   0.00000   0.00000   0.00000  -0.00000   0.00000 ...
  -0.14469   0.04358   0.00000  -0.00000   0.00000   0.00000   0.00000   0.00000  -0.00000   0.00000   0.00000   0.00000 ...
   0.00000   0.00000  -0.09318   0.00000   0.00000  -0.16679   0.00000  -0.00000   0.00000   0.00000   0.00000  -0.00000 ...
   0.00000  -0.00000   0.00000  -0.09318   0.00000   0.00000  -0.16679   0.00000  -0.00000   0.00000   0.00000   0.00000 ...
   0.00000   0.00000   0.00000   0.00000  -0.09318  -0.00000   0.00000  -0.16678   0.00000  -0.00000   0.00000   0.00000 ...
   0.00000   0.00000  -0.16679   0.00000  -0.00000   0.40296   0.00000   0.00001   0.00000  -0.00000   0.00000   0.00000 ...
  -0.00000   0.00000   0.00000  -0.16679   0.00000   0.00000   0.40296   0.00000   0.00000   0.00000  -0.00000   0.00000 ...
   0.00000   0.00000  -0.00000   0.00000  -0.16678   0.00001   0.00000   0.40295   0.00000   0.00000   0.00000  -0.00000 ...
   0.00000  -0.00000   0.00000  -0.00000   0.00000   0.00000   0.00000   0.00000   0.00528   0.00000  -0.00000   0.00000 ...
   0.00000   0.00000   0.00000   0.00000  -0.00000  -0.00000   0.00000   0.00000   0.00000   0.00528   0.00000   0.00000 ...
  -0.00000   0.00000   0.00000   0.00000   0.00000   0.00000  -0.00000   0.00000  -0.00000   0.00000   0.00528   0.00000 ...
   0.00000   0.00000  -0.00000   0.00000   0.00000   0.00000   0.00000  -0.00000   0.00000   0.00000   0.00000   0.00528 ...
   ...  only 12  components have been written...
 Atom #  9
   3.08014  -0.89713   0.00000  -0.00000   0.00000   0.00000  -0.00000   0.00000   0.00000   0.00000  -0.00001   0.00000 ...
  -0.89713   0.26810   0.00000   0.00001   0.00000   0.00000  -0.00000   0.00000   0.00000   0.00000   0.00000   0.00000 ...
   0.00000   0.00000   0.26789   0.00000   0.00000  -0.05444   0.00000   0.00000   0.00000   0.00006   0.00000   0.00000 ...
  -0.00000   0.00001   0.00000   0.26794   0.00000   0.00000  -0.05444   0.00000   0.00000   0.00000   0.00007   0.00000 ...
   0.00000   0.00000   0.00000   0.00000   0.26800   0.00000   0.00000  -0.05446   0.00000   0.00000   0.00000   0.00006 ...
   0.00000   0.00000  -0.05444   0.00000   0.00000   0.01494   0.00000   0.00000   0.00000  -0.00001   0.00000   0.00000 ...
  -0.00000  -0.00000   0.00000  -0.05444   0.00000   0.00000   0.01494   0.00000   0.00000   0.00000  -0.00001   0.00000 ...
   0.00000   0.00000   0.00000   0.00000  -0.05446   0.00000   0.00000   0.01494   0.00000   0.00000   0.00000  -0.00001 ...
   0.00000   0.00000   0.00000   0.00000   0.00000   0.00000   0.00000   0.00000  -0.01545   0.00000   0.00000   0.00000 ...
   0.00000   0.00000   0.00006   0.00000   0.00000  -0.00001   0.00000   0.00000   0.00000  -0.01549   0.00000   0.00000 ...
  -0.00001   0.00000   0.00000   0.00007   0.00000   0.00000  -0.00001   0.00000   0.00000   0.00000  -0.01537   0.00000 ...
   0.00000   0.00000   0.00000   0.00000   0.00006   0.00000   0.00000  -0.00001   0.00000   0.00000   0.00000  -0.01542 ...
   ...  only 12  components have been written...


 Augmentation waves occupancies Rhoij:
 Atom #  1
   1.99706  -0.01626   0.00000  -0.00000   0.00000   0.00000   0.00001   0.00000   0.00232   0.00000  -0.00020   0.00000 ...
  -0.01626   0.12718   0.00000   0.00092   0.00000   0.00000  -0.00002   0.00000  -0.01330   0.00000   0.00018   0.00000 ...
   0.00000   0.00000   2.00747   0.00000  -0.00148  -0.00479   0.00000   0.00023   0.00000   0.00133   0.00000   0.00013 ...
  -0.00000   0.00092   0.00000   2.00880   0.00000   0.00000  -0.00500   0.00000   0.00019   0.00000   0.00002   0.00000 ...
   0.00000   0.00000  -0.00148   0.00000   2.00946   0.00023   0.00000  -0.00513   0.00000   0.00033   0.00000   0.00030 ...
   0.00000   0.00000  -0.00479   0.00000   0.00023   0.00008   0.00000  -0.00001   0.00000  -0.00005   0.00000  -0.00001 ...
   0.00001  -0.00002   0.00000  -0.00500   0.00000   0.00000   0.00009   0.00000  -0.00002   0.00000   0.00001   0.00000 ...
   0.00000   0.00000   0.00023   0.00000  -0.00513  -0.00001   0.00000   0.00010   0.00000  -0.00002   0.00000   0.00000 ...
   0.00232  -0.01330   0.00000   0.00019   0.00000   0.00000  -0.00002   0.00000   0.03968   0.00000   0.00889   0.00000 ...
   0.00000   0.00000   0.00133   0.00000   0.00033  -0.00005   0.00000  -0.00002   0.00000   0.02409   0.00000  -0.00014 ...
  -0.00020   0.00018   0.00000   0.00002   0.00000   0.00000   0.00001   0.00000   0.00889   0.00000   0.02588   0.00000 ...
   0.00000   0.00000   0.00013   0.00000   0.00030  -0.00001   0.00000   0.00000   0.00000  -0.00014   0.00000   0.05189 ...
   ...  only 12  components have been written...
 Atom #  9
   1.99259  -0.06636   0.00000  -0.00015   0.00000   0.00000  -0.00067   0.00000   0.00000   0.00000  -0.00013   0.00000 ...
  -0.06636   1.04861   0.00000  -0.00239   0.00000   0.00000   0.03485   0.00000   0.00000   0.00000  -0.00407   0.00000 ...
   0.00000   0.00000   1.96753   0.00000   0.00000  -0.19611   0.00000   0.00000   0.00000   0.00149   0.00000   0.00000 ...
  -0.00015  -0.00239   0.00000   1.96666   0.00000   0.00000  -0.20115   0.00000   0.00000   0.00000  -0.00020   0.00000 ...
   0.00000   0.00000   0.00000   0.00000   1.96548   0.00000   0.00000  -0.20716   0.00000   0.00000   0.00000   0.00139 ...
   0.00000   0.00000  -0.19611   0.00000   0.00000   1.42440   0.00000   0.00000   0.00000  -0.02813   0.00000   0.00000 ...
  -0.00067   0.03485   0.00000  -0.20115   0.00000   0.00000   1.54428   0.00000   0.00000   0.00000   0.10282   0.00000 ...
   0.00000   0.00000   0.00000   0.00000  -0.20716   0.00000   0.00000   1.69525   0.00000   0.00000   0.00000  -0.02116 ...
   0.00000   0.00000   0.00000   0.00000   0.00000   0.00000   0.00000   0.00000   0.45595   0.00000   0.00000   0.00000 ...
   0.00000   0.00000   0.00149   0.00000   0.00000  -0.02813   0.00000   0.00000   0.00000   0.43437   0.00000   0.00000 ...
  -0.00013  -0.00407   0.00000  -0.00020   0.00000   0.00000   0.10282   0.00000   0.00000   0.00000   1.34146   0.00000 ...
   0.00000   0.00000   0.00000   0.00000   0.00139   0.00000   0.00000  -0.02116   0.00000   0.00000   0.00000   0.47218 ...
   ...  only 12  components have been written...


================================================================================

 ----iterations are completed or convergence reached----

 Mean square residual over all n,k,spin=   91.766E-09; max=  91.378E-06
 reduced coordinates (array xred) for    9 atoms
       0.251025266340      0.251025266340      0.248974733660
       0.751025266340      0.751025266340      0.748974733660
       0.230917864840      0.230917864840      0.769082135160
       0.756344351180      0.756344351180      0.243655648820
       0.232689319930      0.771960234220      0.767310680070
       0.751676895630      0.248926861670      0.751073138330
       0.248926861670      0.751676895630      0.248323104370
       0.771960234220      0.232689319930      0.228039765780
       0.005433939871      0.005433939871     -0.005433939871
 rms dE/dt=  1.3599E-04; max dE/dt=  1.9733E-04; dE/dt below (all hartree)
    1       0.000115931838      0.000115931838     -0.000000000000
    2       0.000115931838      0.000115931838      0.000000000000
    3       0.000078198136      0.000078198136      0.000000000000
    4      -0.000277710135     -0.000277710135      0.000000000000
    5       0.000060678076     -0.000075978158     -0.000136656234
    6       0.000072207503     -0.000108917557      0.000181125059
    7      -0.000290042616     -0.000108917557     -0.000181125059
    8       0.000060678076      0.000197334310      0.000136656234
    9      -0.000074068987     -0.000074068987      0.000000000000

 cartesian coordinates (angstrom) at end:
    1      2.85129055076910     2.91144954521872     2.92665110979839
    2      8.55387165230813     8.73434863565572     8.75604659749086
    3      5.70258110164669     5.82289909037983     2.69222311865175
    4      5.70258110143647     5.82289909049146     8.81806069582076
    5      8.77781722597793     5.82289909038021     5.85649957750257
    6      5.70258110163948     8.75036180589992     5.83291502793281
    7      5.70258110143834     2.89543637497421     5.83291502761269
    8      2.62734497709827     5.82289909049477     5.85649957784595
    9     -0.00000000000217     0.00000000000115     0.06335316913113

 cartesian forces (hartree/bohr) at end:
    1     -0.00000000000000     0.00000000000000    -0.00001191788711
    2     -0.00000000000000     0.00000000000000    -0.00001191788711
    3     -0.00000000000000     0.00000000000000    -0.00000849252072
    4      0.00000000000000    -0.00000000000000     0.00002381589716
    5      0.00001268116372    -0.00000000000000    -0.00000690209575
    6      0.00000000000000    -0.00001646040089     0.00000849335029
    7      0.00000000000000     0.00001646040089     0.00000849335029
    8     -0.00001268116372     0.00000000000000    -0.00000690209575
    9      0.00000000000000    -0.00000000000000     0.00000532988870
 frms,max,avg= 8.7238815E-06 2.3815897E-05   0.000E+00  0.000E+00  1.394E-06 h/b

 cartesian forces (eV/Angstrom) at end:
    1     -0.00000000000003     0.00000000000003    -0.00061284234412
    2     -0.00000000000003     0.00000000000003    -0.00061284234412
    3     -0.00000000000002     0.00000000000002    -0.00043670293713
    4      0.00000000000007    -0.00000000000007     0.00122466256868
    5      0.00065209160235    -0.00000000000000    -0.00035492000368
    6      0.00000000000001    -0.00084642777463     0.00043674559520
    7      0.00000000000004     0.00084642777459     0.00043674559517
    8     -0.00065209160239     0.00000000000004    -0.00035492000372
    9      0.00000000000002    -0.00000000000001     0.00027407387372
 frms,max,avg= 4.4859998E-04 1.2246626E-03   0.000E+00  0.000E+00  7.168E-05 e/A
 length scales= 15.570243124000 15.410398910000 15.401625640000 bohr
              =  8.239417793426  8.154831878452  8.150189263923 angstroms
 prteigrs : about to open file Cs2TiI6o_DS1_EIG
 Fermi (or HOMO) energy (hartree) =  -0.07307   Average Vxc (hartree)=  -0.28505
 Eigenvalues (hartree) for nkpt= 280  k points:
 kpt#   1, nband= 42, wtk=  0.00058, kpt=  0.0000  0.0000  0.0000 (reduced coord)
  -1.89116   -1.08192   -1.08154   -1.08099   -0.82603   -0.82589   -0.58315   -0.57610
  -0.57318   -0.48985   -0.48250   -0.47854   -0.34396   -0.34324   -0.34303   -0.34148
  -0.34147   -0.34138   -0.20686   -0.17231   -0.17011   -0.16484   -0.16303   -0.16091
  -0.15950   -0.15703   -0.14621   -0.12027   -0.11548   -0.11461   -0.09614   -0.09226
  -0.08807   -0.08713   -0.08487   -0.07307   -0.00321    0.00065    0.00399    0.07559
   0.08493    0.09514
 prteigrs : prtvol=0 or 1, do not print more k-points.


--- !EnergyTerms
iteration_state     : {dtset: 1, }
comment             : Components of total free energy in Hartree
kinetic             :  4.73438626196333E+01
hartree             :  3.92099033861272E+01
xc                  : -6.22612070219468E+01
Ewald energy        : -1.16258871849441E+02
psp_core            :  1.26875768035266E+01
local_psp           : -1.15891377965115E+02
spherical_terms     :  3.04681396769307E+01
total_energy        : -1.64701974350285E+02
total_energy_eV     : -4.48176864654548E+03
...


--- !EnergyTermsDC
iteration_state     : {dtset: 1, }
comment             : '"Double-counting" decomposition of free energy'
band_energy         : -2.89203333770148E+01
Ewald energy        : -1.16258871849441E+02
psp_core            :  1.26875768035266E+01
xc_dc               : -5.89193129618758E+01
spherical_terms     :  2.67090101739871E+01
total_energy_dc     : -1.64701931210818E+02
total_energy_dc_eV  : -4.48176747266088E+03
...


 Cartesian components of stress tensor (hartree/bohr^3)
  sigma(1 1)= -4.97163670E-06  sigma(3 2)= -3.53661270E-13
  sigma(2 2)= -4.89957195E-06  sigma(3 1)=  4.37337633E-13
  sigma(3 3)= -4.93358496E-06  sigma(2 1)= -7.63005449E-14

-Cartesian components of stress tensor (GPa)         [Pressure=  1.4519E-01 GPa]
- sigma(1 1)= -1.46270577E-01  sigma(3 2)= -1.04050720E-08
- sigma(2 2)= -1.44150359E-01  sigma(3 1)=  1.28669152E-08
- sigma(3 3)= -1.45151056E-01  sigma(2 1)= -2.24483916E-09

================================================================================
== DATASET  2 ==================================================================
-   mpi_nproc: 6, omp_nthreads: -1 (-1 if OMP is not activated)


--- !DatasetInfo
iteration_state: {dtset: 2, }
dimensions: {natom: 9, nkpt: 280, mband: 42, nsppol: 1, nspinor: 1, nspden: 1, mpw: 7788, }
cutoff_energies: {ecut:  16.0, pawecutdg:  40.0, }
electrons: {nelect:   7.20000000E+01, charge:   0.00000000E+00, occopt:   1.00000000E+00, tsmear:   1.00000000E-02, }
meta: {optdriver: 0, ionmov: 0, optcell: 0, iscf: 17, paral_kgb: 0, }
...

 Real(R)+Recip(G) space primitive vectors, cartesian coordinates (Bohr,Bohr^-1):
 R(1)=  0.0000000 10.8801360 10.9109981  G(1)= -0.0468452  0.0459553  0.0458253
 R(2)= 10.6734471  0.0000000 10.9109981  G(2)=  0.0468452 -0.0459553  0.0458253
 R(3)= 10.6734471 10.8801360  0.0000000  G(3)=  0.0468452  0.0459553 -0.0458253
 Unit cell volume ucvol=  2.5341569E+03 bohr^3
 Angles (23,13,12)=  6.06789375E+01  5.97312817E+01  5.95897808E+01 degrees

 Coarse grid specifications (used for wave-functions):

 getcut: wavevector=  0.0000  0.0000  0.0000  ngfft=  60  60  60
         ecut(hartree)=     16.000   => boxcut(ratio)=   2.16253

 Fine grid specifications (used for densities):

 getcut: wavevector=  0.0000  0.0000  0.0000  ngfft=  90  90  90
         ecut(hartree)=     40.000   => boxcut(ratio)=   2.05182

--- Pseudopotential description ------------------------------------------------
- pspini: atom type   1  psp file is ../../../Psps_for_tests/ATOMICDATA/Cs.GGA_PBE-JTH.xml
- pspatm: opening atomic psp file    ../../../Psps_for_tests/ATOMICDATA/Cs.GGA_PBE-JTH.xml
- pspatm : Reading pseudopotential header in XML form from ../../../Psps_for_tests/ATOMICDATA/Cs.GGA_PBE-JTH.xml
 Pseudopotential format is: paw10
 basis_size (lnmax)=  6 (lmn_size= 18), orbitals=   0   0   1   1   2   2
 Spheres core radius: rc_sph= 2.20660278
 1 radial meshes are used:
  - mesh 1: r(i)=AA*[exp(BB*(i-1))-1], size=1500 , AA= 0.15922E-03 BB= 0.87573E-02
 Shapefunction is SIN type: shapef(r)=[sin(pi*r/rshp)/(pi*r/rshp)]**2
 Radius for shape functions =  2.00394208
 mmax= 1500
 Radial grid used for partial waves is grid 1
 Radial grid used for projectors is grid 1
 Radial grid used for (t)core density is grid 1
 Radial grid used for Vloc is grid 1
 Radial grid used for pseudo valence density is grid 1
 Mesh size for Vloc has been set to 1341 to avoid numerical noise.
 Compensation charge density is not taken into account in XC energy/potential
 pspatm: atomic psp has been read  and splines computed

- pspini: atom type   2  psp file is ../../../Psps_for_tests/ATOMICDATA/I.GGA_PBE-JTH.xml
- pspatm: opening atomic psp file    ../../../Psps_for_tests/ATOMICDATA/I.GGA_PBE-JTH.xml
- pspatm : Reading pseudopotential header in XML form from ../../../Psps_for_tests/ATOMICDATA/I.GGA_PBE-JTH.xml
 Pseudopotential format is: paw10
 basis_size (lnmax)=  4 (lmn_size=  8), orbitals=   0   0   1   1
 Spheres core radius: rc_sph= 2.30022271
 1 radial meshes are used:
  - mesh 1: r(i)=AA*[exp(BB*(i-1))-1], size=2000 , AA= 0.12610E-03 BB= 0.66836E-02
 Shapefunction is SIN type: shapef(r)=[sin(pi*r/rshp)/(pi*r/rshp)]**2
 Radius for shape functions =  2.10879093
 mmax= 2000
 Radial grid used for partial waves is grid 1
 Radial grid used for projectors is grid 1
 Radial grid used for (t)core density is grid 1
 Radial grid used for Vloc is grid 1
 Radial grid used for pseudo valence density is grid 1
 Mesh size for Vloc has been set to 1792 to avoid numerical noise.
 Compensation charge density is not taken into account in XC energy/potential
 pspatm: atomic psp has been read  and splines computed

- pspini: atom type   3  psp file is ../../../Psps_for_tests/ATOMICDATA/Zr.GGA_PBE-JTH.xml
- pspatm: opening atomic psp file    ../../../Psps_for_tests/ATOMICDATA/Zr.GGA_PBE-JTH.xml
- pspatm : Reading pseudopotential header in XML form from ../../../Psps_for_tests/ATOMICDATA/Zr.GGA_PBE-JTH.xml
 Pseudopotential format is: paw10
 basis_size (lnmax)=  6 (lmn_size= 18), orbitals=   0   0   1   1   2   2
 Spheres core radius: rc_sph= 2.21000000
 1 radial meshes are used:
  - mesh 1: r(i)=AA*[exp(BB*(i-1))-1], size= 941 , AA= 0.35256E-03 BB= 0.14102E-01
 Shapefunction is BESSEL type: shapef(r,l)=aa(1,l)*jl(q(1,l)*r)+aa(2,l)*jl(q(2,l)*r)
 Radius for shape functions =  2.21000000
 mmax=  941
 Radial grid used for partial waves is grid 1
 Radial grid used for projectors is grid 1
 Radial grid used for (t)core density is grid 1
 Radial grid used for Vloc is grid 1
 Radial grid used for pseudo valence density is grid 1
 Mesh size for Vloc has been set to  777 to avoid numerical noise.
 Compensation charge density is not taken into account in XC energy/potential
 pspatm: atomic psp has been read  and splines computed

- pspini: atom type   4  psp file is ../../../Psps_for_tests/ATOMICDATA/Br.GGA_PBE-JTH.xml
- pspatm: opening atomic psp file    ../../../Psps_for_tests/ATOMICDATA/Br.GGA_PBE-JTH.xml
- pspatm : Reading pseudopotential header in XML form from ../../../Psps_for_tests/ATOMICDATA/Br.GGA_PBE-JTH.xml
 Pseudopotential format is: paw10
 basis_size (lnmax)=  4 (lmn_size=  8), orbitals=   0   0   1   1
 Spheres core radius: rc_sph= 2.20000000
 1 radial meshes are used:
  - mesh 1: r(i)=AA*[exp(BB*(i-1))-1], size= 927 , AA= 0.40483E-03 BB= 0.14169E-01
 Shapefunction is BESSEL type: shapef(r,l)=aa(1,l)*jl(q(1,l)*r)+aa(2,l)*jl(q(2,l)*r)
 Radius for shape functions =  2.02066386
 mmax=  927
 Radial grid used for partial waves is grid 1
 Radial grid used for projectors is grid 1
 Radial grid used for (t)core density is grid 1
 Radial grid used for Vloc is grid 1
 Radial grid used for pseudo valence density is grid 1
 Mesh size for Vloc has been set to  763 to avoid numerical noise.
 Compensation charge density is not taken into account in XC energy/potential
 pspatm: atomic psp has been read  and splines computed

--------------------------------------------------------------------------------

_setup2: Arith. and geom. avg. npw (full set) are    7746.729    7746.723

================================================================================

--- !BeginCycle
iteration_state: {dtset: 2, }
solver: {iscf: 17, nstep: 2500, nline: 4, wfoptalg: 10, }
tolerances: {toldfe: 1.00E-08, }
...

     iter   Etot(hartree)      deltaE(h)  residm     nres2
 ETOT  1  -164.53083653742    -1.645E+02 2.181E-01 1.629E+01
 ETOT  2  -164.70409970163    -1.733E-01 2.150E-02 4.120E+00
 ETOT  3  -164.70050837920     3.591E-03 3.565E-03 8.840E-01
 ETOT  4  -164.70118414522    -6.758E-04 2.591E-03 6.683E-02
 ETOT  5  -164.70082380281     3.603E-04 5.858E-04 6.960E-03
 ETOT  6  -164.70088383973    -6.004E-05 1.125E-03 8.629E-04
 ETOT  7  -164.70088356152     2.782E-07 5.096E-04 2.388E-04
 ETOT  8  -164.70088598280    -2.421E-06 5.511E-04 4.302E-05
 ETOT  9  -164.70088595313     2.967E-08 2.920E-04 1.479E-05
 ETOT 10  -164.70088603097    -7.784E-08 4.060E-04 1.071E-06
 ETOT 11  -164.70088604524    -1.427E-08 2.325E-04 8.800E-07
 ETOT 12  -164.70088604352     1.714E-09 2.481E-04 8.875E-08
 ETOT 13  -164.70088604445    -9.307E-10 1.254E-04 3.986E-08

 At SCF step   13, etot is converged : 
  for the second time, diff in etot=  9.307E-10 < toldfe=  1.000E-08

 Cartesian components of stress tensor (hartree/bohr^3)
  sigma(1 1)= -1.46538627E-05  sigma(3 2)= -1.74178803E-13
  sigma(2 2)= -1.45737063E-05  sigma(3 1)=  2.79316953E-13
  sigma(3 3)= -1.45768012E-05  sigma(2 1)= -1.02052019E-13


--- !ResultsGS
iteration_state: {dtset: 2, }
comment   : Summary of ground state results
lattice_vectors:
- [  0.0000000,  10.8801360,  10.9109981, ]
- [ 10.6734471,   0.0000000,  10.9109981, ]
- [ 10.6734471,  10.8801360,   0.0000000, ]
lattice_lengths: [  15.40867,   15.26343,   15.24139, ]
lattice_angles: [ 60.679,  59.731,  59.590, ] # degrees, (23, 13, 12)
lattice_volume:   2.5341569E+03
convergence: {deltae: -9.307E-10, res2:  3.986E-08, residm:  1.254E-04, diffor: null, }
etotal    :  -1.64700886E+02
entropy   :   0.00000000E+00
fermie    :  -6.78369496E-02
cartesian_stress_tensor: # hartree/bohr^3
- [ -1.46538627E-05,  -1.02052019E-13,   2.79316953E-13, ]
- [ -1.02052019E-13,  -1.45737063E-05,  -1.74178803E-13, ]
- [  2.79316953E-13,  -1.74178803E-13,  -1.45768012E-05, ]
pressure_GPa:   4.2959E-01
xred      :
- [  2.5092E-01,   2.5092E-01,   2.4908E-01, Cs]
- [  7.5092E-01,   7.5092E-01,   7.4908E-01, Cs]
- [  2.3317E-01,   2.3317E-01,   7.6683E-01, Br]
- [  7.5466E-01,   7.5466E-01,   2.4534E-01,  I]
- [  2.3478E-01,   7.6990E-01,   7.6522E-01, Br]
- [  7.4912E-01,   2.5094E-01,   7.4906E-01,  I]
- [  2.5094E-01,   7.4912E-01,   2.5088E-01,  I]
- [  7.6990E-01,   2.3478E-01,   2.3010E-01, Br]
- [  5.6001E-03,   5.6001E-03,  -5.6001E-03, Zr]
cartesian_forces: # hartree/bohr
- [  7.36831650E-17,  -7.22831957E-17,   2.57840827E-06, ]
- [  7.36833716E-17,  -7.22834125E-17,   2.57840827E-06, ]
- [ -1.90109311E-16,   1.86496841E-16,  -6.65248524E-06, ]
- [ -1.92917074E-16,   1.89251470E-16,  -6.75072099E-06, ]
- [  8.16373927E-06,  -2.94445286E-16,   3.00015241E-06, ]
- [  1.31742561E-16,   2.51934649E-05,  -6.23735583E-07, ]
- [ -1.67390200E-16,  -2.51934649E-05,  -6.23735583E-07, ]
- [ -8.16373927E-06,   1.26233022E-16,   3.00015241E-06, ]
- [  9.98357226E-17,  -9.79387038E-17,   3.49355605E-06, ]
force_length_stats: {min:   2.57840827E-06, max:   2.52011849E-05, mean:   9.98345212E-06, }
...

[...]
                       5.2140353599E+00  2.8173830090E+00  5.3489701880E+00
                       2.5923221605E+00  5.3712659472E+00  5.3770369204E+00
                       1.2627798375E-12  3.9577976085E-12  8.1658174186E-02
           xangst10    2.5753605806E+00  2.6597472464E+00  2.6546334616E+00
                       7.7260817419E+00  7.9792417392E+00  7.9624731342E+00
                       5.1507211613E+00  5.3194944928E+00  2.6753257714E+00
                       5.1507211613E+00  5.3194944928E+00  7.8861928791E+00
                       7.7182873230E+00  5.3194944928E+00  5.3121273898E+00
                       5.1507211613E+00  7.8369332485E+00  5.2869769522E+00
                       5.1507211613E+00  2.8020557370E+00  5.2869769523E+00
                       2.5831549996E+00  5.3194944928E+00  5.3121273898E+00
                       3.3152639377E-13 -8.2698932490E-14  8.5883450785E-02
            xcart1     5.3881582662E+00  5.5018422902E+00  5.5305690840E+00
                       1.6164474799E+01  1.6505526871E+01  1.6546530076E+01
                       1.0776316533E+01  1.1003684580E+01  5.0875643829E+00
                       1.0776316532E+01  1.1003684580E+01  1.6663719738E+01
                       1.6587670602E+01  1.1003684580E+01  1.1067180299E+01
                       1.0776316533E+01  1.6535787377E+01  1.1022611959E+01
                       1.0776316532E+01  5.4715817839E+00  1.1022611959E+01
                       4.9649624633E+00  1.1003684580E+01  1.1067180299E+01
                      -4.1083762305E-12  2.1815417583E-12  1.1972013931E-01
            xcart2     5.3367235603E+00  5.4400679852E+00  5.4755372481E+00
                       1.6010170681E+01  1.6320203955E+01  1.6386535327E+01
                       1.0673447121E+01  1.0880135970E+01  5.0882776879E+00
                       1.0673447120E+01  1.0880135970E+01  1.6468117977E+01
                       1.6385024831E+01  1.0880135970E+01  1.0961993339E+01
                       1.0673447121E+01  1.6300450516E+01  1.0911662136E+01
                       1.0673447120E+01  5.4598214242E+00  1.0911662136E+01
                       4.9618694100E+00  1.0880135970E+01  1.0961993339E+01
                      -3.1397313622E-12  7.0971695951E-13  1.2220544516E-01
            xcart3     5.2788451364E+00  5.3839310580E+00  5.4244282248E+00
                       1.5836535409E+01  1.6151793174E+01  1.6232347142E+01
                       1.0557690273E+01  1.0767862116E+01  5.0873771044E+00
                       1.0557690273E+01  1.0767862116E+01  1.6277137212E+01
                       1.6157523612E+01  1.0767862116E+01  1.0855738493E+01
                       1.0557690273E+01  1.6088820457E+01  1.0803094944E+01
                       1.0557690273E+01  5.4469037755E+00  1.0803094944E+01
                       4.9578569338E+00  1.0767862116E+01  1.0855738493E+01
                      -3.7885865193E-12  6.1751797667E-13  1.2439477847E-01
            xcart4     5.2226850020E+00  5.3288958975E+00  5.3676420790E+00
                       1.5668055006E+01  1.5986687693E+01  1.6066758584E+01
                       1.0445370004E+01  1.0657791795E+01  5.0863450904E+00
                       1.0445370004E+01  1.0657791795E+01  1.6077601899E+01
                       1.5938427665E+01  1.0657791795E+01  1.0745005339E+01
                       1.0445370004E+01  1.5883906267E+01  1.0688410970E+01
                       1.0445370004E+01  5.4316773233E+00  1.0688410970E+01
                       4.9523123431E+00  1.0657791795E+01  1.0745005339E+01
                       1.2253058351E-12  3.8731513912E-12  1.2775176766E-01
            xcart5     5.1651475957E+00  5.2750494659E+00  5.3116208728E+00
                       1.5495442787E+01  1.5825148398E+01  1.5902373638E+01
                       1.0330295191E+01  1.0550098932E+01  5.0844280303E+00
                       1.0330295191E+01  1.0550098932E+01  1.5881320804E+01
                       1.5715206111E+01  1.0550098932E+01  1.0633417317E+01
                       1.0330295191E+01  1.5685425968E+01  1.0573995419E+01
                       1.0330295191E+01  5.4147718957E+00  1.0573995418E+01
                       4.9453842722E+00  1.0550098932E+01  1.0633417317E+01
                       5.4666326641E-13  1.3092156648E-12  1.3145330572E-01
            xcart6     5.1064434500E+00  5.2234967033E+00  5.2549419446E+00
                       1.5319330350E+01  1.5670490110E+01  1.5735128070E+01
                       1.0212886900E+01  1.0446993407E+01  5.0809878473E+00
                       1.0212886900E+01  1.0446993407E+01  1.5683164808E+01
                       1.5488798918E+01  1.0446993407E+01  1.0518179468E+01
                       1.0212886900E+01  1.5498061251E+01  1.0457756908E+01
                       1.0212886900E+01  5.3959255620E+00  1.0457756908E+01
                       4.9369748823E+00  1.0446993407E+01  1.0518179468E+01
                      -9.9256143627E-13  1.5983806623E-12  1.3539358175E-01
            xcart7     5.0467465119E+00  5.1737380773E+00  5.1954733958E+00
                       1.5140239536E+01  1.5521214232E+01  1.5563550115E+01
                       1.0093493024E+01  1.0347476155E+01  5.0772435868E+00
                       1.0093493024E+01  1.0347476155E+01  1.5484821969E+01
                       1.5260521546E+01  1.0347476155E+01  1.0400580268E+01
                       1.0093493024E+01  1.5320456295E+01  1.0340651018E+01
                       1.0093493024E+01  5.3744960147E+00  1.0340651017E+01
                       4.9264645018E+00  1.0347476155E+01  1.0400580268E+01
                      -4.1608054368E-12 -4.3715577785E-13  1.4106211307E-01
            xcart8     4.9865916898E+00  5.1240984037E+00  5.1361105036E+00
                       1.4959775069E+01  1.5372295211E+01  1.5392806851E+01
                       9.9731833796E+00  1.0248196807E+01  5.0722022471E+00
                       9.9731833797E+00  1.0248196807E+01  1.5290916098E+01
                       1.5032635628E+01  1.0248196807E+01  1.0282297080E+01
                       9.9731833796E+00  1.5145757549E+01  1.0224693920E+01
                       9.9731833797E+00  5.3506360655E+00  1.0224693920E+01
                       4.9137311317E+00  1.0248196807E+01  1.0282297080E+01
                       2.4383177780E-13  2.5094124160E-12  1.4755307781E-01
            xcart9     4.9265494387E+00  5.0751108134E+00  5.0765469310E+00
                       1.4779648316E+01  1.5225332440E+01  1.5220356530E+01
                       9.8530988773E+00  1.0150221627E+01  5.0647537426E+00
                       9.8530988774E+00  1.0150221627E+01  1.5096076131E+01
                       1.4807418823E+01  1.0150221627E+01  1.0161127186E+01
                       9.8530988773E+00  1.4976360955E+01  1.0108088749E+01
                       9.8530988774E+00  5.3240822985E+00  1.0108088748E+01
                       4.8987789315E+00  1.0150221627E+01  1.0161127186E+01
                       2.3863080591E-12  7.4791535695E-12  1.5431158572E-01
            xcart10    4.8667261908E+00  5.0261938784E+00  5.0165302255E+00
                       1.4600178573E+01  1.5078581635E+01  1.5046893564E+01
                       9.7334523817E+00  1.0052387757E+01  5.0556330243E+00
                       9.7334523817E+00  1.0052387757E+01  1.4902744773E+01
                       1.4585449255E+01  1.0052387757E+01  1.0038465950E+01
                       9.7334523817E+00  1.4809657561E+01  9.9909385106E+00
                       9.7334523817E+00  5.2951179521E+00  9.9909385107E+00
                       4.8814555080E+00  1.0052387757E+01  1.0038465950E+01
                       6.2649409004E-13 -1.5627833389E-13  1.6229620133E-01
             xred1     2.5102526634E-01  2.5102526634E-01  2.4897473366E-01
                       7.5102526634E-01  7.5102526634E-01  7.4897473366E-01
                       2.3091786484E-01  2.3091786484E-01  7.6908213516E-01
                       7.5634435118E-01  7.5634435118E-01  2.4365564882E-01
                       2.3268931993E-01  7.7196023422E-01  7.6731068007E-01
                       7.5167689563E-01  2.4892686167E-01  7.5107313833E-01
                       2.4892686167E-01  7.5167689563E-01  2.4832310437E-01
                       7.7196023422E-01  2.3268931993E-01  2.2803976578E-01
                       5.4339398712E-03  5.4339398712E-03 -5.4339398712E-03
             xred2     2.5091825735E-01  2.5091825735E-01  2.4908174265E-01
                       7.5091825735E-01  7.5091825735E-01  7.4908174265E-01
                       2.3317196332E-01  2.3317196332E-01  7.6682803668E-01
                       7.5465680852E-01  7.5465680852E-01  2.4534319148E-01
                       2.3477674831E-01  7.6989700010E-01  7.6522325169E-01
                       7.4912265522E-01  2.5093820597E-01  7.4906179403E-01
                       2.5093820597E-01  7.4912265522E-01  2.5087734478E-01
                       7.6989700010E-01  2.3477674831E-01  2.3010299990E-01
                       5.6001038710E-03  5.6001038710E-03 -5.6001038710E-03
             xred3     2.5094693375E-01  2.5094693375E-01  2.4905306625E-01
                       7.5094693375E-01  7.5094693375E-01  7.4905306625E-01
                       2.3535414836E-01  2.3535414836E-01  7.6464585164E-01
                       7.5301902877E-01  7.5301902877E-01  2.4698097123E-01
                       2.3701061717E-01  7.6741387719E-01  7.6298938283E-01
                       7.4685272662E-01  2.5270093649E-01  7.4729906351E-01
                       2.5270093649E-01  7.4685272662E-01  2.5314727338E-01
                       7.6741387719E-01  2.3701061717E-01  2.3258612281E-01
                       5.7547979140E-03  5.7547979140E-03 -5.7547979140E-03
             xred4     2.5084510841E-01  2.5084510841E-01  2.4915489159E-01
                       7.5084510841E-01  7.5084510841E-01  7.4915489159E-01
                       2.3769930387E-01  2.3769930387E-01  7.6230069613E-01
                       7.5135184723E-01  7.5135184723E-01  2.4864815277E-01
                       2.3920229006E-01  7.6508674018E-01  7.6079770994E-01
                       7.4467780882E-01  2.5432159130E-01  7.4567840870E-01
                       2.5432159130E-01  7.4467780882E-01  2.5532219118E-01
                       7.6508674018E-01  2.3920229006E-01  2.3491325982E-01
                       5.9702017267E-03  5.9702017267E-03 -5.9702017267E-03
             xred5     2.5076691858E-01  2.5076691858E-01  2.4923308142E-01
                       7.5076691858E-01  7.5076691858E-01  7.4923308142E-01
                       2.4004091791E-01  2.4004091791E-01  7.5995908209E-01
                       7.4977299328E-01  7.4977299328E-01  2.5022700672E-01
                       2.4137739947E-01  7.6265107263E-01  7.5862260053E-01
                       7.4258701494E-01  2.5583072296E-01  7.4416927704E-01
                       2.5583072296E-01  7.4258701494E-01  2.5741298506E-01
                       7.6265107263E-01  2.4137739947E-01  2.3734892737E-01
                       6.2060416591E-03  6.2060416591E-03 -6.2060416591E-03
             xred6     2.5070842644E-01  2.5070842644E-01  2.4929157356E-01
                       7.5070842644E-01  7.5070842644E-01  7.4929157356E-01
                       2.4240923713E-01  2.4240923713E-01  7.5759076287E-01
                       7.4822930721E-01  7.4822930721E-01  2.5177069279E-01
                       2.4351582692E-01  7.6010942767E-01  7.5648417308E-01
                       7.4067736375E-01  2.5718248173E-01  7.4281751827E-01
                       2.5718248173E-01  7.4067736375E-01  2.5932263625E-01
                       7.6010942767E-01  2.4351582692E-01  2.3989057233E-01
                       6.4595027289E-03  6.4595027289E-03 -6.4595027289E-03
             xred7     2.5055145408E-01  2.5055145408E-01  2.4944854592E-01
                       7.5055145408E-01  7.5055145408E-01  7.4944854592E-01
                       2.4484982724E-01  2.4484982724E-01  7.5515017276E-01
                       7.4675479308E-01  7.4675479308E-01  2.5324520692E-01
                       2.4560908841E-01  7.5752587577E-01  7.5439091159E-01
                       7.3897658026E-01  2.5837821351E-01  7.4162178649E-01
                       2.5837821351E-01  7.3897658026E-01  2.6102341974E-01
                       7.5752587577E-01  2.4560908841E-01  2.4247412423E-01
                       6.8027136034E-03  6.8027136034E-03 -6.8027136034E-03
             xred8     2.5037840303E-01  2.5037840303E-01  2.4962159697E-01
                       7.5037840303E-01  7.5037840303E-01  7.4962159697E-01
                       2.4726296243E-01  2.4726296243E-01  7.5273703757E-01
                       7.4541136739E-01  7.4541136739E-01  2.5458863261E-01
                       2.4759517737E-01  7.5490082446E-01  7.5240482263E-01
                       7.3738736317E-01  2.5949248723E-01  7.4050751277E-01
                       2.5949248723E-01  7.3738736317E-01  2.6261263683E-01
                       7.5490082446E-01  2.4759517737E-01  2.4509917554E-01
                       7.1930119024E-03  7.1930119024E-03 -7.1930119024E-03
             xred9     2.5022881599E-01  2.5022881599E-01  2.4977118401E-01
                       7.5022881599E-01  7.5022881599E-01  7.4977118401E-01
                       2.4964751622E-01  2.4964751622E-01  7.5035248378E-01
                       7.4410289274E-01  7.4410289274E-01  2.5589710726E-01
                       2.4944437666E-01  7.5226283078E-01  7.5055562334E-01
                       7.3597494098E-01  2.6050361575E-01  7.3949638425E-01
                       2.6050361575E-01  7.3597494098E-01  2.6402505902E-01
                       7.5226283078E-01  2.4944437666E-01  2.4773716922E-01
                       7.6061949026E-03  7.6061949026E-03 -7.6061949026E-03
             xred10    2.5006722370E-01  2.5006722370E-01  2.4993277630E-01
                       7.5006722370E-01  7.5006722370E-01  7.4993277630E-01
                       2.5201644515E-01  2.5201644515E-01  7.4798355485E-01
                       7.4288160207E-01  7.4288160207E-01  2.5711839793E-01
                       2.5116053792E-01  7.4964727042E-01  7.4883946208E-01
                       7.3465859669E-01  2.6141085498E-01  7.3858914502E-01
                       2.6141085498E-01  7.3465859669E-01  2.6534140331E-01
                       7.4964727042E-01  2.5116053792E-01  2.5035272958E-01
                       8.0902453806E-03  8.0902453806E-03 -8.0902453806E-03
            znucl       55.00000   53.00000   40.00000   35.00000

================================================================================


- Timing analysis has been suppressed with timopt=0



================================================================================

 Suggested references for the acknowledgment of ABINIT usage.

 The users of ABINIT have little formal obligations with respect to the ABINIT group
 (those specified in the GNU General Public License, http://www.gnu.org/copyleft/gpl.txt).
 However, it is common practice in the scientific literature,
 to acknowledge the efforts of people that have made the research possible.
 In this spirit, please find below suggested citations of work written by ABINIT developers,
 corresponding to implementations inside of ABINIT that you have used in the present run.
 Note also that it will be of great value to readers of publications presenting these results,
 to read papers enabling them to understand the theoretical formalism and details
 of the ABINIT implementation.
 For information on why they are suggested, see also https://docs.abinit.org/theory/acknowledgments.
-
- [1] Implementation of the Projector Augmented-Wave Method in the ABINIT code.
- M. Torrent, F. Jollet, F. Bottin, G. Zerah, and X. Gonze Comput. Mat. Science 42, 337, (2008).
- Comment: PAW calculations. Strong suggestion to cite this paper.
- DOI and bibtex: see https://docs.abinit.org/theory/bibliography/#torrent2008
-
- [2] Libxc: A library of exchange and correlation functionals for density functional theory.
- M.A.L. Marques, M.J.T. Oliveira, T. Burnus, Computer Physics Communications 183, 2227 (2012).
- Comment: to be cited when LibXC is used (negative value of ixc)
- Strong suggestion to cite this paper.
- DOI and bibtex: see https://docs.abinit.org/theory/bibliography/#marques2012
-
- [3] The Abinit project: Impact, environment and recent developments.
- Computer Phys. Comm. 248, 107042 (2020).
- X.Gonze, B. Amadon, G. Antonius, F.Arnardi, L.Baguet, J.-M.Beuken,
- J.Bieder, F.Bottin, J.Bouchet, E.Bousquet, N.Brouwer, F.Bruneval,
- G.Brunin, T.Cavignac, J.-B. Charraud, Wei Chen, M.Cote, S.Cottenier,
- J.Denier, G.Geneste, Ph.Ghosez, M.Giantomassi, Y.Gillet, O.Gingras,
- D.R.Hamann, G.Hautier, Xu He, N.Helbig, N.Holzwarth, Y.Jia, F.Jollet,
- W.Lafargue-Dit-Hauret, K.Lejaeghere, M.A.L.Marques, A.Martin, C.Martins,
- H.P.C. Miranda, F.Naccarato, K. Persson, G.Petretto, V.Planes, Y.Pouillon,
- S.Prokhorenko, F.Ricci, G.-M.Rignanese, A.H.Romero, M.M.Schmitt, M.Torrent,
- M.J.van Setten, B.Van Troeye, M.J.Verstraete, G.Zerah and J.W.Zwanzig
- Comment: the fifth generic paper describing the ABINIT project.
- Note that a version of this paper, that is not formatted for Computer Phys. Comm. 
- is available at https://www.abinit.org/sites/default/files/ABINIT20.pdf .
- The licence allows the authors to put it on the Web.
- DOI and bibtex: see https://docs.abinit.org/theory/bibliography/#gonze2020
-
- [4] ABINIT: Overview, and focus on selected capabilities
- J. Chem. Phys. 152, 124102 (2020).
- A. Romero, D.C. Allan, B. Amadon, G. Antonius, T. Applencourt, L.Baguet,
- J.Bieder, F.Bottin, J.Bouchet, E.Bousquet, F.Bruneval,
- G.Brunin, D.Caliste, M.Cote,
- J.Denier, C. Dreyer, Ph.Ghosez, M.Giantomassi, Y.Gillet, O.Gingras,
- D.R.Hamann, G.Hautier, F.Jollet, G. Jomard,
- A.Martin, 
- H.P.C. Miranda, F.Naccarato, G.Petretto, N.A. Pike, V.Planes,
- S.Prokhorenko, T. Rangel, F.Ricci, G.-M.Rignanese, M.Royo, M.Stengel, M.Torrent,
- M.J.van Setten, B.Van Troeye, M.J.Verstraete, J.Wiktor, J.W.Zwanziger, and X.Gonze.
- Comment: a global overview of ABINIT, with focus on selected capabilities .
- Note that a version of this paper, that is not formatted for J. Chem. Phys 
- is available at https://www.abinit.org/sites/default/files/ABINIT20_JPC.pdf .
- The licence allows the authors to put it on the Web.
- DOI and bibtex: see https://docs.abinit.org/theory/bibliography/#romero2020
-
- [5] Recent developments in the ABINIT software package.
- Computer Phys. Comm. 205, 106 (2016).
- X.Gonze, F.Jollet, F.Abreu Araujo, D.Adams, B.Amadon, T.Applencourt,
- C.Audouze, J.-M.Beuken, J.Bieder, A.Bokhanchuk, E.Bousquet, F.Bruneval
- D.Caliste, M.Cote, F.Dahm, F.Da Pieve, M.Delaveau, M.Di Gennaro,
- B.Dorado, C.Espejo, G.Geneste, L.Genovese, A.Gerossier, M.Giantomassi,
- Y.Gillet, D.R.Hamann, L.He, G.Jomard, J.Laflamme Janssen, S.Le Roux,
- A.Levitt, A.Lherbier, F.Liu, I.Lukacevic, A.Martin, C.Martins,
- M.J.T.Oliveira, S.Ponce, Y.Pouillon, T.Rangel, G.-M.Rignanese,
- A.H.Romero, B.Rousseau, O.Rubel, A.A.Shukri, M.Stankovski, M.Torrent,
- M.J.Van Setten, B.Van Troeye, M.J.Verstraete, D.Waroquier, J.Wiktor,
- B.Xu, A.Zhou, J.W.Zwanziger.
- Comment: the fourth generic paper describing the ABINIT project.
- Note that a version of this paper, that is not formatted for Computer Phys. Comm. 
- is available at https://www.abinit.org/sites/default/files/ABINIT16.pdf .
- The licence allows the authors to put it on the Web.
- DOI and bibtex: see https://docs.abinit.org/theory/bibliography/#gonze2016
-
- Proc.   0 individual time (sec): cpu=      22677.1  wall=      22780.6

================================================================================

 Calculation completed.
.Delivered   0 WARNINGs and   5 COMMENTs to log file.
+Overall time at end (sec) : cpu=     136048.8  wall=     136683.3
