
.Version 9.2.2 of ABINIT 
.(MPI version, prepared for a x86_64_linux_gnu9.3 computer) 

.Copyright (C) 1998-2020 ABINIT group . 
 ABINIT comes with ABSOLUTELY NO WARRANTY.
 It is free software, and you are welcome to redistribute it
 under certain conditions (GNU General Public License,
 see ~abinit/COPYING or http://www.gnu.org/copyleft/gpl.txt).

 ABINIT is a project of the Universite Catholique de Louvain,
 Corning Inc. and other collaborators, see ~abinit/doc/developers/contributors.txt .
 Please read https://docs.abinit.org/theory/acknowledgments for suggested
 acknowledgments of the ABINIT effort.
 For more information, see https://www.abinit.org .

.Starting date : Sat 22 Oct 2022.
- ( at 02h08 )
  
- input  file    -> Cs2TiI6.in
- output file    -> Cs2TiI6.out
- root for input  files -> Cs2TiI6i
- root for output files -> Cs2TiI6o

- inpspheads : Reading pseudopotential header in XML form from 
-   ../../../Psps_for_tests/ATOMICDATA/Cs.GGA_PBE-JTH.xml
- inpspheads : Reading pseudopotential header in XML form from 
-   ../../../Psps_for_tests/ATOMICDATA/I.GGA_PBE-JTH.xml
- inpspheads : Reading pseudopotential header in XML form from 
-   ../../../Psps_for_tests/ATOMICDATA/Zr.GGA_PBE-JTH.xml
- inpspheads : Reading pseudopotential header in XML form from 
-   ../../../Psps_for_tests/ATOMICDATA/Br.GGA_PBE-JTH.xml

 DATASET    1 : space group R3 m (#160); Bravais hR (rhombohedral)
================================================================================
 Values of the parameters that define the memory need for DATASET  1.
     intxc =       0    ionmov =       0      iscf =      17    lmnmax =      18
     lnmax =       6     mgfft =      60  mpssoang =       3    mqgrid =    3646
     natom =       9  nloc_mem =       2    nspden =       1   nspinor =       1
    nsppol =       1      nsym =       6    n1xccc =       1    ntypat =       4
    occopt =       1   xclevel =       2
-    mband =          42        mffmem =           1         mkmem =          32
       mpw =        8278          nfft =      216000          nkpt =         189
Pmy_natom=         2
 PAW method is used; the additional fine FFT grid is defined by:
   mgfftf=        90    nfftf =    729000
================================================================================
P This job should need less than                     401.558 Mbytes of memory.
  Rough estimation (10% accuracy) of disk space for files :
_ WF disk file :   1002.669 Mbytes ; DEN or POT disk file :      5.564 Mbytes.
================================================================================


 DATASET    2 : space group R3 m (#160); Bravais hR (rhombohedral)
================================================================================
 Values of the parameters that define the memory need for DATASET  2.
     intxc =       0    ionmov =       0      iscf =      17    lmnmax =      18
     lnmax =       6     mgfft =      60  mpssoang =       3    mqgrid =    3646
     natom =       9  nloc_mem =       2    nspden =       1   nspinor =       1
    nsppol =       1      nsym =       6    n1xccc =       1    ntypat =       4
    occopt =       1   xclevel =       2
-    mband =          42        mffmem =           1         mkmem =          32
       mpw =        8278          nfft =      216000          nkpt =         189
Pmy_natom=         2
 PAW method is used; the additional fine FFT grid is defined by:
   mgfftf=        90    nfftf =    729000
================================================================================
P This job should need less than                     401.558 Mbytes of memory.
  Rough estimation (10% accuracy) of disk space for files :
_ WF disk file :   1002.669 Mbytes ; DEN or POT disk file :      5.564 Mbytes.
================================================================================


 DATASET    3 : space group Fm m 2 (# 42); Bravais oF (face-center ortho.)
================================================================================
 Values of the parameters that define the memory need for DATASET  3.
     intxc =       0    ionmov =       0      iscf =      17    lmnmax =      18
     lnmax =       6     mgfft =      60  mpssoang =       3    mqgrid =    3630
     natom =       9  nloc_mem =       2    nspden =       1   nspinor =       1
    nsppol =       1      nsym =       4    n1xccc =       1    ntypat =       4
    occopt =       1   xclevel =       2
-    mband =          42        mffmem =           1         mkmem =          47
       mpw =        8264          nfft =      216000          nkpt =         280
Pmy_natom=         2
 PAW method is used; the additional fine FFT grid is defined by:
   mgfftf=        90    nfftf =    729000
================================================================================
P This job should need less than                     490.701 Mbytes of memory.
  Rough estimation (10% accuracy) of disk space for files :
_ WF disk file :   1482.922 Mbytes ; DEN or POT disk file :      5.564 Mbytes.
================================================================================


 DATASET    4 : space group Fm m 2 (# 42); Bravais oF (face-center ortho.)
================================================================================
 Values of the parameters that define the memory need for DATASET  4.
     intxc =       0    ionmov =       0      iscf =      17    lmnmax =      18
     lnmax =       6     mgfft =      60  mpssoang =       3    mqgrid =    3630
     natom =       9  nloc_mem =       2    nspden =       1   nspinor =       1
    nsppol =       1      nsym =       4    n1xccc =       1    ntypat =       4
    occopt =       1   xclevel =       2
-    mband =          42        mffmem =           1         mkmem =          47
       mpw =        8264          nfft =      216000          nkpt =         280
Pmy_natom=         2
 PAW method is used; the additional fine FFT grid is defined by:
   mgfftf=        90    nfftf =    729000
================================================================================
P This job should need less than                     490.701 Mbytes of memory.
  Rough estimation (10% accuracy) of disk space for files :
_ WF disk file :   1482.922 Mbytes ; DEN or POT disk file :      5.564 Mbytes.
================================================================================


 DATASET    5 : space group R3 m (#160); Bravais hR (rhombohedral)
================================================================================
 Values of the parameters that define the memory need for DATASET  5.
     intxc =       0    ionmov =       0      iscf =      17    lmnmax =      18
     lnmax =       6     mgfft =      60  mpssoang =       3    mqgrid =    3646
     natom =       9  nloc_mem =       2    nspden =       1   nspinor =       1
    nsppol =       1      nsym =       6    n1xccc =       1    ntypat =       4
    occopt =       1   xclevel =       2
-    mband =          42        mffmem =           1         mkmem =          32
       mpw =        8278          nfft =      216000          nkpt =         189
Pmy_natom=         2
 PAW method is used; the additional fine FFT grid is defined by:
   mgfftf=        90    nfftf =    729000
================================================================================
P This job should need less than                     401.558 Mbytes of memory.
  Rough estimation (10% accuracy) of disk space for files :
_ WF disk file :   1002.669 Mbytes ; DEN or POT disk file :      5.564 Mbytes.
================================================================================


 DATASET    6 : space group Fm m 2 (# 42); Bravais oF (face-center ortho.)
================================================================================
 Values of the parameters that define the memory need for DATASET  6.
     intxc =       0    ionmov =       0      iscf =      17    lmnmax =      18
     lnmax =       6     mgfft =      60  mpssoang =       3    mqgrid =    3630
     natom =       9  nloc_mem =       2    nspden =       1   nspinor =       1
    nsppol =       1      nsym =       4    n1xccc =       1    ntypat =       4
    occopt =       1   xclevel =       2
-    mband =          42        mffmem =           1         mkmem =          47
       mpw =        8264          nfft =      216000          nkpt =         280
Pmy_natom=         2
 PAW method is used; the additional fine FFT grid is defined by:
   mgfftf=        90    nfftf =    729000
================================================================================
P This job should need less than                     490.701 Mbytes of memory.
  Rough estimation (10% accuracy) of disk space for files :
_ WF disk file :   1482.922 Mbytes ; DEN or POT disk file :      5.564 Mbytes.
================================================================================

--------------------------------------------------------------------------------
------------- Echo of variables that govern the present computation ------------
--------------------------------------------------------------------------------
-
- outvars: echo of selected default values                                      
-   iomode0 =  0 , fftalg0 =112 , wfoptalg0 = 10
-
- outvars: echo of global parameters not present in the input file              
-  max_nthreads =    0
-
 -outvars: echo values of preprocessed input variables --------
            acell1     1.5552140105E+01  1.5708755845E+01  1.5708755845E+01 Bohr
            acell2     1.5552140462E+01  1.5708755818E+01  1.5708755818E+01 Bohr
            acell3     1.5558035765E+01  1.5560876630E+01  1.5732211664E+01 Bohr
            acell4     1.5732211373E+01  1.5558035595E+01  1.5560876377E+01 Bohr
            acell5     1.5708872988E+01  1.5708872988E+01  1.5551989182E+01 Bohr
            acell6     1.5560876404E+01  1.5558035545E+01  1.5732211402E+01 Bohr
              amu      1.32905430E+02  1.26904470E+02  9.12240000E+01
                       7.99040000E+01
           diemac      1.20000000E+01
             ecut      1.60000000E+01 Hartree
-          fftalg         112
           istwfk1       2    0    0    0    0    0    3    0    0    0
                         0    0    0    0    0    0    0    0    0    0
                         0    0    0    0    0    0    0    0    0    0
                         0    0    0    0    0    0    0    0    0    0
                         0    0    0    0    0    0    0    0    0    0
           istwfk2       2    0    0    0    0    0    3    0    0    0
                         0    0    0    0    0    0    0    0    0    0
                         0    0    0    0    0    0    0    0    0    0
                         0    0    0    0    0    0    0    0    0    0
                         0    0    0    0    0    0    0    0    0    0
           istwfk3       2    0    0    0    0    0    3    0    0    0
                         0    0    0    0    0    0    0    0    0    0
                         0    0    0    0    0    0    0    0    0    0
                         0    0    0    0    0    0    0    0    0    0
                         0    0    7    0    0    0    0    0    0    0
           istwfk4       2    0    0    0    0    0    3    0    0    0
                         0    0    0    0    0    0    0    0    0    0
                         0    0    0    0    0    0    0    0    0    0
                         0    0    0    0    0    0    0    0    0    0
                         0    0    7    0    0    0    0    0    0    0
           istwfk5       2    0    0    0    0    0    3    0    0    0
                         0    0    0    0    0    0    0    0    0    0
                         0    0    0    0    0    0    0    0    0    0
                         0    0    0    0    0    0    0    0    0    0
                         0    0    7    0    0    0    0    0    0    0
           istwfk6       2    0    0    0    0    0    3    0    0    0
                         0    0    0    0    0    0    0    0    0    0
                         0    0    0    0    0    0    0    0    0    0
                         0    0    0    0    0    0    0    0    0    0
                         0    0    7    0    0    0    0    0    0    0
                       outvar_i_n : Printing only first  50 k-points.
              ixc     -101130
           jdtset        1    2    3    4    5    6
              kpt1     0.00000000E+00  0.00000000E+00  0.00000000E+00
                       8.33333333E-02  0.00000000E+00  0.00000000E+00
                       1.66666667E-01  0.00000000E+00  0.00000000E+00
                       2.50000000E-01  0.00000000E+00  0.00000000E+00
                       3.33333333E-01  0.00000000E+00  0.00000000E+00
                       4.16666667E-01  0.00000000E+00  0.00000000E+00
                       5.00000000E-01  0.00000000E+00  0.00000000E+00
                       0.00000000E+00  8.33333333E-02  0.00000000E+00
                       8.33333333E-02  8.33333333E-02  0.00000000E+00
                       1.66666667E-01  8.33333333E-02  0.00000000E+00
                       2.50000000E-01  8.33333333E-02  0.00000000E+00
                       3.33333333E-01  8.33333333E-02  0.00000000E+00
                       4.16666667E-01  8.33333333E-02  0.00000000E+00
                       5.00000000E-01  8.33333333E-02  0.00000000E+00
                      -4.16666667E-01  8.33333333E-02  0.00000000E+00
                      -3.33333333E-01  8.33333333E-02  0.00000000E+00
                      -2.50000000E-01  8.33333333E-02  0.00000000E+00
                      -1.66666667E-01  8.33333333E-02  0.00000000E+00
                      -8.33333333E-02  8.33333333E-02  0.00000000E+00
                       0.00000000E+00  1.66666667E-01  0.00000000E+00
                       8.33333333E-02  1.66666667E-01  0.00000000E+00
                       1.66666667E-01  1.66666667E-01  0.00000000E+00
                       2.50000000E-01  1.66666667E-01  0.00000000E+00
                       3.33333333E-01  1.66666667E-01  0.00000000E+00
                       4.16666667E-01  1.66666667E-01  0.00000000E+00
                       5.00000000E-01  1.66666667E-01  0.00000000E+00
                      -4.16666667E-01  1.66666667E-01  0.00000000E+00
                      -3.33333333E-01  1.66666667E-01  0.00000000E+00
                      -2.50000000E-01  1.66666667E-01  0.00000000E+00
                      -1.66666667E-01  1.66666667E-01  0.00000000E+00
                      -8.33333333E-02  1.66666667E-01  0.00000000E+00
                       0.00000000E+00  2.50000000E-01  0.00000000E+00
                       8.33333333E-02  2.50000000E-01  0.00000000E+00
                       1.66666667E-01  2.50000000E-01  0.00000000E+00
                       2.50000000E-01  2.50000000E-01  0.00000000E+00
                       3.33333333E-01  2.50000000E-01  0.00000000E+00
                       4.16666667E-01  2.50000000E-01  0.00000000E+00
                       5.00000000E-01  2.50000000E-01  0.00000000E+00
                      -4.16666667E-01  2.50000000E-01  0.00000000E+00
                      -3.33333333E-01  2.50000000E-01  0.00000000E+00
                      -2.50000000E-01  2.50000000E-01  0.00000000E+00
                      -1.66666667E-01  2.50000000E-01  0.00000000E+00
                      -8.33333333E-02  2.50000000E-01  0.00000000E+00
                       0.00000000E+00  3.33333333E-01  0.00000000E+00
                       8.33333333E-02  3.33333333E-01  0.00000000E+00
                       1.66666667E-01  3.33333333E-01  0.00000000E+00
                       2.50000000E-01  3.33333333E-01  0.00000000E+00
                       3.33333333E-01  3.33333333E-01  0.00000000E+00
                       4.16666667E-01  3.33333333E-01  0.00000000E+00
                       5.00000000E-01  3.33333333E-01  0.00000000E+00
              kpt2     0.00000000E+00  0.00000000E+00  0.00000000E+00
                       8.33333333E-02  0.00000000E+00  0.00000000E+00
                       1.66666667E-01  0.00000000E+00  0.00000000E+00
                       2.50000000E-01  0.00000000E+00  0.00000000E+00
                       3.33333333E-01  0.00000000E+00  0.00000000E+00
                       4.16666667E-01  0.00000000E+00  0.00000000E+00
                       5.00000000E-01  0.00000000E+00  0.00000000E+00
                       0.00000000E+00  8.33333333E-02  0.00000000E+00
                       8.33333333E-02  8.33333333E-02  0.00000000E+00
                       1.66666667E-01  8.33333333E-02  0.00000000E+00
                       2.50000000E-01  8.33333333E-02  0.00000000E+00
                       3.33333333E-01  8.33333333E-02  0.00000000E+00
                       4.16666667E-01  8.33333333E-02  0.00000000E+00
                       5.00000000E-01  8.33333333E-02  0.00000000E+00
                      -4.16666667E-01  8.33333333E-02  0.00000000E+00
                      -3.33333333E-01  8.33333333E-02  0.00000000E+00
                      -2.50000000E-01  8.33333333E-02  0.00000000E+00
                      -1.66666667E-01  8.33333333E-02  0.00000000E+00
                      -8.33333333E-02  8.33333333E-02  0.00000000E+00
                       0.00000000E+00  1.66666667E-01  0.00000000E+00
                       8.33333333E-02  1.66666667E-01  0.00000000E+00
                       1.66666667E-01  1.66666667E-01  0.00000000E+00
                       2.50000000E-01  1.66666667E-01  0.00000000E+00
                       3.33333333E-01  1.66666667E-01  0.00000000E+00
                       4.16666667E-01  1.66666667E-01  0.00000000E+00
                       5.00000000E-01  1.66666667E-01  0.00000000E+00
                      -4.16666667E-01  1.66666667E-01  0.00000000E+00
                      -3.33333333E-01  1.66666667E-01  0.00000000E+00
                      -2.50000000E-01  1.66666667E-01  0.00000000E+00
                      -1.66666667E-01  1.66666667E-01  0.00000000E+00
                      -8.33333333E-02  1.66666667E-01  0.00000000E+00
                       0.00000000E+00  2.50000000E-01  0.00000000E+00
                       8.33333333E-02  2.50000000E-01  0.00000000E+00
                       1.66666667E-01  2.50000000E-01  0.00000000E+00
                       2.50000000E-01  2.50000000E-01  0.00000000E+00
                       3.33333333E-01  2.50000000E-01  0.00000000E+00
                       4.16666667E-01  2.50000000E-01  0.00000000E+00
                       5.00000000E-01  2.50000000E-01  0.00000000E+00
                      -4.16666667E-01  2.50000000E-01  0.00000000E+00
                      -3.33333333E-01  2.50000000E-01  0.00000000E+00
                      -2.50000000E-01  2.50000000E-01  0.00000000E+00
                      -1.66666667E-01  2.50000000E-01  0.00000000E+00
                      -8.33333333E-02  2.50000000E-01  0.00000000E+00
                       0.00000000E+00  3.33333333E-01  0.00000000E+00
                       8.33333333E-02  3.33333333E-01  0.00000000E+00
                       1.66666667E-01  3.33333333E-01  0.00000000E+00
                       2.50000000E-01  3.33333333E-01  0.00000000E+00
                       3.33333333E-01  3.33333333E-01  0.00000000E+00
                       4.16666667E-01  3.33333333E-01  0.00000000E+00
                       5.00000000E-01  3.33333333E-01  0.00000000E+00
              kpt3     0.00000000E+00  0.00000000E+00  0.00000000E+00
                       8.33333333E-02  0.00000000E+00  0.00000000E+00
                       1.66666667E-01  0.00000000E+00  0.00000000E+00
                       2.50000000E-01  0.00000000E+00  0.00000000E+00
                       3.33333333E-01  0.00000000E+00  0.00000000E+00
                       4.16666667E-01  0.00000000E+00  0.00000000E+00
                       5.00000000E-01  0.00000000E+00  0.00000000E+00
                       8.33333333E-02  8.33333333E-02  0.00000000E+00
                       1.66666667E-01  8.33333333E-02  0.00000000E+00
                       2.50000000E-01  8.33333333E-02  0.00000000E+00
                       3.33333333E-01  8.33333333E-02  0.00000000E+00
                       4.16666667E-01  8.33333333E-02  0.00000000E+00
                       5.00000000E-01  8.33333333E-02  0.00000000E+00
                      -4.16666667E-01  8.33333333E-02  0.00000000E+00
                      -3.33333333E-01  8.33333333E-02  0.00000000E+00
                      -2.50000000E-01  8.33333333E-02  0.00000000E+00
                      -1.66666667E-01  8.33333333E-02  0.00000000E+00
                      -8.33333333E-02  8.33333333E-02  0.00000000E+00
                       1.66666667E-01  1.66666667E-01  0.00000000E+00
                       2.50000000E-01  1.66666667E-01  0.00000000E+00
                       3.33333333E-01  1.66666667E-01  0.00000000E+00
                       4.16666667E-01  1.66666667E-01  0.00000000E+00
                       5.00000000E-01  1.66666667E-01  0.00000000E+00
                      -4.16666667E-01  1.66666667E-01  0.00000000E+00
                      -3.33333333E-01  1.66666667E-01  0.00000000E+00
                      -2.50000000E-01  1.66666667E-01  0.00000000E+00
                      -1.66666667E-01  1.66666667E-01  0.00000000E+00
                       2.50000000E-01  2.50000000E-01  0.00000000E+00
                       3.33333333E-01  2.50000000E-01  0.00000000E+00
                       4.16666667E-01  2.50000000E-01  0.00000000E+00
                       5.00000000E-01  2.50000000E-01  0.00000000E+00
                      -4.16666667E-01  2.50000000E-01  0.00000000E+00
                      -3.33333333E-01  2.50000000E-01  0.00000000E+00
                      -2.50000000E-01  2.50000000E-01  0.00000000E+00
                       3.33333333E-01  3.33333333E-01  0.00000000E+00
                       4.16666667E-01  3.33333333E-01  0.00000000E+00
                       5.00000000E-01  3.33333333E-01  0.00000000E+00
                      -4.16666667E-01  3.33333333E-01  0.00000000E+00
                      -3.33333333E-01  3.33333333E-01  0.00000000E+00
                       4.16666667E-01  4.16666667E-01  0.00000000E+00
                       5.00000000E-01  4.16666667E-01  0.00000000E+00
                      -4.16666667E-01  4.16666667E-01  0.00000000E+00
                       5.00000000E-01  5.00000000E-01  0.00000000E+00
                       8.33333333E-02  0.00000000E+00  8.33333333E-02
                       1.66666667E-01  0.00000000E+00  8.33333333E-02
                       2.50000000E-01  0.00000000E+00  8.33333333E-02
                       3.33333333E-01  0.00000000E+00  8.33333333E-02
                       4.16666667E-01  0.00000000E+00  8.33333333E-02
                       5.00000000E-01  0.00000000E+00  8.33333333E-02
                      -4.16666667E-01  0.00000000E+00  8.33333333E-02
              kpt4     0.00000000E+00  0.00000000E+00  0.00000000E+00
                       8.33333333E-02  0.00000000E+00  0.00000000E+00
                       1.66666667E-01  0.00000000E+00  0.00000000E+00
                       2.50000000E-01  0.00000000E+00  0.00000000E+00
                       3.33333333E-01  0.00000000E+00  0.00000000E+00
                       4.16666667E-01  0.00000000E+00  0.00000000E+00
                       5.00000000E-01  0.00000000E+00  0.00000000E+00
                       8.33333333E-02  8.33333333E-02  0.00000000E+00
                       1.66666667E-01  8.33333333E-02  0.00000000E+00
                       2.50000000E-01  8.33333333E-02  0.00000000E+00
                       3.33333333E-01  8.33333333E-02  0.00000000E+00
                       4.16666667E-01  8.33333333E-02  0.00000000E+00
                       5.00000000E-01  8.33333333E-02  0.00000000E+00
                      -4.16666667E-01  8.33333333E-02  0.00000000E+00
                      -3.33333333E-01  8.33333333E-02  0.00000000E+00
                      -2.50000000E-01  8.33333333E-02  0.00000000E+00
                      -1.66666667E-01  8.33333333E-02  0.00000000E+00
                      -8.33333333E-02  8.33333333E-02  0.00000000E+00
                       1.66666667E-01  1.66666667E-01  0.00000000E+00
                       2.50000000E-01  1.66666667E-01  0.00000000E+00
                       3.33333333E-01  1.66666667E-01  0.00000000E+00
                       4.16666667E-01  1.66666667E-01  0.00000000E+00
                       5.00000000E-01  1.66666667E-01  0.00000000E+00
                      -4.16666667E-01  1.66666667E-01  0.00000000E+00
                      -3.33333333E-01  1.66666667E-01  0.00000000E+00
                      -2.50000000E-01  1.66666667E-01  0.00000000E+00
                      -1.66666667E-01  1.66666667E-01  0.00000000E+00
                       2.50000000E-01  2.50000000E-01  0.00000000E+00
                       3.33333333E-01  2.50000000E-01  0.00000000E+00
                       4.16666667E-01  2.50000000E-01  0.00000000E+00
                       5.00000000E-01  2.50000000E-01  0.00000000E+00
                      -4.16666667E-01  2.50000000E-01  0.00000000E+00
                      -3.33333333E-01  2.50000000E-01  0.00000000E+00
                      -2.50000000E-01  2.50000000E-01  0.00000000E+00
                       3.33333333E-01  3.33333333E-01  0.00000000E+00
                       4.16666667E-01  3.33333333E-01  0.00000000E+00
                       5.00000000E-01  3.33333333E-01  0.00000000E+00
                      -4.16666667E-01  3.33333333E-01  0.00000000E+00
                      -3.33333333E-01  3.33333333E-01  0.00000000E+00
                       4.16666667E-01  4.16666667E-01  0.00000000E+00
                       5.00000000E-01  4.16666667E-01  0.00000000E+00
                      -4.16666667E-01  4.16666667E-01  0.00000000E+00
                       5.00000000E-01  5.00000000E-01  0.00000000E+00
                       8.33333333E-02  0.00000000E+00  8.33333333E-02
                       1.66666667E-01  0.00000000E+00  8.33333333E-02
                       2.50000000E-01  0.00000000E+00  8.33333333E-02
                       3.33333333E-01  0.00000000E+00  8.33333333E-02
                       4.16666667E-01  0.00000000E+00  8.33333333E-02
                       5.00000000E-01  0.00000000E+00  8.33333333E-02
                      -4.16666667E-01  0.00000000E+00  8.33333333E-02
              kpt5     0.00000000E+00  0.00000000E+00  0.00000000E+00
                       8.33333333E-02  0.00000000E+00  0.00000000E+00
                       1.66666667E-01  0.00000000E+00  0.00000000E+00
                       2.50000000E-01  0.00000000E+00  0.00000000E+00
                       3.33333333E-01  0.00000000E+00  0.00000000E+00
                       4.16666667E-01  0.00000000E+00  0.00000000E+00
                       5.00000000E-01  0.00000000E+00  0.00000000E+00
                       8.33333333E-02  8.33333333E-02  0.00000000E+00
                       1.66666667E-01  8.33333333E-02  0.00000000E+00
                       2.50000000E-01  8.33333333E-02  0.00000000E+00
                       3.33333333E-01  8.33333333E-02  0.00000000E+00
                       4.16666667E-01  8.33333333E-02  0.00000000E+00
                       5.00000000E-01  8.33333333E-02  0.00000000E+00
                      -4.16666667E-01  8.33333333E-02  0.00000000E+00
                      -3.33333333E-01  8.33333333E-02  0.00000000E+00
                      -2.50000000E-01  8.33333333E-02  0.00000000E+00
                      -1.66666667E-01  8.33333333E-02  0.00000000E+00
                      -8.33333333E-02  8.33333333E-02  0.00000000E+00
                       1.66666667E-01  1.66666667E-01  0.00000000E+00
                       2.50000000E-01  1.66666667E-01  0.00000000E+00
                       3.33333333E-01  1.66666667E-01  0.00000000E+00
                       4.16666667E-01  1.66666667E-01  0.00000000E+00
                       5.00000000E-01  1.66666667E-01  0.00000000E+00
                      -4.16666667E-01  1.66666667E-01  0.00000000E+00
                      -3.33333333E-01  1.66666667E-01  0.00000000E+00
                      -2.50000000E-01  1.66666667E-01  0.00000000E+00
                      -1.66666667E-01  1.66666667E-01  0.00000000E+00
                       2.50000000E-01  2.50000000E-01  0.00000000E+00
                       3.33333333E-01  2.50000000E-01  0.00000000E+00
                       4.16666667E-01  2.50000000E-01  0.00000000E+00
                       5.00000000E-01  2.50000000E-01  0.00000000E+00
                      -4.16666667E-01  2.50000000E-01  0.00000000E+00
                      -3.33333333E-01  2.50000000E-01  0.00000000E+00
                      -2.50000000E-01  2.50000000E-01  0.00000000E+00
                       3.33333333E-01  3.33333333E-01  0.00000000E+00
                       4.16666667E-01  3.33333333E-01  0.00000000E+00
                       5.00000000E-01  3.33333333E-01  0.00000000E+00
                      -4.16666667E-01  3.33333333E-01  0.00000000E+00
                      -3.33333333E-01  3.33333333E-01  0.00000000E+00
                       4.16666667E-01  4.16666667E-01  0.00000000E+00
                       5.00000000E-01  4.16666667E-01  0.00000000E+00
                      -4.16666667E-01  4.16666667E-01  0.00000000E+00
                       5.00000000E-01  5.00000000E-01  0.00000000E+00
                       0.00000000E+00  0.00000000E+00  8.33333333E-02
                       1.66666667E-01  0.00000000E+00  8.33333333E-02
                       2.50000000E-01  0.00000000E+00  8.33333333E-02
                       3.33333333E-01  0.00000000E+00  8.33333333E-02
                       4.16666667E-01  0.00000000E+00  8.33333333E-02
                       5.00000000E-01  0.00000000E+00  8.33333333E-02
                      -4.16666667E-01  0.00000000E+00  8.33333333E-02
              kpt6     0.00000000E+00  0.00000000E+00  0.00000000E+00
                       8.33333333E-02  0.00000000E+00  0.00000000E+00
                       1.66666667E-01  0.00000000E+00  0.00000000E+00
                       2.50000000E-01  0.00000000E+00  0.00000000E+00
                       3.33333333E-01  0.00000000E+00  0.00000000E+00
                       4.16666667E-01  0.00000000E+00  0.00000000E+00
                       5.00000000E-01  0.00000000E+00  0.00000000E+00
                       8.33333333E-02  8.33333333E-02  0.00000000E+00
                       1.66666667E-01  8.33333333E-02  0.00000000E+00
                       2.50000000E-01  8.33333333E-02  0.00000000E+00
                       3.33333333E-01  8.33333333E-02  0.00000000E+00
                       4.16666667E-01  8.33333333E-02  0.00000000E+00
                       5.00000000E-01  8.33333333E-02  0.00000000E+00
                      -4.16666667E-01  8.33333333E-02  0.00000000E+00
                      -3.33333333E-01  8.33333333E-02  0.00000000E+00
                      -2.50000000E-01  8.33333333E-02  0.00000000E+00
                      -1.66666667E-01  8.33333333E-02  0.00000000E+00
                      -8.33333333E-02  8.33333333E-02  0.00000000E+00
                       1.66666667E-01  1.66666667E-01  0.00000000E+00
                       2.50000000E-01  1.66666667E-01  0.00000000E+00
                       3.33333333E-01  1.66666667E-01  0.00000000E+00
                       4.16666667E-01  1.66666667E-01  0.00000000E+00
                       5.00000000E-01  1.66666667E-01  0.00000000E+00
                      -4.16666667E-01  1.66666667E-01  0.00000000E+00
                      -3.33333333E-01  1.66666667E-01  0.00000000E+00
                      -2.50000000E-01  1.66666667E-01  0.00000000E+00
                      -1.66666667E-01  1.66666667E-01  0.00000000E+00
                       2.50000000E-01  2.50000000E-01  0.00000000E+00
                       3.33333333E-01  2.50000000E-01  0.00000000E+00
                       4.16666667E-01  2.50000000E-01  0.00000000E+00
                       5.00000000E-01  2.50000000E-01  0.00000000E+00
                      -4.16666667E-01  2.50000000E-01  0.00000000E+00
                      -3.33333333E-01  2.50000000E-01  0.00000000E+00
                      -2.50000000E-01  2.50000000E-01  0.00000000E+00
                       3.33333333E-01  3.33333333E-01  0.00000000E+00
                       4.16666667E-01  3.33333333E-01  0.00000000E+00
                       5.00000000E-01  3.33333333E-01  0.00000000E+00
                      -4.16666667E-01  3.33333333E-01  0.00000000E+00
                      -3.33333333E-01  3.33333333E-01  0.00000000E+00
                       4.16666667E-01  4.16666667E-01  0.00000000E+00
                       5.00000000E-01  4.16666667E-01  0.00000000E+00
                      -4.16666667E-01  4.16666667E-01  0.00000000E+00
                       5.00000000E-01  5.00000000E-01  0.00000000E+00
                       8.33333333E-02  0.00000000E+00  8.33333333E-02
                       1.66666667E-01  0.00000000E+00  8.33333333E-02
                       2.50000000E-01  0.00000000E+00  8.33333333E-02
                       3.33333333E-01  0.00000000E+00  8.33333333E-02
                       4.16666667E-01  0.00000000E+00  8.33333333E-02
                       5.00000000E-01  0.00000000E+00  8.33333333E-02
                      -4.16666667E-01  0.00000000E+00  8.33333333E-02
                       outvar_i_n : Printing only first  50 k-points.
         kptrlatt       12    0    0      0   12    0      0    0   12
          kptrlen1     1.86625681E+02
          kptrlen2     1.86625686E+02
          kptrlen3     1.86696429E+02
          kptrlen4     1.86696427E+02
          kptrlen5     1.86623870E+02
          kptrlen6     1.86696427E+02
P           mkmem1         32
P           mkmem2         32
P           mkmem3         47
P           mkmem4         47
P           mkmem5         32
P           mkmem6         47
            natom           9
            nband1         42
            nband2         42
            nband3         42
            nband4         42
            nband5         42
            nband6         42
           ndtset           6
            ngfft          60      60      60
          ngfftdg          90      90      90
             nkpt1        189
             nkpt2        189
             nkpt3        280
             nkpt4        280
             nkpt5        189
             nkpt6        280
            nstep        2500
             nsym1          6
             nsym2          6
             nsym3          4
             nsym4          4
             nsym5          6
             nsym6          4
           ntypat           4
              occ1     2.000000  2.000000  2.000000  2.000000  2.000000  2.000000
                       2.000000  2.000000  2.000000  2.000000  2.000000  2.000000
                       2.000000  2.000000  2.000000  2.000000  2.000000  2.000000
                       2.000000  2.000000  2.000000  2.000000  2.000000  2.000000
                       2.000000  2.000000  2.000000  2.000000  2.000000  2.000000
                       2.000000  2.000000  2.000000  2.000000  2.000000  2.000000
                       0.000000  0.000000  0.000000  0.000000  0.000000  0.000000
              occ2     2.000000  2.000000  2.000000  2.000000  2.000000  2.000000
                       2.000000  2.000000  2.000000  2.000000  2.000000  2.000000
                       2.000000  2.000000  2.000000  2.000000  2.000000  2.000000
                       2.000000  2.000000  2.000000  2.000000  2.000000  2.000000
                       2.000000  2.000000  2.000000  2.000000  2.000000  2.000000
                       2.000000  2.000000  2.000000  2.000000  2.000000  2.000000
                       0.000000  0.000000  0.000000  0.000000  0.000000  0.000000
              occ3     2.000000  2.000000  2.000000  2.000000  2.000000  2.000000
                       2.000000  2.000000  2.000000  2.000000  2.000000  2.000000
                       2.000000  2.000000  2.000000  2.000000  2.000000  2.000000
                       2.000000  2.000000  2.000000  2.000000  2.000000  2.000000
                       2.000000  2.000000  2.000000  2.000000  2.000000  2.000000
                       2.000000  2.000000  2.000000  2.000000  2.000000  2.000000
                       0.000000  0.000000  0.000000  0.000000  0.000000  0.000000
              occ4     2.000000  2.000000  2.000000  2.000000  2.000000  2.000000
                       2.000000  2.000000  2.000000  2.000000  2.000000  2.000000
                       2.000000  2.000000  2.000000  2.000000  2.000000  2.000000
                       2.000000  2.000000  2.000000  2.000000  2.000000  2.000000
                       2.000000  2.000000  2.000000  2.000000  2.000000  2.000000
                       2.000000  2.000000  2.000000  2.000000  2.000000  2.000000
                       0.000000  0.000000  0.000000  0.000000  0.000000  0.000000
              occ5     2.000000  2.000000  2.000000  2.000000  2.000000  2.000000
                       2.000000  2.000000  2.000000  2.000000  2.000000  2.000000
                       2.000000  2.000000  2.000000  2.000000  2.000000  2.000000
                       2.000000  2.000000  2.000000  2.000000  2.000000  2.000000
                       2.000000  2.000000  2.000000  2.000000  2.000000  2.000000
                       2.000000  2.000000  2.000000  2.000000  2.000000  2.000000
                       0.000000  0.000000  0.000000  0.000000  0.000000  0.000000
              occ6     2.000000  2.000000  2.000000  2.000000  2.000000  2.000000
                       2.000000  2.000000  2.000000  2.000000  2.000000  2.000000
                       2.000000  2.000000  2.000000  2.000000  2.000000  2.000000
                       2.000000  2.000000  2.000000  2.000000  2.000000  2.000000
                       2.000000  2.000000  2.000000  2.000000  2.000000  2.000000
                       2.000000  2.000000  2.000000  2.000000  2.000000  2.000000
                       0.000000  0.000000  0.000000  0.000000  0.000000  0.000000
        pawecutdg      4.00000000E+01 Hartree
            prtwf           0
            rprim1     7.1388423272E-03  7.0708876279E-01  7.0708876279E-01
                       7.0710678119E-01  0.0000000000E+00  7.0710678119E-01
                       7.0710678119E-01  7.0710678119E-01  0.0000000000E+00
            rprim2     7.1388246383E-03  7.0708876288E-01  7.0708876288E-01
                       7.0710678119E-01  0.0000000000E+00  7.0710678119E-01
                       7.0710678119E-01  7.0710678119E-01  0.0000000000E+00
            rprim3     0.0000000000E+00  7.1489529944E-01  6.9923151447E-01
                       7.1502013505E-01  0.0000000000E+00  6.9910385957E-01
                       7.0723305452E-01  7.0698048530E-01  0.0000000000E+00
            rprim4     0.0000000000E+00  7.0723305084E-01  7.0698048898E-01
                       6.9923151623E-01  0.0000000000E+00  7.1489529772E-01
                       6.9910386505E-01  7.1502012970E-01  0.0000000000E+00
            rprim5     0.0000000000E+00  7.0710678119E-01  7.0710678119E-01
                       7.0710678119E-01  0.0000000000E+00  7.0710678119E-01
                       7.0708870055E-01  7.0708870055E-01  7.1511619161E-03
            rprim6     0.0000000000E+00  7.1502013326E-01  6.9910386140E-01
                       7.1489529790E-01  0.0000000000E+00  6.9923151606E-01
                       7.0698048555E-01  7.0723305427E-01  0.0000000000E+00
          spgroup1        160
          spgroup2        160
          spgroup3         42
          spgroup4         42
          spgroup5        160
          spgroup6         42
           symafm1       1    1    1    1    1    1
           symafm2       1    1    1    1    1    1
           symafm3       1    1    1    1
           symafm4       1    1    1    1
           symafm5       1    1    1    1    1    1
           symafm6       1    1    1    1
           symrel1     1  0  0   0  1  0   0  0  1       1  0 -1   0  1 -1   0  0 -1
                       1  0 -1   0  0 -1   0  1 -1       1 -1  0   0 -1  0   0 -1  1
                       1 -1  0   0 -1  1   0 -1  0       1  0  0   0  0  1   0  1  0
           symrel2     1  0  0   0  1  0   0  0  1       1  0 -1   0  1 -1   0  0 -1
                       1  0 -1   0  0 -1   0  1 -1       1 -1  0   0 -1  0   0 -1  1
                       1 -1  0   0 -1  1   0 -1  0       1  0  0   0  0  1   0  1  0
           symrel3     1  0  0   0  1  0   0  0  1       0 -1  1   0 -1  0   1 -1  0
                       1  0  0   1  0 -1   1 -1  0       0 -1  1  -1  0  1   0  0  1
           symrel4     1  0  0   0  1  0   0  0  1       1  0  0   1  0 -1   1 -1  0
                       0  1 -1   1  0 -1   0  0 -1       0  1 -1   0  1  0  -1  1  0
           symrel5     1  0  0   0  1  0   0  0  1      -1  0  0  -1  1  0  -1  0  1
                       0 -1  0   1 -1  0   0 -1  1       0  1  0   1  0  0   0  0  1
                      -1  1  0  -1  0  0  -1  0  1       1 -1  0   0 -1  0   0 -1  1
           symrel6     1  0  0   0  1  0   0  0  1      -1  0  0  -1  0  1  -1  1  0
                       0  1 -1   0  1  0  -1  1  0       0 -1  1  -1  0  1   0  0  1
            tnons1     0.0000000  0.0000000  0.0000000     0.0000000  0.0000000 -0.0000000
                       0.0000000  0.0000000 -0.0000000     0.0000000 -0.0000000  0.0000000
                       0.0000000 -0.0000000  0.0000000     0.0000000  0.0000000  0.0000000
            tnons2     0.0000000  0.0000000  0.0000000     0.0000000  0.0000000 -0.0000000
                       0.0000000  0.0000000 -0.0000000     0.0000000 -0.0000000  0.0000000
                       0.0000000 -0.0000000  0.0000000     0.0000000  0.0000000  0.0000000
            tnons3     0.0000000  0.0000000  0.0000000     0.0000000 -0.0000000  0.0000000
                       0.0000000 -0.0000000 -0.0000000    -0.0000000 -0.0000000  0.0000000
            tnons4     0.0000000  0.0000000  0.0000000    -0.0000000  0.0000000  0.0000000
                       0.0000000 -0.0000000  0.0000000     0.0000000 -0.0000000  0.0000000
            tnons5     0.0000000  0.0000000  0.0000000     0.0000000  0.0000000  0.0000000
                       0.0000000  0.0000000  0.0000000     0.0000000  0.0000000  0.0000000
                       0.0000000  0.0000000  0.0000000     0.0000000  0.0000000  0.0000000
            tnons6     0.0000000  0.0000000  0.0000000     0.0000000 -0.0000000  0.0000000
                       0.0000000 -0.0000000  0.0000000     0.0000000  0.0000000  0.0000000
           toldfe      1.00000000E-08 Hartree
            typat1     1  1  4  2  4  2  4  2  3
            typat2     1  1  2  4  2  4  2  4  3
            typat3     1  1  4  4  2  4  2  2  3
            typat4     1  1  4  2  4  2  2  4  3
            typat5     1  1  4  2  4  4  2  2  3
            typat6     1  1  4  4  2  2  2  4  3
           useylm           1
              wtk1       0.00058    0.00116    0.00116    0.00116    0.00116    0.00116
                         0.00058    0.00347    0.00347    0.00347    0.00347    0.00347
                         0.00347    0.00347    0.00347    0.00347    0.00347    0.00347
                         0.00347    0.00347    0.00347    0.00347    0.00347    0.00347
                         0.00347    0.00347    0.00347    0.00347    0.00347    0.00347
                         0.00347    0.00347    0.00347    0.00347    0.00347    0.00347
                         0.00347    0.00347    0.00347    0.00347    0.00347    0.00347
                         0.00347    0.00347    0.00347    0.00347    0.00347    0.00347
                         0.00347    0.00347
              wtk2       0.00058    0.00116    0.00116    0.00116    0.00116    0.00116
                         0.00058    0.00347    0.00347    0.00347    0.00347    0.00347
                         0.00347    0.00347    0.00347    0.00347    0.00347    0.00347
                         0.00347    0.00347    0.00347    0.00347    0.00347    0.00347
                         0.00347    0.00347    0.00347    0.00347    0.00347    0.00347
                         0.00347    0.00347    0.00347    0.00347    0.00347    0.00347
                         0.00347    0.00347    0.00347    0.00347    0.00347    0.00347
                         0.00347    0.00347    0.00347    0.00347    0.00347    0.00347
                         0.00347    0.00347
              wtk3       0.00058    0.00463    0.00463    0.00463    0.00463    0.00463
                         0.00231    0.00116    0.00463    0.00463    0.00463    0.00463
                         0.00463    0.00463    0.00463    0.00463    0.00463    0.00231
                         0.00116    0.00463    0.00463    0.00463    0.00463    0.00463
                         0.00463    0.00463    0.00231    0.00116    0.00463    0.00463
                         0.00463    0.00463    0.00463    0.00231    0.00116    0.00463
                         0.00463    0.00463    0.00231    0.00116    0.00463    0.00231
                         0.00058    0.00116    0.00463    0.00463    0.00463    0.00463
                         0.00463    0.00463
              wtk4       0.00058    0.00463    0.00463    0.00463    0.00463    0.00463
                         0.00231    0.00116    0.00463    0.00463    0.00463    0.00463
                         0.00463    0.00463    0.00463    0.00463    0.00463    0.00231
                         0.00116    0.00463    0.00463    0.00463    0.00463    0.00463
                         0.00463    0.00463    0.00231    0.00116    0.00463    0.00463
                         0.00463    0.00463    0.00463    0.00231    0.00116    0.00463
                         0.00463    0.00463    0.00231    0.00116    0.00463    0.00231
                         0.00058    0.00116    0.00463    0.00463    0.00463    0.00463
                         0.00463    0.00463
              wtk5       0.00058    0.00347    0.00347    0.00347    0.00347    0.00347
                         0.00174    0.00347    0.00694    0.00694    0.00694    0.00694
                         0.00694    0.00694    0.00694    0.00694    0.00694    0.00347
                         0.00347    0.00694    0.00694    0.00694    0.00694    0.00694
                         0.00694    0.00694    0.00347    0.00347    0.00694    0.00694
                         0.00694    0.00694    0.00694    0.00347    0.00347    0.00694
                         0.00694    0.00694    0.00347    0.00347    0.00694    0.00347
                         0.00174    0.00116    0.00347    0.00347    0.00347    0.00347
                         0.00347    0.00347
              wtk6       0.00058    0.00463    0.00463    0.00463    0.00463    0.00463
                         0.00231    0.00116    0.00463    0.00463    0.00463    0.00463
                         0.00463    0.00463    0.00463    0.00463    0.00463    0.00231
                         0.00116    0.00463    0.00463    0.00463    0.00463    0.00463
                         0.00463    0.00463    0.00231    0.00116    0.00463    0.00463
                         0.00463    0.00463    0.00463    0.00231    0.00116    0.00463
                         0.00463    0.00463    0.00231    0.00116    0.00463    0.00231
                         0.00058    0.00116    0.00463    0.00463    0.00463    0.00463
                         0.00463    0.00463
                       outvars : Printing only first  50 k-points.
           xangst1     2.9461419600E+00  2.9318355885E+00  2.9318355885E+00
                       8.8384499108E+00  8.7954827348E+00  8.7954827348E+00
                       5.8603850552E+00  5.8955700419E+00  2.6861197060E+00
                       5.9201090209E+00  5.8358460761E+00  8.8521947870E+00
                       9.0698353911E+00  5.8955700419E+00  5.8955700419E+00
                       5.9201090209E+00  8.8521947870E+00  5.8358460761E+00
                       5.8603850552E+00  2.6861197060E+00  5.8955700419E+00
                       2.9037603100E+00  5.8358460761E+00  5.8358460761E+00
                      -6.0349269521E-02  6.0349269516E-02  6.0349269516E-02
           xangst2     2.9762571442E+00  2.9017203943E+00  2.9017203943E+00
                       8.8685646057E+00  8.7653680097E+00  8.7653680097E+00
                       5.8945975164E+00  5.8613575605E+00  2.8450088726E+00
                       5.9543212966E+00  5.8016337803E+00  9.0110840720E+00
                       8.9109462044E+00  5.8613575605E+00  5.8613575605E+00
                       5.9543212966E+00  9.0110840720E+00  5.8016337803E+00
                       5.8945975164E+00  2.8450088726E+00  5.8613575605E+00
                       2.7448710050E+00  5.8016337803E+00  5.8016337803E+00
                       6.0349211409E-02 -6.0349211409E-02 -6.0349211409E-02
           xangst3     2.9439028005E+00  2.9304130809E+00  2.8783718235E+00
                       8.8317084014E+00  8.8161160107E+00  8.6351154706E+00
                       5.8878056010E+00  5.8597719371E+00  2.6284081369E+00
                       5.8878056010E+00  5.8597719370E+00  8.8850791573E+00
                       8.8747466528E+00  5.8780409281E+00  5.7567436471E+00
                       5.8878056010E+00  9.0792220358E+00  5.7567436471E+00
                       5.8878056010E+00  2.8467529016E+00  5.7567436471E+00
                       2.9008645491E+00  5.8780409281E+00  5.7567436471E+00
                      -1.9406718570E-14 -6.2506320235E-02  5.2331347093E-13
           xangst4     2.8783717993E+00  2.9439027306E+00  2.9552897905E+00
                       8.6351153980E+00  8.8317081919E+00  8.8409926420E+00
                       5.7567435987E+00  5.8878054612E+00  2.6921838225E+00
                       5.7567435986E+00  5.8878054614E+00  8.9246528515E+00
                       8.8850790462E+00  5.8878054612E+00  5.9116338175E+00
                       5.7567435987E+00  8.8747463856E+00  5.8933648680E+00
                       5.7567435986E+00  2.9008645370E+00  5.8933648678E+00
                       2.6284081511E+00  5.8878054614E+00  5.9116338177E+00
                      -2.0731324034E-13  1.2878848959E-12  6.2506334867E-02
           xangst5     2.9022944148E+00  2.9022944148E+00  2.9757269669E+00
                       8.7653754960E+00  8.7653754960E+00  8.8686886490E+00
                       5.8014708302E+00  5.8014708302E+00  2.7450480784E+00
                       5.8613209687E+00  5.8613209687E+00  8.9111091050E+00
                       9.0109946850E+00  5.8014708302E+00  5.9545719331E+00
                       5.8014708302E+00  9.0109946850E+00  5.9545719331E+00
                       5.8613209687E+00  2.8449336583E+00  5.8947217947E+00
                       2.8449336583E+00  5.8613209687E+00  5.8947217947E+00
                      -6.0420133097E-02 -6.0420133097E-02  6.0420133101E-02
           xangst6     2.9552897817E+00  2.9439027504E+00  2.8783717893E+00
                       8.8409926156E+00  8.8317082511E+00  8.6351153680E+00
                       5.9116338004E+00  5.8878055008E+00  2.6284081490E+00
                       5.9116338003E+00  5.8878055007E+00  8.8850790084E+00
                       8.9246528149E+00  5.8878055008E+00  5.7567435787E+00
                       5.8933648507E+00  8.8747464636E+00  5.7567435786E+00
                       5.8933648507E+00  2.9008645379E+00  5.7567435787E+00
                       2.6921838218E+00  5.8878055007E+00  5.7567435786E+00
                       6.2506335520E-02  6.3873578470E-13  6.7767406160E-13
            xcart1     5.5674014531E+00  5.5403663289E+00  5.5403663289E+00
                       1.6702249771E+01  1.6621053575E+01  1.6621053575E+01
                       1.1074522788E+01  1.1141012776E+01  5.0760306045E+00
                       1.1187384726E+01  1.1028150838E+01  1.6728223822E+01
                       1.7139504960E+01  1.1141012776E+01  1.1141012776E+01
                       1.1187384726E+01  1.6728223822E+01  1.1028150838E+01
                       1.1074522788E+01  5.0760306045E+00  1.1141012776E+01
                       5.4873117415E+00  1.1028150838E+01  1.1028150838E+01
                      -1.1404359171E-01  1.1404359171E-01  1.1404359171E-01
            xcart2     5.6243109036E+00  5.4834568594E+00  5.4834568594E+00
                       1.6759158297E+01  1.6564144992E+01  1.6564144992E+01
                       1.1139174970E+01  1.1076360556E+01  5.3762876148E+00
                       1.1252036558E+01  1.0963498968E+01  1.7028481056E+01
                       1.6839247911E+01  1.1076360556E+01  1.1076360556E+01
                       1.1252036558E+01  1.7028481056E+01  1.0963498968E+01
                       1.1139174970E+01  5.3762876148E+00  1.1076360556E+01
                       5.1870544695E+00  1.0963498968E+01  1.0963498968E+01
                       1.1404348190E-01 -1.1404348190E-01 -1.1404348190E-01
            xcart3     5.5631700547E+00  5.5376781791E+00  5.4393344551E+00
                       1.6689510164E+01  1.6660044816E+01  1.6318003365E+01
                       1.1126340109E+01  1.1073364162E+01  4.9669715442E+00
                       1.1126340109E+01  1.1073364162E+01  1.6790366276E+01
                       1.6770840673E+01  1.1107887552E+01  1.0878668910E+01
                       1.1126340109E+01  1.7157243147E+01  1.0878668910E+01
                       1.1126340109E+01  5.3795833519E+00  1.0878668910E+01
                       5.4818395464E+00  1.1107887552E+01  1.0878668910E+01
                      -3.6673383235E-14 -1.1811982682E-01  9.8891914171E-13
            xcart4     5.4393344093E+00  5.5631699228E+00  5.5846883473E+00
                       1.6318003228E+01  1.6689509768E+01  1.6707054836E+01
                       1.0878668819E+01  1.1126339845E+01  5.0874901238E+00
                       1.0878668819E+01  1.1126339846E+01  1.6865149720E+01
                       1.6790366066E+01  1.1126339845E+01  1.1171368913E+01
                       1.0878668819E+01  1.6770840168E+01  1.1136845602E+01
                       1.0878668819E+01  5.4818395236E+00  1.1136845601E+01
                       4.9669715711E+00  1.1126339846E+01  1.1171368913E+01
                      -3.9176524797E-13  2.4337497440E-12  1.1811985447E-01
            xcart5     5.4845416009E+00  5.4845416009E+00  5.6233090137E+00
                       1.6564159139E+01  1.6564159139E+01  1.6759392704E+01
                       1.0963191037E+01  1.0963191037E+01  5.1873890897E+00
                       1.1076291408E+01  1.1076291408E+01  1.6839555749E+01
                       1.7028312139E+01  1.0963191037E+01  1.1252510192E+01
                       1.0963191037E+01  1.7028312139E+01  1.1252510192E+01
                       1.1076291408E+01  5.3761454805E+00  1.1139409822E+01
                       5.3761454805E+00  1.1076291408E+01  1.1139409822E+01
                      -1.1417750447E-01 -1.1417750447E-01  1.1417750447E-01
            xcart6     5.5846883307E+00  5.5631699601E+00  5.4393343905E+00
                       1.6707054786E+01  1.6689509880E+01  1.6318003171E+01
                       1.1171368881E+01  1.1126339920E+01  4.9669715670E+00
                       1.1171368881E+01  1.1126339920E+01  1.6790365995E+01
                       1.6865149651E+01  1.1126339920E+01  1.0878668781E+01
                       1.1136845569E+01  1.6770840315E+01  1.0878668781E+01
                       1.1136845569E+01  5.4818395253E+00  1.0878668781E+01
                       5.0874901227E+00  1.1126339920E+01  1.0878668781E+01
                       1.1811985570E-01  1.2070357044E-12  1.2806183838E-12
             xred1     2.5195204358E-01  2.4934931881E-01  2.4934931881E-01
                       7.5584990502E-01  7.4805003166E-01  7.4805003166E-01
                       2.3500648239E-01  2.2432271221E-01  7.7033540270E-01
                       7.5718122472E-01  7.5638024414E-01  2.4321926557E-01
                       2.3500648239E-01  7.7033540270E-01  7.7033540270E-01
                       7.5718122472E-01  2.4321926557E-01  7.5638024414E-01
                       2.3500648239E-01  7.7033540270E-01  2.2432271221E-01
                       7.5718122472E-01  2.4321926557E-01  2.4321926557E-01
                       1.5634930093E-02 -5.2116433644E-03 -5.2116433644E-03
             xred2     2.4414997020E-01  2.5195000993E-01  2.5195000993E-01
                       7.4804793695E-01  7.5065068768E-01  7.5065068768E-01
                       2.4281878490E-01  2.4361975466E-01  7.5678073022E-01
                       7.6499355088E-01  7.7567727231E-01  2.2966458841E-01
                       2.4281878490E-01  7.5678073022E-01  7.5678073022E-01
                       7.6499355088E-01  2.2966458841E-01  7.7567727231E-01
                       2.4281878490E-01  7.5678073022E-01  2.4361975466E-01
                       7.6499355088E-01  2.2966458841E-01  2.2966458841E-01
                      -1.5634914481E-02  5.2116381603E-03  5.2116381603E-03
             xred3     2.4894333912E-01  2.5105666088E-01  2.4894333912E-01
                       7.4894333912E-01  7.5105666088E-01  7.4894333912E-01
                       2.2608660966E-01  2.3049236937E-01  7.6950763063E-01
                       7.6950763063E-01  7.7391339034E-01  2.2608660966E-01
                       2.4569423705E-01  7.5430576295E-01  7.5300396402E-01
                       7.7129462224E-01  2.2870537776E-01  7.7129462224E-01
                       2.4183627134E-01  7.5816372866E-01  2.4183627134E-01
                       7.5300396402E-01  2.4699603598E-01  2.4569423705E-01
                      -5.3100131777E-03  5.3100131777E-03 -5.3100131777E-03
             xred4     2.5105665925E-01  2.5105665925E-01  2.4894334075E-01
                       7.5105665925E-01  7.5105665925E-01  7.4894334075E-01
                       2.2870538068E-01  2.2870538068E-01  7.7129461932E-01
                       7.5816372969E-01  7.5816372969E-01  2.4183627031E-01
                       2.3049237028E-01  7.7391338494E-01  7.6950762972E-01
                       7.5430575938E-01  2.4699604205E-01  7.5300395795E-01
                       2.4699604205E-01  7.5430575938E-01  2.4569424062E-01
                       7.7391338494E-01  2.3049237028E-01  2.2608661506E-01
                       5.3100144914E-03  5.3100144914E-03 -5.3100144914E-03
             xred5     2.5190018738E-01  2.5190018738E-01  2.4429943787E-01
                       7.5064919345E-01  7.5064919345E-01  7.4805241966E-01
                       2.2967151419E-01  2.2967151419E-01  7.6496433122E-01
                       7.5678693641E-01  7.5678693641E-01  2.4280290939E-01
                       2.2967151419E-01  7.7569264040E-01  7.6496433122E-01
                       7.7569264040E-01  2.2967151419E-01  7.6496433122E-01
                       2.4362321779E-01  7.5678693641E-01  2.4280290939E-01
                       7.5678693641E-01  2.4362321779E-01  2.4280290939E-01
                       5.2178597858E-03  5.2178597858E-03 -1.5653579357E-02
             xred6     2.4894334075E-01  2.5105665925E-01  2.5105665925E-01
                       7.4894334075E-01  7.5105665925E-01  7.5105665925E-01
                       2.2608661563E-01  2.3049237092E-01  7.7391338437E-01
                       7.6950762908E-01  7.7391338437E-01  2.3049237092E-01
                       2.4183627116E-01  7.5816372884E-01  7.5816372884E-01
                       7.5300395949E-01  2.4699604051E-01  7.5430576099E-01
                       2.4569423901E-01  7.5430576099E-01  2.4699604051E-01
                       7.7129461869E-01  2.2870538131E-01  2.2870538131E-01
                      -5.3100145627E-03  5.3100145627E-03  5.3100145627E-03
            znucl       55.00000   53.00000   40.00000   35.00000

================================================================================

 chkinp: Checking input parameters for consistency, jdtset=   1.

 chkinp: Checking input parameters for consistency, jdtset=   2.

 chkinp: Checking input parameters for consistency, jdtset=   3.

 chkinp: Checking input parameters for consistency, jdtset=   4.

 chkinp: Checking input parameters for consistency, jdtset=   5.

 chkinp: Checking input parameters for consistency, jdtset=   6.

================================================================================
== DATASET  1 ==================================================================
-   mpi_nproc: 6, omp_nthreads: -1 (-1 if OMP is not activated)


--- !DatasetInfo
iteration_state: {dtset: 1, }
dimensions: {natom: 9, nkpt: 189, mband: 42, nsppol: 1, nspinor: 1, nspden: 1, mpw: 8278, }
cutoff_energies: {ecut:  16.0, pawecutdg:  40.0, }
electrons: {nelect:   7.20000000E+01, charge:   0.00000000E+00, occopt:   1.00000000E+00, tsmear:   1.00000000E-02, }
meta: {optdriver: 0, ionmov: 0, optcell: 0, iscf: 17, paral_kgb: 0, }
...

 Real(R)+Recip(G) space primitive vectors, cartesian coordinates (Bohr,Bohr^-1):
 R(1)=  0.1110243 10.9967435 10.9967435  G(1)= -0.0456987  0.0456987  0.0456987
 R(2)= 11.1077678  0.0000000 11.1077678  G(2)=  0.0452419 -0.0452419  0.0447852
 R(3)= 11.1077678 11.1077678  0.0000000  G(3)=  0.0452419  0.0447852 -0.0452419
 Unit cell volume ucvol=  2.6999131E+03 bohr^3
 Angles (23,13,12)=  6.00000000E+01  5.96663121E+01  5.96663121E+01 degrees

 Coarse grid specifications (used for wave-functions):

 getcut: wavevector=  0.0000  0.0000  0.0000  ngfft=  60  60  60
         ecut(hartree)=     16.000   => boxcut(ratio)=   2.12121

 Fine grid specifications (used for densities):

 getcut: wavevector=  0.0000  0.0000  0.0000  ngfft=  90  90  90
         ecut(hartree)=     40.000   => boxcut(ratio)=   2.01261

--- Pseudopotential description ------------------------------------------------
- pspini: atom type   1  psp file is ../../../Psps_for_tests/ATOMICDATA/Cs.GGA_PBE-JTH.xml
- pspatm: opening atomic psp file    ../../../Psps_for_tests/ATOMICDATA/Cs.GGA_PBE-JTH.xml
- pspatm : Reading pseudopotential header in XML form from ../../../Psps_for_tests/ATOMICDATA/Cs.GGA_PBE-JTH.xml
 Pseudopotential format is: paw10
 basis_size (lnmax)=  6 (lmn_size= 18), orbitals=   0   0   1   1   2   2
 Spheres core radius: rc_sph= 2.20660278
 1 radial meshes are used:
  - mesh 1: r(i)=AA*[exp(BB*(i-1))-1], size=1500 , AA= 0.15922E-03 BB= 0.87573E-02
 Shapefunction is SIN type: shapef(r)=[sin(pi*r/rshp)/(pi*r/rshp)]**2
 Radius for shape functions =  2.00394208
 mmax= 1500
 Radial grid used for partial waves is grid 1
 Radial grid used for projectors is grid 1
 Radial grid used for (t)core density is grid 1
 Radial grid used for Vloc is grid 1
 Radial grid used for pseudo valence density is grid 1
 Mesh size for Vloc has been set to 1341 to avoid numerical noise.
 Compensation charge density is not taken into account in XC energy/potential
 pspatm: atomic psp has been read  and splines computed

- pspini: atom type   2  psp file is ../../../Psps_for_tests/ATOMICDATA/I.GGA_PBE-JTH.xml
- pspatm: opening atomic psp file    ../../../Psps_for_tests/ATOMICDATA/I.GGA_PBE-JTH.xml
- pspatm : Reading pseudopotential header in XML form from ../../../Psps_for_tests/ATOMICDATA/I.GGA_PBE-JTH.xml
 Pseudopotential format is: paw10
 basis_size (lnmax)=  4 (lmn_size=  8), orbitals=   0   0   1   1
 Spheres core radius: rc_sph= 2.30022271
 1 radial meshes are used:
  - mesh 1: r(i)=AA*[exp(BB*(i-1))-1], size=2000 , AA= 0.12610E-03 BB= 0.66836E-02
 Shapefunction is SIN type: shapef(r)=[sin(pi*r/rshp)/(pi*r/rshp)]**2
 Radius for shape functions =  2.10879093
 mmax= 2000
 Radial grid used for partial waves is grid 1
 Radial grid used for projectors is grid 1
 Radial grid used for (t)core density is grid 1
 Radial grid used for Vloc is grid 1
 Radial grid used for pseudo valence density is grid 1
 Mesh size for Vloc has been set to 1792 to avoid numerical noise.
 Compensation charge density is not taken into account in XC energy/potential
 pspatm: atomic psp has been read  and splines computed

- pspini: atom type   3  psp file is ../../../Psps_for_tests/ATOMICDATA/Zr.GGA_PBE-JTH.xml
- pspatm: opening atomic psp file    ../../../Psps_for_tests/ATOMICDATA/Zr.GGA_PBE-JTH.xml
- pspatm : Reading pseudopotential header in XML form from ../../../Psps_for_tests/ATOMICDATA/Zr.GGA_PBE-JTH.xml
 Pseudopotential format is: paw10
 basis_size (lnmax)=  6 (lmn_size= 18), orbitals=   0   0   1   1   2   2
 Spheres core radius: rc_sph= 2.21000000
 1 radial meshes are used:
  - mesh 1: r(i)=AA*[exp(BB*(i-1))-1], size= 941 , AA= 0.35256E-03 BB= 0.14102E-01
 Shapefunction is BESSEL type: shapef(r,l)=aa(1,l)*jl(q(1,l)*r)+aa(2,l)*jl(q(2,l)*r)
 Radius for shape functions =  2.21000000
 mmax=  941
 Radial grid used for partial waves is grid 1
 Radial grid used for projectors is grid 1
 Radial grid used for (t)core density is grid 1
 Radial grid used for Vloc is grid 1
 Radial grid used for pseudo valence density is grid 1
 Mesh size for Vloc has been set to  777 to avoid numerical noise.
 Compensation charge density is not taken into account in XC energy/potential
 pspatm: atomic psp has been read  and splines computed

- pspini: atom type   4  psp file is ../../../Psps_for_tests/ATOMICDATA/Br.GGA_PBE-JTH.xml
- pspatm: opening atomic psp file    ../../../Psps_for_tests/ATOMICDATA/Br.GGA_PBE-JTH.xml
- pspatm : Reading pseudopotential header in XML form from ../../../Psps_for_tests/ATOMICDATA/Br.GGA_PBE-JTH.xml
 Pseudopotential format is: paw10
 basis_size (lnmax)=  4 (lmn_size=  8), orbitals=   0   0   1   1
 Spheres core radius: rc_sph= 2.20000000
 1 radial meshes are used:
  - mesh 1: r(i)=AA*[exp(BB*(i-1))-1], size= 927 , AA= 0.40483E-03 BB= 0.14169E-01
 Shapefunction is BESSEL type: shapef(r,l)=aa(1,l)*jl(q(1,l)*r)+aa(2,l)*jl(q(2,l)*r)
 Radius for shape functions =  2.02066386
 mmax=  927
 Radial grid used for partial waves is grid 1
 Radial grid used for projectors is grid 1
 Radial grid used for (t)core density is grid 1
 Radial grid used for Vloc is grid 1
 Radial grid used for pseudo valence density is grid 1
 Mesh size for Vloc has been set to  763 to avoid numerical noise.
 Compensation charge density is not taken into account in XC energy/potential
 pspatm: atomic psp has been read  and splines computed

   3.31466423E+04                                ecore*ucvol(ha*bohr**3)
--------------------------------------------------------------------------------

_setup2: Arith. and geom. avg. npw (full set) are    8252.863    8252.852

================================================================================

--- !BeginCycle
iteration_state: {dtset: 1, }
solver: {iscf: 17, nstep: 2500, nline: 4, wfoptalg: 10, }
tolerances: {toldfe: 1.00E-08, }
...

     iter   Etot(hartree)      deltaE(h)  residm     nres2
 ETOT  1  -164.53721578442    -1.645E+02 1.827E-01 1.506E+01
 ETOT  2  -164.70567051446    -1.685E-01 1.654E-02 3.625E+00
 ETOT  3  -164.70168945740     3.981E-03 8.968E-03 7.367E-01
 ETOT  4  -164.70228546258    -5.960E-04 5.492E-03 6.144E-02
 ETOT  5  -164.70194833398     3.371E-04 1.398E-03 7.294E-03
 ETOT  6  -164.70200505104    -5.672E-05 1.492E-03 8.924E-04
 ETOT  7  -164.70200531574    -2.647E-07 6.343E-04 2.829E-04
 ETOT  8  -164.70200725471    -1.939E-06 7.623E-04 4.135E-05
 ETOT  9  -164.70200718512     6.959E-08 4.830E-04 1.490E-05
 ETOT 10  -164.70200720037    -1.526E-08 5.158E-04 1.251E-06
 ETOT 11  -164.70200721287    -1.250E-08 2.434E-04 8.728E-07
 ETOT 12  -164.70200721173     1.139E-09 1.967E-04 1.152E-07
 ETOT 13  -164.70200721286    -1.125E-09 9.066E-05 8.308E-08

 At SCF step   13, etot is converged : 
  for the second time, diff in etot=  1.125E-09 < toldfe=  1.000E-08

 Cartesian components of stress tensor (hartree/bohr^3)
  sigma(1 1)=  2.90486770E-06  sigma(3 2)=  1.00829152E-08
  sigma(2 2)=  2.90486787E-06  sigma(3 1)= -1.00828286E-08
  sigma(3 3)=  2.90486787E-06  sigma(2 1)= -1.00828286E-08


--- !ResultsGS
iteration_state: {dtset: 1, }
comment   : Summary of ground state results
lattice_vectors:
- [  0.1110243,  10.9967435,  10.9967435, ]
- [ 11.1077678,   0.0000000,  11.1077678, ]
- [ 11.1077678,  11.1077678,   0.0000000, ]
lattice_lengths: [  15.55214,   15.70876,   15.70876, ]
lattice_angles: [ 60.000,  59.666,  59.666, ] # degrees, (23, 13, 12)
lattice_volume:   2.6999131E+03
convergence: {deltae: -1.125E-09, res2:  8.308E-08, residm:  9.066E-05, diffor: null, }
etotal    :  -1.64702007E+02
entropy   :   0.00000000E+00
fermie    :  -7.99189362E-02
cartesian_stress_tensor: # hartree/bohr^3
- [  2.90486770E-06,  -1.00828286E-08,  -1.00828286E-08, ]
- [ -1.00828286E-08,   2.90486787E-06,   1.00829152E-08, ]
- [ -1.00828286E-08,   1.00829152E-08,   2.90486787E-06, ]
pressure_GPa:  -8.5464E-02
xred      :
- [  2.5195E-01,   2.4935E-01,   2.4935E-01, Cs]
- [  7.5585E-01,   7.4805E-01,   7.4805E-01, Cs]
- [  2.3501E-01,   2.2432E-01,   7.7034E-01, Br]
- [  7.5718E-01,   7.5638E-01,   2.4322E-01,  I]
- [  2.3501E-01,   7.7034E-01,   7.7034E-01, Br]
- [  7.5718E-01,   2.4322E-01,   7.5638E-01,  I]
- [  2.3501E-01,   7.7034E-01,   2.2432E-01, Br]
- [  7.5718E-01,   2.4322E-01,   2.4322E-01,  I]
- [  1.5635E-02,  -5.2116E-03,  -5.2116E-03, Zr]
cartesian_forces: # hartree/bohr
- [ -5.29482565E-06,   5.29482565E-06,   5.29482565E-06, ]
- [  2.41933613E-06,  -2.41933613E-06,  -2.41933613E-06, ]
- [ -1.15624663E-06,   1.15624663E-06,  -9.97450423E-06, ]
- [ -1.52360817E-06,   1.52360817E-06,   3.85415506E-06, ]
- [  9.97450423E-06,   1.15624663E-06,   1.15624663E-06, ]
- [ -1.52360817E-06,   3.85415506E-06,   1.52360817E-06, ]
- [ -1.15624663E-06,  -9.97450423E-06,   1.15624663E-06, ]
- [ -3.85415506E-06,   1.52360817E-06,   1.52360817E-06, ]
- [  2.11484996E-06,  -2.11484996E-06,  -2.11484996E-06, ]
force_length_stats: {min:   3.66302758E-06, max:   1.01076480E-05, mean:   6.73266747E-06, }
...

 Integrated electronic density in atomic spheres:
 ------------------------------------------------
 Atom  Sphere_radius  Integrated_density
    1        2.20660          5.34663259
    2        2.20660          5.36479893
    3        2.20000          4.93059208
    4        2.30022          4.01199667
    5        2.20000          4.93059208
    6        2.30022          4.01199667
    7        2.20000          4.93059208
    8        2.30022          4.01199667
    9        2.21000          8.80504565

 PAW TEST:
 ==== Compensation charge inside spheres ============
 The following values must be close to each other ...
 Compensation charge over spherical meshes =     -5.037142303455205
 Compensation charge over fine fft grid    =     -5.037144605593186

 ==== Results concerning PAW augmentation regions ====

 Total pseudopotential strength Dij (hartree):
 Atom #  1
   0.43845  -0.14520  -0.00000  -0.00000   0.00000   0.00000   0.00000  -0.00000   0.00000  -0.00000   0.00000   0.00000 ...
  -0.14520   0.04374   0.00000   0.00000  -0.00000  -0.00000  -0.00000   0.00000  -0.00000   0.00000   0.00000  -0.00000 ...
  -0.00000   0.00000  -0.09337  -0.00000   0.00000  -0.16667   0.00000  -0.00000   0.00000  -0.00000   0.00000   0.00000 ...
  -0.00000   0.00000  -0.00000  -0.09337   0.00000   0.00000  -0.16667  -0.00000   0.00000  -0.00000  -0.00000   0.00000 ...
   0.00000  -0.00000   0.00000   0.00000  -0.09337  -0.00000  -0.00000  -0.16667  -0.00000   0.00000  -0.00000  -0.00000 ...
   0.00000  -0.00000  -0.16667   0.00000  -0.00000   0.40343  -0.00001   0.00001  -0.00000   0.00000  -0.00000   0.00000 ...
   0.00000  -0.00000   0.00000  -0.16667  -0.00000  -0.00001   0.40343   0.00001   0.00000   0.00000   0.00000  -0.00000 ...
  -0.00000   0.00000  -0.00000  -0.00000  -0.16667   0.00001   0.00001   0.40343   0.00000   0.00000   0.00000   0.00000 ...
   0.00000  -0.00000   0.00000   0.00000  -0.00000  -0.00000   0.00000   0.00000   0.00525   0.00000  -0.00000  -0.00000 ...
  -0.00000   0.00000  -0.00000  -0.00000   0.00000   0.00000   0.00000   0.00000   0.00000   0.00525  -0.00000   0.00000 ...
   0.00000   0.00000   0.00000  -0.00000  -0.00000  -0.00000   0.00000   0.00000  -0.00000  -0.00000   0.00525   0.00000 ...
   0.00000  -0.00000   0.00000   0.00000  -0.00000   0.00000  -0.00000   0.00000  -0.00000   0.00000   0.00000   0.00525 ...
   ...  only 12  components have been written...
 Atom #  9
   3.08188  -0.89766  -0.00000  -0.00000   0.00000  -0.00000  -0.00000   0.00000  -0.00000   0.00000   0.00000  -0.00000 ...
  -0.89766   0.26827   0.00001   0.00001  -0.00001  -0.00000  -0.00000   0.00000   0.00000  -0.00000   0.00000   0.00000 ...
  -0.00000   0.00001   0.26739  -0.00000   0.00000  -0.05431  -0.00000   0.00000  -0.00006   0.00006  -0.00003   0.00000 ...
  -0.00000   0.00001  -0.00000   0.26739   0.00000  -0.00000  -0.05431   0.00000   0.00000   0.00006   0.00007  -0.00006 ...
   0.00000  -0.00001   0.00000   0.00000   0.26739   0.00000   0.00000  -0.05431   0.00006   0.00000   0.00003   0.00006 ...
  -0.00000  -0.00000  -0.05431  -0.00000   0.00000   0.01491   0.00000  -0.00000   0.00001  -0.00001   0.00000  -0.00000 ...
  -0.00000  -0.00000  -0.00000  -0.05431   0.00000   0.00000   0.01491  -0.00000  -0.00000  -0.00001  -0.00001   0.00001 ...
   0.00000   0.00000   0.00000   0.00000  -0.05431  -0.00000  -0.00000   0.01491  -0.00001  -0.00000  -0.00000  -0.00001 ...
  -0.00000   0.00000  -0.00006   0.00000   0.00006   0.00001  -0.00000  -0.00001  -0.01609  -0.00000   0.00000   0.00000 ...
   0.00000  -0.00000   0.00006   0.00006   0.00000  -0.00001  -0.00001  -0.00000  -0.00000  -0.01609   0.00000  -0.00000 ...
   0.00000   0.00000  -0.00003   0.00007   0.00003   0.00000  -0.00001  -0.00000   0.00000   0.00000  -0.01599  -0.00000 ...
  -0.00000   0.00000   0.00000  -0.00006   0.00006  -0.00000   0.00001  -0.00001   0.00000  -0.00000  -0.00000  -0.01609 ...
   ...  only 12  components have been written...


 Augmentation waves occupancies Rhoij:
 Atom #  1
   1.99687  -0.01665  -0.00001  -0.00001   0.00001  -0.00000  -0.00000   0.00000   0.00248  -0.00248   0.00000   0.00248 ...
  -0.01665   0.11738  -0.00020  -0.00020   0.00020   0.00001   0.00001  -0.00001  -0.01333   0.01333   0.00000  -0.01333 ...
  -0.00001  -0.00020   2.00868   0.00157  -0.00157  -0.00498  -0.00024   0.00024  -0.00019   0.00019   0.00044   0.00064 ...
  -0.00001  -0.00020   0.00157   2.00868  -0.00157  -0.00024  -0.00498   0.00024   0.00064   0.00019  -0.00088  -0.00019 ...
   0.00001   0.00020  -0.00157  -0.00157   2.00868   0.00024   0.00024  -0.00498   0.00019   0.00064  -0.00044   0.00019 ...
  -0.00000   0.00001  -0.00498  -0.00024   0.00024   0.00008   0.00001  -0.00001   0.00001  -0.00001  -0.00002  -0.00003 ...
  -0.00000   0.00001  -0.00024  -0.00498   0.00024   0.00001   0.00008  -0.00001  -0.00003  -0.00001   0.00003   0.00001 ...
   0.00000  -0.00001   0.00024   0.00024  -0.00498  -0.00001  -0.00001   0.00008  -0.00001  -0.00003   0.00002  -0.00001 ...
   0.00248  -0.01333  -0.00019   0.00064   0.00019   0.00001  -0.00003  -0.00001   0.03498   0.00077   0.00905  -0.00077 ...
  -0.00248   0.01333   0.00019   0.00019   0.00064  -0.00001  -0.00001  -0.00003   0.00077   0.03498   0.00452   0.00077 ...
   0.00000   0.00000   0.00044  -0.00088  -0.00044  -0.00002   0.00003   0.00002   0.00905   0.00452   0.02239  -0.00452 ...
   0.00248  -0.01333   0.00064  -0.00019   0.00019  -0.00003   0.00001  -0.00001  -0.00077   0.00077  -0.00452   0.03498 ...
   ...  only 12  components have been written...
 Atom #  9
   1.99251  -0.06673  -0.00024  -0.00024   0.00024  -0.00102  -0.00102   0.00102  -0.00016   0.00016   0.00000  -0.00016 ...
  -0.06673   1.04682  -0.00266  -0.00266   0.00266   0.03775   0.03775  -0.03775   0.00198  -0.00198   0.00000   0.00198 ...
  -0.00024  -0.00266   1.96635   0.00002  -0.00002  -0.20260   0.00011  -0.00011  -0.00118   0.00118   0.00016  -0.00001 ...
  -0.00024  -0.00266   0.00002   1.96635  -0.00002   0.00011  -0.20260  -0.00011  -0.00001   0.00118  -0.00031  -0.00118 ...
   0.00024   0.00266  -0.00002  -0.00002   1.96635  -0.00011  -0.00011  -0.20260   0.00118  -0.00001  -0.00016   0.00118 ...
  -0.00102   0.03775  -0.20260   0.00011  -0.00011   1.54775  -0.00585   0.00585   0.02169  -0.02169  -0.05358  -0.00029 ...
  -0.00102   0.03775   0.00011  -0.20260  -0.00011  -0.00585   1.54775   0.00585  -0.00029  -0.02169   0.10717   0.02169 ...
   0.00102  -0.03775  -0.00011  -0.00011  -0.20260   0.00585   0.00585   1.54775  -0.02169  -0.00029   0.05358  -0.02169 ...
  -0.00016   0.00198  -0.00118  -0.00001   0.00118   0.02169  -0.00029  -0.02169   0.45215  -0.00031  -0.00254   0.00031 ...
   0.00016  -0.00198   0.00118   0.00118  -0.00001  -0.02169  -0.02169  -0.00029  -0.00031   0.45215  -0.00127  -0.00031 ...
   0.00000   0.00000   0.00016  -0.00031  -0.00016  -0.05358   0.10717   0.05358  -0.00254  -0.00127   1.33867   0.00127 ...
  -0.00016   0.00198  -0.00001  -0.00118   0.00118  -0.00029   0.02169  -0.02169   0.00031  -0.00031   0.00127   0.45215 ...
   ...  only 12  components have been written...


================================================================================

 ----iterations are completed or convergence reached----

 Mean square residual over all n,k,spin=   82.378E-09; max=  90.656E-06
 reduced coordinates (array xred) for    9 atoms
       0.251952043580      0.249349318807      0.249349318807
       0.755849905020      0.748050031660      0.748050031660
       0.235006482390      0.224322712210      0.770335402700
       0.757181224720      0.756380244140      0.243219265570
       0.235006482390      0.770335402700      0.770335402700
       0.757181224720      0.243219265570      0.756380244140
       0.235006482390      0.770335402700      0.224322712210
       0.757181224720      0.243219265570      0.243219265570
       0.015634930093     -0.005211643364     -0.005211643364
 rms dE/dt=  6.4426E-05; max dE/dt=  1.2364E-04; dE/dt below (all hartree)
    1      -0.000131730075      0.000000000000      0.000000000000
    2       0.000037074783      0.000000000000      0.000000000000
    3       0.000081234238      0.000123637796     -0.000000000000
    4      -0.000074834976     -0.000025887174      0.000000000000
    5      -0.000042403558     -0.000123637796     -0.000123637796
    6      -0.000074834976     -0.000000000000     -0.000025887174
    7       0.000081234238      0.000000000000      0.000123637796
    8      -0.000048947802      0.000025887174      0.000025887174
    9       0.000030411875      0.000000000000      0.000000000000

 cartesian coordinates (angstrom) at end:
    1      2.94614196003879     2.93183558847969     2.93183558847969
    2      8.83844991077570     8.79548273478208     8.79548273478208
    3      5.86038505517396     5.89557004192340     2.68611970598607
    4      5.92010902085230     5.83584607613004     8.85219478696935
    5      9.06983539111129     5.89557004192340     5.89557004192340
    6      5.92010902085230     8.85219478696935     5.83584607613004
    7      5.86038505517396     2.68611970598607     5.89557004192340
    8      2.90376031001299     5.83584607613004     5.83584607613004
    9     -0.06034926952105     0.06034926951643     0.06034926951643

 cartesian forces (hartree/bohr) at end:
    1     -0.00000529482565     0.00000529482565     0.00000529482565
    2      0.00000241933613    -0.00000241933613    -0.00000241933613
    3     -0.00000115624663     0.00000115624663    -0.00000997450423
    4     -0.00000152360817     0.00000152360817     0.00000385415506
    5      0.00000997450423     0.00000115624663     0.00000115624663
    6     -0.00000152360817     0.00000385415506     0.00000152360817
    7     -0.00000115624663    -0.00000997450423     0.00000115624663
    8     -0.00000385415506     0.00000152360817     0.00000152360817
[...]
                         0.00231    0.00116    0.00463    0.00463    0.00463    0.00463
                         0.00463    0.00463    0.00463    0.00463    0.00463    0.00231
                         0.00116    0.00463    0.00463    0.00463    0.00463    0.00463
                         0.00463    0.00463    0.00231    0.00116    0.00463    0.00463
                         0.00463    0.00463    0.00463    0.00231    0.00116    0.00463
                         0.00463    0.00463    0.00231    0.00116    0.00463    0.00231
                         0.00058    0.00116    0.00463    0.00463    0.00463    0.00463
                         0.00463    0.00463
              wtk5       0.00058    0.00347    0.00347    0.00347    0.00347    0.00347
                         0.00174    0.00347    0.00694    0.00694    0.00694    0.00694
                         0.00694    0.00694    0.00694    0.00694    0.00694    0.00347
                         0.00347    0.00694    0.00694    0.00694    0.00694    0.00694
                         0.00694    0.00694    0.00347    0.00347    0.00694    0.00694
                         0.00694    0.00694    0.00694    0.00347    0.00347    0.00694
                         0.00694    0.00694    0.00347    0.00347    0.00694    0.00347
                         0.00174    0.00116    0.00347    0.00347    0.00347    0.00347
                         0.00347    0.00347
              wtk6       0.00058    0.00463    0.00463    0.00463    0.00463    0.00463
                         0.00231    0.00116    0.00463    0.00463    0.00463    0.00463
                         0.00463    0.00463    0.00463    0.00463    0.00463    0.00231
                         0.00116    0.00463    0.00463    0.00463    0.00463    0.00463
                         0.00463    0.00463    0.00231    0.00116    0.00463    0.00463
                         0.00463    0.00463    0.00463    0.00231    0.00116    0.00463
                         0.00463    0.00463    0.00231    0.00116    0.00463    0.00231
                         0.00058    0.00116    0.00463    0.00463    0.00463    0.00463
                         0.00463    0.00463
                       outvars : Printing only first  50 k-points.
           xangst1     2.9461419600E+00  2.9318355885E+00  2.9318355885E+00
                       8.8384499108E+00  8.7954827348E+00  8.7954827348E+00
                       5.8603850552E+00  5.8955700419E+00  2.6861197060E+00
                       5.9201090209E+00  5.8358460761E+00  8.8521947870E+00
                       9.0698353911E+00  5.8955700419E+00  5.8955700419E+00
                       5.9201090209E+00  8.8521947870E+00  5.8358460761E+00
                       5.8603850552E+00  2.6861197060E+00  5.8955700419E+00
                       2.9037603100E+00  5.8358460761E+00  5.8358460761E+00
                      -6.0349269521E-02  6.0349269516E-02  6.0349269516E-02
           xangst2     2.9762571442E+00  2.9017203943E+00  2.9017203943E+00
                       8.8685646057E+00  8.7653680097E+00  8.7653680097E+00
                       5.8945975164E+00  5.8613575605E+00  2.8450088726E+00
                       5.9543212966E+00  5.8016337803E+00  9.0110840720E+00
                       8.9109462044E+00  5.8613575605E+00  5.8613575605E+00
                       5.9543212966E+00  9.0110840720E+00  5.8016337803E+00
                       5.8945975164E+00  2.8450088726E+00  5.8613575605E+00
                       2.7448710050E+00  5.8016337803E+00  5.8016337803E+00
                       6.0349211409E-02 -6.0349211409E-02 -6.0349211409E-02
           xangst3     2.9439028005E+00  2.9304130809E+00  2.8783718235E+00
                       8.8317084014E+00  8.8161160107E+00  8.6351154706E+00
                       5.8878056010E+00  5.8597719371E+00  2.6284081369E+00
                       5.8878056010E+00  5.8597719370E+00  8.8850791573E+00
                       8.8747466528E+00  5.8780409281E+00  5.7567436471E+00
                       5.8878056010E+00  9.0792220358E+00  5.7567436471E+00
                       5.8878056010E+00  2.8467529016E+00  5.7567436471E+00
                       2.9008645491E+00  5.8780409281E+00  5.7567436471E+00
                      -1.9406718570E-14 -6.2506320235E-02  5.2331347093E-13
           xangst4     2.8783717993E+00  2.9439027306E+00  2.9552897905E+00
                       8.6351153980E+00  8.8317081919E+00  8.8409926420E+00
                       5.7567435987E+00  5.8878054612E+00  2.6921838225E+00
                       5.7567435986E+00  5.8878054614E+00  8.9246528515E+00
                       8.8850790462E+00  5.8878054612E+00  5.9116338175E+00
                       5.7567435987E+00  8.8747463856E+00  5.8933648680E+00
                       5.7567435986E+00  2.9008645370E+00  5.8933648678E+00
                       2.6284081511E+00  5.8878054614E+00  5.9116338177E+00
                      -2.0731324034E-13  1.2878848959E-12  6.2506334867E-02
           xangst5     2.9022944148E+00  2.9022944148E+00  2.9757269669E+00
                       8.7653754960E+00  8.7653754960E+00  8.8686886490E+00
                       5.8014708302E+00  5.8014708302E+00  2.7450480784E+00
                       5.8613209687E+00  5.8613209687E+00  8.9111091050E+00
                       9.0109946850E+00  5.8014708302E+00  5.9545719331E+00
                       5.8014708302E+00  9.0109946850E+00  5.9545719331E+00
                       5.8613209687E+00  2.8449336583E+00  5.8947217947E+00
                       2.8449336583E+00  5.8613209687E+00  5.8947217947E+00
                      -6.0420133097E-02 -6.0420133097E-02  6.0420133101E-02
           xangst6     2.9552897817E+00  2.9439027504E+00  2.8783717893E+00
                       8.8409926156E+00  8.8317082511E+00  8.6351153680E+00
                       5.9116338004E+00  5.8878055008E+00  2.6284081490E+00
                       5.9116338003E+00  5.8878055007E+00  8.8850790084E+00
                       8.9246528149E+00  5.8878055008E+00  5.7567435787E+00
                       5.8933648507E+00  8.8747464636E+00  5.7567435786E+00
                       5.8933648507E+00  2.9008645379E+00  5.7567435787E+00
                       2.6921838218E+00  5.8878055007E+00  5.7567435786E+00
                       6.2506335520E-02  6.3873578470E-13  6.7767406160E-13
            xcart1     5.5674014531E+00  5.5403663289E+00  5.5403663289E+00
                       1.6702249771E+01  1.6621053575E+01  1.6621053575E+01
                       1.1074522788E+01  1.1141012776E+01  5.0760306045E+00
                       1.1187384726E+01  1.1028150838E+01  1.6728223822E+01
                       1.7139504960E+01  1.1141012776E+01  1.1141012776E+01
                       1.1187384726E+01  1.6728223822E+01  1.1028150838E+01
                       1.1074522788E+01  5.0760306045E+00  1.1141012776E+01
                       5.4873117415E+00  1.1028150838E+01  1.1028150838E+01
                      -1.1404359171E-01  1.1404359171E-01  1.1404359171E-01
            xcart2     5.6243109036E+00  5.4834568594E+00  5.4834568594E+00
                       1.6759158297E+01  1.6564144992E+01  1.6564144992E+01
                       1.1139174970E+01  1.1076360556E+01  5.3762876148E+00
                       1.1252036558E+01  1.0963498968E+01  1.7028481056E+01
                       1.6839247911E+01  1.1076360556E+01  1.1076360556E+01
                       1.1252036558E+01  1.7028481056E+01  1.0963498968E+01
                       1.1139174970E+01  5.3762876148E+00  1.1076360556E+01
                       5.1870544695E+00  1.0963498968E+01  1.0963498968E+01
                       1.1404348190E-01 -1.1404348190E-01 -1.1404348190E-01
            xcart3     5.5631700547E+00  5.5376781791E+00  5.4393344551E+00
                       1.6689510164E+01  1.6660044816E+01  1.6318003365E+01
                       1.1126340109E+01  1.1073364162E+01  4.9669715442E+00
                       1.1126340109E+01  1.1073364162E+01  1.6790366276E+01
                       1.6770840673E+01  1.1107887552E+01  1.0878668910E+01
                       1.1126340109E+01  1.7157243147E+01  1.0878668910E+01
                       1.1126340109E+01  5.3795833519E+00  1.0878668910E+01
                       5.4818395464E+00  1.1107887552E+01  1.0878668910E+01
                      -3.6673383235E-14 -1.1811982682E-01  9.8891914171E-13
            xcart4     5.4393344093E+00  5.5631699228E+00  5.5846883473E+00
                       1.6318003228E+01  1.6689509768E+01  1.6707054836E+01
                       1.0878668819E+01  1.1126339845E+01  5.0874901238E+00
                       1.0878668819E+01  1.1126339846E+01  1.6865149720E+01
                       1.6790366066E+01  1.1126339845E+01  1.1171368913E+01
                       1.0878668819E+01  1.6770840168E+01  1.1136845602E+01
                       1.0878668819E+01  5.4818395236E+00  1.1136845601E+01
                       4.9669715711E+00  1.1126339846E+01  1.1171368913E+01
                      -3.9176524797E-13  2.4337497440E-12  1.1811985447E-01
            xcart5     5.4845416009E+00  5.4845416009E+00  5.6233090137E+00
                       1.6564159139E+01  1.6564159139E+01  1.6759392704E+01
                       1.0963191037E+01  1.0963191037E+01  5.1873890897E+00
                       1.1076291408E+01  1.1076291408E+01  1.6839555749E+01
                       1.7028312139E+01  1.0963191037E+01  1.1252510192E+01
                       1.0963191037E+01  1.7028312139E+01  1.1252510192E+01
                       1.1076291408E+01  5.3761454805E+00  1.1139409822E+01
                       5.3761454805E+00  1.1076291408E+01  1.1139409822E+01
                      -1.1417750447E-01 -1.1417750447E-01  1.1417750447E-01
            xcart6     5.5846883307E+00  5.5631699601E+00  5.4393343905E+00
                       1.6707054786E+01  1.6689509880E+01  1.6318003171E+01
                       1.1171368881E+01  1.1126339920E+01  4.9669715670E+00
                       1.1171368881E+01  1.1126339920E+01  1.6790365995E+01
                       1.6865149651E+01  1.1126339920E+01  1.0878668781E+01
                       1.1136845569E+01  1.6770840315E+01  1.0878668781E+01
                       1.1136845569E+01  5.4818395253E+00  1.0878668781E+01
                       5.0874901227E+00  1.1126339920E+01  1.0878668781E+01
                       1.1811985570E-01  1.2070357044E-12  1.2806183838E-12
             xred1     2.5195204358E-01  2.4934931881E-01  2.4934931881E-01
                       7.5584990502E-01  7.4805003166E-01  7.4805003166E-01
                       2.3500648239E-01  2.2432271221E-01  7.7033540270E-01
                       7.5718122472E-01  7.5638024414E-01  2.4321926557E-01
                       2.3500648239E-01  7.7033540270E-01  7.7033540270E-01
                       7.5718122472E-01  2.4321926557E-01  7.5638024414E-01
                       2.3500648239E-01  7.7033540270E-01  2.2432271221E-01
                       7.5718122472E-01  2.4321926557E-01  2.4321926557E-01
                       1.5634930093E-02 -5.2116433644E-03 -5.2116433644E-03
             xred2     2.4414997020E-01  2.5195000993E-01  2.5195000993E-01
                       7.4804793695E-01  7.5065068768E-01  7.5065068768E-01
                       2.4281878490E-01  2.4361975466E-01  7.5678073022E-01
                       7.6499355088E-01  7.7567727231E-01  2.2966458841E-01
                       2.4281878490E-01  7.5678073022E-01  7.5678073022E-01
                       7.6499355088E-01  2.2966458841E-01  7.7567727231E-01
                       2.4281878490E-01  7.5678073022E-01  2.4361975466E-01
                       7.6499355088E-01  2.2966458841E-01  2.2966458841E-01
                      -1.5634914481E-02  5.2116381603E-03  5.2116381603E-03
             xred3     2.4894333912E-01  2.5105666088E-01  2.4894333912E-01
                       7.4894333912E-01  7.5105666088E-01  7.4894333912E-01
                       2.2608660966E-01  2.3049236937E-01  7.6950763063E-01
                       7.6950763063E-01  7.7391339034E-01  2.2608660966E-01
                       2.4569423705E-01  7.5430576295E-01  7.5300396402E-01
                       7.7129462224E-01  2.2870537776E-01  7.7129462224E-01
                       2.4183627134E-01  7.5816372866E-01  2.4183627134E-01
                       7.5300396402E-01  2.4699603598E-01  2.4569423705E-01
                      -5.3100131777E-03  5.3100131777E-03 -5.3100131777E-03
             xred4     2.5105665925E-01  2.5105665925E-01  2.4894334075E-01
                       7.5105665925E-01  7.5105665925E-01  7.4894334075E-01
                       2.2870538068E-01  2.2870538068E-01  7.7129461932E-01
                       7.5816372969E-01  7.5816372969E-01  2.4183627031E-01
                       2.3049237028E-01  7.7391338494E-01  7.6950762972E-01
                       7.5430575938E-01  2.4699604205E-01  7.5300395795E-01
                       2.4699604205E-01  7.5430575938E-01  2.4569424062E-01
                       7.7391338494E-01  2.3049237028E-01  2.2608661506E-01
                       5.3100144914E-03  5.3100144914E-03 -5.3100144914E-03
             xred5     2.5190018738E-01  2.5190018738E-01  2.4429943787E-01
                       7.5064919345E-01  7.5064919345E-01  7.4805241966E-01
                       2.2967151419E-01  2.2967151419E-01  7.6496433122E-01
                       7.5678693641E-01  7.5678693641E-01  2.4280290939E-01
                       2.2967151419E-01  7.7569264040E-01  7.6496433122E-01
                       7.7569264040E-01  2.2967151419E-01  7.6496433122E-01
                       2.4362321779E-01  7.5678693641E-01  2.4280290939E-01
                       7.5678693641E-01  2.4362321779E-01  2.4280290939E-01
                       5.2178597858E-03  5.2178597858E-03 -1.5653579357E-02
             xred6     2.4894334075E-01  2.5105665925E-01  2.5105665925E-01
                       7.4894334075E-01  7.5105665925E-01  7.5105665925E-01
                       2.2608661563E-01  2.3049237092E-01  7.7391338437E-01
                       7.6950762908E-01  7.7391338437E-01  2.3049237092E-01
                       2.4183627116E-01  7.5816372884E-01  7.5816372884E-01
                       7.5300395949E-01  2.4699604051E-01  7.5430576099E-01
                       2.4569423901E-01  7.5430576099E-01  2.4699604051E-01
                       7.7129461869E-01  2.2870538131E-01  2.2870538131E-01
                      -5.3100145627E-03  5.3100145627E-03  5.3100145627E-03
            znucl       55.00000   53.00000   40.00000   35.00000

================================================================================


- Timing analysis has been suppressed with timopt=0



================================================================================

 Suggested references for the acknowledgment of ABINIT usage.

 The users of ABINIT have little formal obligations with respect to the ABINIT group
 (those specified in the GNU General Public License, http://www.gnu.org/copyleft/gpl.txt).
 However, it is common practice in the scientific literature,
 to acknowledge the efforts of people that have made the research possible.
 In this spirit, please find below suggested citations of work written by ABINIT developers,
 corresponding to implementations inside of ABINIT that you have used in the present run.
 Note also that it will be of great value to readers of publications presenting these results,
 to read papers enabling them to understand the theoretical formalism and details
 of the ABINIT implementation.
 For information on why they are suggested, see also https://docs.abinit.org/theory/acknowledgments.
-
- [1] Implementation of the Projector Augmented-Wave Method in the ABINIT code.
- M. Torrent, F. Jollet, F. Bottin, G. Zerah, and X. Gonze Comput. Mat. Science 42, 337, (2008).
- Comment: PAW calculations. Strong suggestion to cite this paper.
- DOI and bibtex: see https://docs.abinit.org/theory/bibliography/#torrent2008
-
- [2] Libxc: A library of exchange and correlation functionals for density functional theory.
- M.A.L. Marques, M.J.T. Oliveira, T. Burnus, Computer Physics Communications 183, 2227 (2012).
- Comment: to be cited when LibXC is used (negative value of ixc)
- Strong suggestion to cite this paper.
- DOI and bibtex: see https://docs.abinit.org/theory/bibliography/#marques2012
-
- [3] The Abinit project: Impact, environment and recent developments.
- Computer Phys. Comm. 248, 107042 (2020).
- X.Gonze, B. Amadon, G. Antonius, F.Arnardi, L.Baguet, J.-M.Beuken,
- J.Bieder, F.Bottin, J.Bouchet, E.Bousquet, N.Brouwer, F.Bruneval,
- G.Brunin, T.Cavignac, J.-B. Charraud, Wei Chen, M.Cote, S.Cottenier,
- J.Denier, G.Geneste, Ph.Ghosez, M.Giantomassi, Y.Gillet, O.Gingras,
- D.R.Hamann, G.Hautier, Xu He, N.Helbig, N.Holzwarth, Y.Jia, F.Jollet,
- W.Lafargue-Dit-Hauret, K.Lejaeghere, M.A.L.Marques, A.Martin, C.Martins,
- H.P.C. Miranda, F.Naccarato, K. Persson, G.Petretto, V.Planes, Y.Pouillon,
- S.Prokhorenko, F.Ricci, G.-M.Rignanese, A.H.Romero, M.M.Schmitt, M.Torrent,
- M.J.van Setten, B.Van Troeye, M.J.Verstraete, G.Zerah and J.W.Zwanzig
- Comment: the fifth generic paper describing the ABINIT project.
- Note that a version of this paper, that is not formatted for Computer Phys. Comm. 
- is available at https://www.abinit.org/sites/default/files/ABINIT20.pdf .
- The licence allows the authors to put it on the Web.
- DOI and bibtex: see https://docs.abinit.org/theory/bibliography/#gonze2020
-
- [4] ABINIT: Overview, and focus on selected capabilities
- J. Chem. Phys. 152, 124102 (2020).
- A. Romero, D.C. Allan, B. Amadon, G. Antonius, T. Applencourt, L.Baguet,
- J.Bieder, F.Bottin, J.Bouchet, E.Bousquet, F.Bruneval,
- G.Brunin, D.Caliste, M.Cote,
- J.Denier, C. Dreyer, Ph.Ghosez, M.Giantomassi, Y.Gillet, O.Gingras,
- D.R.Hamann, G.Hautier, F.Jollet, G. Jomard,
- A.Martin, 
- H.P.C. Miranda, F.Naccarato, G.Petretto, N.A. Pike, V.Planes,
- S.Prokhorenko, T. Rangel, F.Ricci, G.-M.Rignanese, M.Royo, M.Stengel, M.Torrent,
- M.J.van Setten, B.Van Troeye, M.J.Verstraete, J.Wiktor, J.W.Zwanziger, and X.Gonze.
- Comment: a global overview of ABINIT, with focus on selected capabilities .
- Note that a version of this paper, that is not formatted for J. Chem. Phys 
- is available at https://www.abinit.org/sites/default/files/ABINIT20_JPC.pdf .
- The licence allows the authors to put it on the Web.
- DOI and bibtex: see https://docs.abinit.org/theory/bibliography/#romero2020
-
- [5] Recent developments in the ABINIT software package.
- Computer Phys. Comm. 205, 106 (2016).
- X.Gonze, F.Jollet, F.Abreu Araujo, D.Adams, B.Amadon, T.Applencourt,
- C.Audouze, J.-M.Beuken, J.Bieder, A.Bokhanchuk, E.Bousquet, F.Bruneval
- D.Caliste, M.Cote, F.Dahm, F.Da Pieve, M.Delaveau, M.Di Gennaro,
- B.Dorado, C.Espejo, G.Geneste, L.Genovese, A.Gerossier, M.Giantomassi,
- Y.Gillet, D.R.Hamann, L.He, G.Jomard, J.Laflamme Janssen, S.Le Roux,
- A.Levitt, A.Lherbier, F.Liu, I.Lukacevic, A.Martin, C.Martins,
- M.J.T.Oliveira, S.Ponce, Y.Pouillon, T.Rangel, G.-M.Rignanese,
- A.H.Romero, B.Rousseau, O.Rubel, A.A.Shukri, M.Stankovski, M.Torrent,
- M.J.Van Setten, B.Van Troeye, M.J.Verstraete, D.Waroquier, J.Wiktor,
- B.Xu, A.Zhou, J.W.Zwanziger.
- Comment: the fourth generic paper describing the ABINIT project.
- Note that a version of this paper, that is not formatted for Computer Phys. Comm. 
- is available at https://www.abinit.org/sites/default/files/ABINIT16.pdf .
- The licence allows the authors to put it on the Web.
- DOI and bibtex: see https://docs.abinit.org/theory/bibliography/#gonze2016
-
- Proc.   0 individual time (sec): cpu=       7406.0  wall=       7406.1

================================================================================

 Calculation completed.
.Delivered   0 WARNINGs and   0 COMMENTs to log file.
+Overall time at end (sec) : cpu=      44435.6  wall=      44436.1
