
.Version 9.2.2 of ABINIT 
.(MPI version, prepared for a x86_64_linux_gnu9.3 computer) 

.Copyright (C) 1998-2020 ABINIT group . 
 ABINIT comes with ABSOLUTELY NO WARRANTY.
 It is free software, and you are welcome to redistribute it
 under certain conditions (GNU General Public License,
 see ~abinit/COPYING or http://www.gnu.org/copyleft/gpl.txt).

 ABINIT is a project of the Universite Catholique de Louvain,
 Corning Inc. and other collaborators, see ~abinit/doc/developers/contributors.txt .
 Please read https://docs.abinit.org/theory/acknowledgments for suggested
 acknowledgments of the ABINIT effort.
 For more information, see https://www.abinit.org .

.Starting date : Thu 17 Nov 2022.
- ( at 09h31 )
  
- input  file    -> Cs2TiI6.in
- output file    -> Cs2TiI6.out
- root for input  files -> Cs2TiI6i
- root for output files -> Cs2TiI6o

- inpspheads : Reading pseudopotential header in XML form from 
-   ../../../Psps_for_tests/ATOMICDATA/Cs.GGA_PBE-JTH.xml
- inpspheads : Reading pseudopotential header in XML form from 
-   ../../../Psps_for_tests/ATOMICDATA/I.GGA_PBE-JTH.xml
- inpspheads : Reading pseudopotential header in XML form from 
-   ../../../Psps_for_tests/ATOMICDATA/Hf.GGA_PBE-JTH.xml
- inpspheads : Reading pseudopotential header in XML form from 
-   ../../../Psps_for_tests/ATOMICDATA/Cl.GGA_PBE-JTH.xml

 DATASET    1 : space group I4 m m (#107); Bravais tI (body-center tetrag.)
================================================================================
 Values of the parameters that define the memory need for DATASET  1.
     intxc =       0    ionmov =       0      iscf =      17    lmnmax =      18
     lnmax =       6     mgfft =      54  mpssoang =       3    mqgrid =    3263
     natom =       9  nloc_mem =       2    nspden =       1   nspinor =       1
    nsppol =       1      nsym =       8    n1xccc =       1    ntypat =       4
    occopt =       1   xclevel =       2
-    mband =          42        mffmem =           1         mkmem =          21
       mpw =        6040          nfft =      157464          nkpt =         163
Pmy_natom=         2
 PAW method is used; the additional fine FFT grid is defined by:
   mgfftf=        90    nfftf =    729000
================================================================================
P This job should need less than                     294.700 Mbytes of memory.
  Rough estimation (10% accuracy) of disk space for files :
_ WF disk file :    630.950 Mbytes ; DEN or POT disk file :      5.564 Mbytes.
================================================================================


 DATASET    2 : space group I4 m m (#107); Bravais tI (body-center tetrag.)
================================================================================
 Values of the parameters that define the memory need for DATASET  2.
     intxc =       0    ionmov =       0      iscf =      17    lmnmax =      18
     lnmax =       6     mgfft =      54  mpssoang =       3    mqgrid =    3260
     natom =       9  nloc_mem =       2    nspden =       1   nspinor =       1
    nsppol =       1      nsym =       8    n1xccc =       1    ntypat =       4
    occopt =       1   xclevel =       2
-    mband =          42        mffmem =           1         mkmem =          21
       mpw =        6024          nfft =      157464          nkpt =         163
Pmy_natom=         2
 PAW method is used; the additional fine FFT grid is defined by:
   mgfftf=        90    nfftf =    729000
================================================================================
P This job should need less than                     294.472 Mbytes of memory.
  Rough estimation (10% accuracy) of disk space for files :
_ WF disk file :    629.279 Mbytes ; DEN or POT disk file :      5.564 Mbytes.
================================================================================


 DATASET    3 : space group I4 m m (#107); Bravais tI (body-center tetrag.)
================================================================================
 Values of the parameters that define the memory need for DATASET  3.
     intxc =       0    ionmov =       0      iscf =      17    lmnmax =      18
     lnmax =       6     mgfft =      54  mpssoang =       3    mqgrid =    3257
     natom =       9  nloc_mem =       2    nspden =       1   nspinor =       1
    nsppol =       1      nsym =       8    n1xccc =       1    ntypat =       4
    occopt =       1   xclevel =       2
-    mband =          42        mffmem =           1         mkmem =          21
       mpw =        5990          nfft =      157464          nkpt =         163
Pmy_natom=         2
 PAW method is used; the additional fine FFT grid is defined by:
   mgfftf=        90    nfftf =    729000
================================================================================
P This job should need less than                     293.971 Mbytes of memory.
  Rough estimation (10% accuracy) of disk space for files :
_ WF disk file :    625.727 Mbytes ; DEN or POT disk file :      5.564 Mbytes.
================================================================================


 DATASET    4 : space group I4 m m (#107); Bravais tI (body-center tetrag.)
================================================================================
 Values of the parameters that define the memory need for DATASET  4.
     intxc =       0    ionmov =       0      iscf =      17    lmnmax =      18
     lnmax =       6     mgfft =      54  mpssoang =       3    mqgrid =    3254
     natom =       9  nloc_mem =       2    nspden =       1   nspinor =       1
    nsppol =       1      nsym =       8    n1xccc =       1    ntypat =       4
    occopt =       1   xclevel =       2
-    mband =          42        mffmem =           1         mkmem =          21
       mpw =        5962          nfft =      157464          nkpt =         163
Pmy_natom=         2
 PAW method is used; the additional fine FFT grid is defined by:
   mgfftf=        90    nfftf =    729000
================================================================================
P This job should need less than                     293.562 Mbytes of memory.
  Rough estimation (10% accuracy) of disk space for files :
_ WF disk file :    622.802 Mbytes ; DEN or POT disk file :      5.564 Mbytes.
================================================================================


 DATASET    5 : space group I4 m m (#107); Bravais tI (body-center tetrag.)
================================================================================
 Values of the parameters that define the memory need for DATASET  5.
     intxc =       0    ionmov =       0      iscf =      17    lmnmax =      18
     lnmax =       6     mgfft =      54  mpssoang =       3    mqgrid =    3250
     natom =       9  nloc_mem =       2    nspden =       1   nspinor =       1
    nsppol =       1      nsym =       8    n1xccc =       1    ntypat =       4
    occopt =       1   xclevel =       2
-    mband =          42        mffmem =           1         mkmem =          21
       mpw =        5954          nfft =      157464          nkpt =         163
Pmy_natom=         2
 PAW method is used; the additional fine FFT grid is defined by:
   mgfftf=        90    nfftf =    729000
================================================================================
P This job should need less than                     293.455 Mbytes of memory.
  Rough estimation (10% accuracy) of disk space for files :
_ WF disk file :    621.967 Mbytes ; DEN or POT disk file :      5.564 Mbytes.
================================================================================


 DATASET    6 : space group I4 m m (#107); Bravais tI (body-center tetrag.)
================================================================================
 Values of the parameters that define the memory need for DATASET  6.
     intxc =       0    ionmov =       0      iscf =      17    lmnmax =      18
     lnmax =       6     mgfft =      54  mpssoang =       3    mqgrid =    3247
     natom =       9  nloc_mem =       2    nspden =       1   nspinor =       1
    nsppol =       1      nsym =       8    n1xccc =       1    ntypat =       4
    occopt =       1   xclevel =       2
-    mband =          42        mffmem =           1         mkmem =          21
       mpw =        5929          nfft =      157464          nkpt =         163
Pmy_natom=         2
 PAW method is used; the additional fine FFT grid is defined by:
   mgfftf=        90    nfftf =    729000
================================================================================
P This job should need less than                     293.091 Mbytes of memory.
  Rough estimation (10% accuracy) of disk space for files :
_ WF disk file :    619.355 Mbytes ; DEN or POT disk file :      5.564 Mbytes.
================================================================================


 DATASET    7 : space group I4 m m (#107); Bravais tI (body-center tetrag.)
================================================================================
 Values of the parameters that define the memory need for DATASET  7.
     intxc =       0    ionmov =       0      iscf =      17    lmnmax =      18
     lnmax =       6     mgfft =      54  mpssoang =       3    mqgrid =    3244
     natom =       9  nloc_mem =       2    nspden =       1   nspinor =       1
    nsppol =       1      nsym =       8    n1xccc =       1    ntypat =       4
    occopt =       1   xclevel =       2
-    mband =          42        mffmem =           1         mkmem =          21
       mpw =        5909          nfft =      157464          nkpt =         163
Pmy_natom=         2
 PAW method is used; the additional fine FFT grid is defined by:
   mgfftf=        90    nfftf =    729000
================================================================================
P This job should need less than                     292.802 Mbytes of memory.
  Rough estimation (10% accuracy) of disk space for files :
_ WF disk file :    617.266 Mbytes ; DEN or POT disk file :      5.564 Mbytes.
================================================================================


 DATASET    8 : space group I4 m m (#107); Bravais tI (body-center tetrag.)
================================================================================
 Values of the parameters that define the memory need for DATASET  8.
     intxc =       0    ionmov =       0      iscf =      17    lmnmax =      18
     lnmax =       6     mgfft =      54  mpssoang =       3    mqgrid =    3241
     natom =       9  nloc_mem =       2    nspden =       1   nspinor =       1
    nsppol =       1      nsym =       8    n1xccc =       1    ntypat =       4
    occopt =       1   xclevel =       2
-    mband =          42        mffmem =           1         mkmem =          21
       mpw =        5892          nfft =      157464          nkpt =         163
Pmy_natom=         2
 PAW method is used; the additional fine FFT grid is defined by:
   mgfftf=        90    nfftf =    729000
================================================================================
P This job should need less than                     292.559 Mbytes of memory.
  Rough estimation (10% accuracy) of disk space for files :
_ WF disk file :    615.490 Mbytes ; DEN or POT disk file :      5.564 Mbytes.
================================================================================


 DATASET    9 : space group I4 m m (#107); Bravais tI (body-center tetrag.)
================================================================================
 Values of the parameters that define the memory need for DATASET  9.
     intxc =       0    ionmov =       0      iscf =      17    lmnmax =      18
     lnmax =       6     mgfft =      54  mpssoang =       3    mqgrid =    3237
     natom =       9  nloc_mem =       2    nspden =       1   nspinor =       1
    nsppol =       1      nsym =       8    n1xccc =       1    ntypat =       4
    occopt =       1   xclevel =       2
-    mband =          42        mffmem =           1         mkmem =          21
       mpw =        5870          nfft =      157464          nkpt =         163
Pmy_natom=         2
 PAW method is used; the additional fine FFT grid is defined by:
   mgfftf=        90    nfftf =    729000
================================================================================
P This job should need less than                     292.241 Mbytes of memory.
  Rough estimation (10% accuracy) of disk space for files :
_ WF disk file :    613.192 Mbytes ; DEN or POT disk file :      5.564 Mbytes.
================================================================================


 DATASET   10 : space group I4 m m (#107); Bravais tI (body-center tetrag.)
================================================================================
 Values of the parameters that define the memory need for DATASET 10.
     intxc =       0    ionmov =       0      iscf =      17    lmnmax =      18
     lnmax =       6     mgfft =      54  mpssoang =       3    mqgrid =    3234
     natom =       9  nloc_mem =       2    nspden =       1   nspinor =       1
    nsppol =       1      nsym =       8    n1xccc =       1    ntypat =       4
    occopt =       1   xclevel =       2
-    mband =          42        mffmem =           1         mkmem =          21
       mpw =        5858          nfft =      157464          nkpt =         163
Pmy_natom=         2
 PAW method is used; the additional fine FFT grid is defined by:
   mgfftf=        90    nfftf =    729000
================================================================================
P This job should need less than                     292.074 Mbytes of memory.
  Rough estimation (10% accuracy) of disk space for files :
_ WF disk file :    611.938 Mbytes ; DEN or POT disk file :      5.564 Mbytes.
================================================================================

--------------------------------------------------------------------------------
------------- Echo of variables that govern the present computation ------------
--------------------------------------------------------------------------------
-
- outvars: echo of selected default values                                      
-   iomode0 =  0 , fftalg0 =112 , wfoptalg0 = 10
-
- outvars: echo of global parameters not present in the input file              
-  max_nthreads =    0
-
 -outvars: echo values of preprocessed input variables --------
            acell1     1.3954825348E+01  1.4226742997E+01  1.3954825348E+01 Bohr
            acell2     1.3940967236E+01  1.4212246155E+01  1.3940967236E+01 Bohr
            acell3     1.3926955036E+01  1.4198105505E+01  1.3926955036E+01 Bohr
            acell4     1.3912442074E+01  1.4185123068E+01  1.3912442074E+01 Bohr
            acell5     1.3898852027E+01  1.4170005982E+01  1.3898852027E+01 Bohr
            acell6     1.3884295429E+01  1.4157124954E+01  1.3884295429E+01 Bohr
            acell7     1.3870707901E+01  1.4142001692E+01  1.3870707901E+01 Bohr
            acell8     1.3856824850E+01  1.4127562380E+01  1.3856824850E+01 Bohr
            acell9     1.3841898465E+01  1.4115538196E+01  1.3841898465E+01 Bohr
            acell10    1.3827364478E+01  1.4102607531E+01  1.3827364478E+01 Bohr
              amu      1.32905430E+02  1.26904470E+02  1.78490000E+02
                       3.54527000E+01
           diemac      1.20000000E+01
             ecut      1.60000000E+01 Hartree
-          fftalg         112
           istwfk        2    0    0    0    0    0    3    0    0    0
                         0    0    0    0    0    0    0    0    0    0
                         0    0    0    0    0    0    0    0    0    0
                         0    0    0    0    0    0    0    0    0    0
                         0    0    7    0    0    0    0    0    0    0
                       outvar_i_n : Printing only first  50 k-points.
              ixc     -101130
           jdtset        1    2    3    4    5    6    7    8    9   10
              kpt      0.00000000E+00  0.00000000E+00  0.00000000E+00
                       8.33333333E-02  0.00000000E+00  0.00000000E+00
                       1.66666667E-01  0.00000000E+00  0.00000000E+00
                       2.50000000E-01  0.00000000E+00  0.00000000E+00
                       3.33333333E-01  0.00000000E+00  0.00000000E+00
                       4.16666667E-01  0.00000000E+00  0.00000000E+00
                       5.00000000E-01  0.00000000E+00  0.00000000E+00
                       8.33333333E-02  8.33333333E-02  0.00000000E+00
                       1.66666667E-01  8.33333333E-02  0.00000000E+00
                       2.50000000E-01  8.33333333E-02  0.00000000E+00
                       3.33333333E-01  8.33333333E-02  0.00000000E+00
                       4.16666667E-01  8.33333333E-02  0.00000000E+00
                       5.00000000E-01  8.33333333E-02  0.00000000E+00
                      -4.16666667E-01  8.33333333E-02  0.00000000E+00
                      -3.33333333E-01  8.33333333E-02  0.00000000E+00
                      -2.50000000E-01  8.33333333E-02  0.00000000E+00
                      -1.66666667E-01  8.33333333E-02  0.00000000E+00
                      -8.33333333E-02  8.33333333E-02  0.00000000E+00
                       1.66666667E-01  1.66666667E-01  0.00000000E+00
                       2.50000000E-01  1.66666667E-01  0.00000000E+00
                       3.33333333E-01  1.66666667E-01  0.00000000E+00
                       4.16666667E-01  1.66666667E-01  0.00000000E+00
                       5.00000000E-01  1.66666667E-01  0.00000000E+00
                      -4.16666667E-01  1.66666667E-01  0.00000000E+00
                      -3.33333333E-01  1.66666667E-01  0.00000000E+00
                      -2.50000000E-01  1.66666667E-01  0.00000000E+00
                      -1.66666667E-01  1.66666667E-01  0.00000000E+00
                       2.50000000E-01  2.50000000E-01  0.00000000E+00
                       3.33333333E-01  2.50000000E-01  0.00000000E+00
                       4.16666667E-01  2.50000000E-01  0.00000000E+00
                       5.00000000E-01  2.50000000E-01  0.00000000E+00
                      -4.16666667E-01  2.50000000E-01  0.00000000E+00
                      -3.33333333E-01  2.50000000E-01  0.00000000E+00
                      -2.50000000E-01  2.50000000E-01  0.00000000E+00
                       3.33333333E-01  3.33333333E-01  0.00000000E+00
                       4.16666667E-01  3.33333333E-01  0.00000000E+00
                       5.00000000E-01  3.33333333E-01  0.00000000E+00
                      -4.16666667E-01  3.33333333E-01  0.00000000E+00
                      -3.33333333E-01  3.33333333E-01  0.00000000E+00
                       4.16666667E-01  4.16666667E-01  0.00000000E+00
                       5.00000000E-01  4.16666667E-01  0.00000000E+00
                      -4.16666667E-01  4.16666667E-01  0.00000000E+00
                       5.00000000E-01  5.00000000E-01  0.00000000E+00
                       8.33333333E-02  0.00000000E+00  8.33333333E-02
                       1.66666667E-01  0.00000000E+00  8.33333333E-02
                       2.50000000E-01  0.00000000E+00  8.33333333E-02
                       3.33333333E-01  0.00000000E+00  8.33333333E-02
                       4.16666667E-01  0.00000000E+00  8.33333333E-02
                       5.00000000E-01  0.00000000E+00  8.33333333E-02
                      -4.16666667E-01  0.00000000E+00  8.33333333E-02
                       outvar_i_n : Printing only first  50 k-points.
         kptrlatt       12    0    0      0   12    0      0    0   12
          kptrlen1     1.67457904E+02
          kptrlen2     1.67291607E+02
          kptrlen3     1.67123460E+02
          kptrlen4     1.66949305E+02
          kptrlen5     1.66786224E+02
          kptrlen6     1.66611545E+02
          kptrlen7     1.66448495E+02
          kptrlen8     1.66281898E+02
          kptrlen9     1.66102782E+02
          kptrlen10    1.65928374E+02
P           mkmem          21
            natom           9
            nband          42
           ndtset          10
            ngfft          54      54      54
          ngfftdg          90      90      90
             nkpt         163
            nstep        2500
             nsym           8
           ntypat           4
              occ      2.000000  2.000000  2.000000  2.000000  2.000000  2.000000
                       2.000000  2.000000  2.000000  2.000000  2.000000  2.000000
                       2.000000  2.000000  2.000000  2.000000  2.000000  2.000000
                       2.000000  2.000000  2.000000  2.000000  2.000000  2.000000
                       2.000000  2.000000  2.000000  2.000000  2.000000  2.000000
                       2.000000  2.000000  2.000000  2.000000  2.000000  2.000000
                       0.000000  0.000000  0.000000  0.000000  0.000000  0.000000
        pawecutdg      4.00000000E+01 Hartree
            prtwf           0
            rprim1     0.0000000000E+00  6.9305453748E-01  7.2088515596E-01
                       7.0710678119E-01  0.0000000000E+00  7.0710678119E-01
                       7.2088515596E-01  6.9305453748E-01  0.0000000000E+00
            rprim2     0.0000000000E+00  6.9307398879E-01  7.2086645508E-01
                       7.0710678119E-01  0.0000000000E+00  7.0710678119E-01
                       7.2086645508E-01  6.9307398879E-01  0.0000000000E+00
            rprim3     0.0000000000E+00  6.9306637292E-01  7.2087377725E-01
                       7.0710678119E-01  0.0000000000E+00  7.0710678119E-01
                       7.2087377725E-01  6.9306637292E-01  0.0000000000E+00
            rprim4     0.0000000000E+00  6.9297051191E-01  7.2096592819E-01
                       7.0710678119E-01  0.0000000000E+00  7.0710678119E-01
                       7.2096592819E-01  6.9297051191E-01  0.0000000000E+00
            rprim5     0.0000000000E+00  6.9303723401E-01  7.2090179101E-01
                       7.0710678119E-01  0.0000000000E+00  7.0710678119E-01
                       7.2090179101E-01  6.9303723401E-01  0.0000000000E+00
            rprim6     0.0000000000E+00  6.9293340924E-01  7.2100158832E-01
                       7.0710678119E-01  0.0000000000E+00  7.0710678119E-01
                       7.2100158832E-01  6.9293340924E-01  0.0000000000E+00
            rprim7     0.0000000000E+00  6.9300070099E-01  7.2093691016E-01
                       7.0710678119E-01  0.0000000000E+00  7.0710678119E-01
                       7.2093691016E-01  6.9300070099E-01  0.0000000000E+00
            rprim8     0.0000000000E+00  6.9301581576E-01  7.2092238078E-01
                       7.0710678119E-01  0.0000000000E+00  7.0710678119E-01
                       7.2092238078E-01  6.9301581576E-01  0.0000000000E+00
            rprim9     0.0000000000E+00  6.9284605020E-01  7.2108553634E-01
                       7.0710678119E-01  0.0000000000E+00  7.0710678119E-01
                       7.2108553634E-01  6.9284605020E-01  0.0000000000E+00
            rprim10    0.0000000000E+00  6.9274541127E-01  7.2118222050E-01
                       7.0710678119E-01  0.0000000000E+00  7.0710678119E-01
                       7.2118222050E-01  6.9274541127E-01  0.0000000000E+00
          spgroup         107
           symrel      1  0  0   0  1  0   0  0  1       0  0  1   0  1  0   1  0  0
                       0 -1  1   0 -1  0   1 -1  0       1 -1  0   0 -1  0   0 -1  1
                       0 -1  1  -1  0  1   0  0  1       0  0  1  -1  0  1   0 -1  1
                       1  0  0   1  0 -1   1 -1  0       1 -1  0   1  0 -1   1  0  0
           toldfe      1.00000000E-08 Hartree
            typat      1  1  2  4  4  4  4  4  3
           useylm           1
              wtk        0.00058    0.00463    0.00463    0.00463    0.00463    0.00463
                         0.00231    0.00231    0.00926    0.00926    0.00926    0.00926
                         0.00926    0.00926    0.00926    0.00926    0.00926    0.00463
                         0.00231    0.00926    0.00926    0.00926    0.00926    0.00926
                         0.00926    0.00926    0.00463    0.00231    0.00926    0.00926
                         0.00926    0.00926    0.00926    0.00463    0.00231    0.00926
                         0.00926    0.00926    0.00463    0.00231    0.00926    0.00463
                         0.00116    0.00116    0.00463    0.00463    0.00463    0.00463
                         0.00463    0.00463
                       outvars : Printing only first  50 k-points.
           xangst1     2.6617154392E+00  2.6190863347E+00  2.6617154392E+00
                       7.9851463175E+00  7.7369999089E+00  7.9851463175E+00
                       5.3234308783E+00  7.4524840186E+00  5.3234308783E+00
                       5.3234308783E+00  5.1335768850E+00  2.4510090185E+00
                       5.3234308783E+00  5.1335768850E+00  8.1958527382E+00
                       5.3234308783E+00  2.5204051654E+00  5.3234308783E+00
                       8.1958527382E+00  5.1335768850E+00  5.3234308783E+00
                       2.4510090185E+00  5.1335768850E+00  5.3234308783E+00
                      -1.5928982202E-13  8.0025626439E-02 -1.5928982202E-13
           xangst2     2.6590031902E+00  2.6164867120E+00  2.6590031902E+00
                       7.9770095707E+00  7.7294613393E+00  7.9770095707E+00
                       5.3180063804E+00  7.4437575188E+00  5.3180063804E+00
                       5.3180063804E+00  5.1284145008E+00  2.4506882619E+00
                       5.3180063805E+00  5.1284145008E+00  8.1853244990E+00
                       5.3180063805E+00  2.5203388865E+00  5.3180063805E+00
                       8.1853244990E+00  5.1284145008E+00  5.3180063805E+00
                       2.4506882619E+00  5.1284145008E+00  5.3180063804E+00
                      -1.4103052077E-12  8.0094557548E-02 -1.4103052077E-12
           xangst3     2.6563575821E+00  2.6136272462E+00  2.6563575821E+00
                       7.9690727464E+00  7.7214066459E+00  7.9690727464E+00
                       5.3127151642E+00  7.4346626274E+00  5.3127151642E+00
                       5.3127151642E+00  5.1229775978E+00  2.4503974342E+00
                       5.3127151643E+00  5.1229775978E+00  8.1750328944E+00
                       5.3127151643E+00  2.5203895810E+00  5.3127151643E+00
                       8.1750328944E+00  5.1229775978E+00  5.3127151643E+00
                       2.4503974342E+00  5.1229775978E+00  5.3127151642E+00
                      -1.0155889618E-12  8.0238705931E-02 -1.0155889618E-12
           xangst4     2.6539286669E+00  2.6100126924E+00  2.6539286669E+00
                       7.9617860007E+00  7.7117636489E+00  7.9617860007E+00
                       5.3078573338E+00  7.4241156066E+00  5.3078573338E+00
                       5.3078573338E+00  5.1168924413E+00  2.4501603522E+00
                       5.3078573338E+00  5.1168924413E+00  8.1655543155E+00
                       5.3078573338E+00  2.5202088378E+00  5.3078573338E+00
                       8.1655543155E+00  5.1168924413E+00  5.3078573338E+00
                       2.4501603522E+00  5.1168924413E+00  5.3078573338E+00
                      -5.2697380778E-13  8.0337101051E-02 -5.2697380778E-13
           xangst5     2.6511003751E+00  2.6077134583E+00  2.6511003751E+00
                       7.9533011252E+00  7.7049716255E+00  7.9533011252E+00
                       5.3022007501E+00  7.4163016655E+00  5.3022007501E+00
                       5.3022007501E+00  5.1121732285E+00  2.4498503856E+00
                       5.3022007501E+00  5.1121732285E+00  8.1545511147E+00
                       5.3022007501E+00  2.5200422250E+00  5.3022007501E+00
                       8.1545511147E+00  5.1121732285E+00  5.3022007501E+00
                       2.4498503856E+00  5.1121732285E+00  5.3022007501E+00
                      -5.3297853283E-13  8.0343449547E-02 -5.3297853283E-13
           xangst6     2.6486904327E+00  2.6042129829E+00  2.6486904327E+00
                       7.9460712980E+00  7.6953698437E+00  7.9460712980E+00
                       5.2973808653E+00  7.4055385720E+00  5.2973808653E+00
                       5.2973808653E+00  5.1059488231E+00  2.4495734033E+00
                       5.2973808654E+00  5.1059488231E+00  8.1451883274E+00
                       5.2973808653E+00  2.5199120919E+00  5.2973808653E+00
                       8.1451883274E+00  5.1059488231E+00  5.2973808654E+00
                       2.4495734033E+00  5.1059488231E+00  5.2973808653E+00
                      -4.7838631357E-13  8.0426103001E-02 -4.7838631357E-13
           xangst7     2.6458609853E+00  2.6019040736E+00  2.6458609853E+00
                       7.9375829560E+00  7.6885725233E+00  7.9375829560E+00
                       5.2917219707E+00  7.3977929870E+00  5.2917219707E+00
                       5.2917219707E+00  5.1012046205E+00  2.4492240813E+00
                       5.2917219707E+00  5.1012046205E+00  8.1342198600E+00
                       5.2917219707E+00  2.5197975954E+00  5.2917219707E+00
                       8.1342198600E+00  5.1012046205E+00  5.2917219707E+00
                       2.4492240813E+00  5.1012046205E+00  5.2917219707E+00
                      -5.6423339575E-13  8.0461935715E-02 -5.6423339575E-13
           xangst8     2.6431594999E+00  2.5992729207E+00  2.6431594999E+00
                       7.9294784997E+00  7.6809610077E+00  7.9294784997E+00
                       5.2863189999E+00  7.3891227734E+00  5.2863189999E+00
                       5.2863189999E+00  5.0959844412E+00  2.4489158030E+00
                       5.2863189998E+00  5.0959844412E+00  8.1237221967E+00
                       5.2863189998E+00  2.5197211067E+00  5.2863189998E+00
                       8.1237221967E+00  5.0959844412E+00  5.2863189998E+00
                       2.4489158030E+00  5.0959844412E+00  5.2863189999E+00
                       1.3860353328E-12  8.0489123026E-02  1.3860353328E-12
           xangst9     2.6409098665E+00  2.5955031539E+00  2.6409098665E+00
                       7.9227295994E+00  7.6704738133E+00  7.9227295994E+00
                       5.2818197330E+00  7.3771654812E+00  5.2818197330E+00
                       5.2818197330E+00  5.0891367466E+00  2.4486289381E+00
                       5.2818197330E+00  5.0891367466E+00  8.1150105278E+00
                       5.2818197330E+00  2.5195178768E+00  5.2818197330E+00
                       8.1150105278E+00  5.0891367466E+00  5.2818197330E+00
                       2.4486289381E+00  5.0891367466E+00  5.2818197330E+00
                       2.5321990898E-13  8.0557963710E-02  2.5321990898E-13
           xangst10    2.6384906374E+00  2.5920209505E+00  2.6384906374E+00
                       7.9154719122E+00  7.6609265054E+00  7.9154719122E+00
                       5.2769812748E+00  7.3664390941E+00  5.2769812748E+00
                       5.2769812749E+00  5.0828926715E+00  2.4483314398E+00
                       5.2769812748E+00  5.0828926715E+00  8.1056311098E+00
                       5.2769812748E+00  2.5195617007E+00  5.2769812748E+00
                       8.1056311098E+00  5.0828926715E+00  5.2769812748E+00
                       2.4483314398E+00  5.0828926715E+00  5.2769812749E+00
                       1.1613087402E-12  8.0725501912E-02  1.1613087402E-12
            xcart1     5.0299132237E+00  4.9493558909E+00  5.0299132237E+00
                       1.5089739671E+01  1.4620810918E+01  1.5089739671E+01
                       1.0059826447E+01  1.4083153805E+01  1.0059826447E+01
                       1.0059826447E+01  9.7010543947E+00  4.6317357941E+00
                       1.0059826447E+01  9.7010543947E+00  1.5487917101E+01
                       1.0059826447E+01  4.7628755066E+00  1.0059826447E+01
                       1.5487917101E+01  9.7010543947E+00  1.0059826447E+01
                       4.6317357941E+00  9.7010543947E+00  1.0059826447E+01
                      -3.0101413936E-13  1.5122651758E-01 -3.0101413936E-13
            xcart2     5.0247878160E+00  4.9444433161E+00  5.0247878160E+00
                       1.5074363448E+01  1.4606565086E+01  1.5074363448E+01
                       1.0049575632E+01  1.4066663110E+01  1.0049575632E+01
                       1.0049575632E+01  9.6912989024E+00  4.6311296520E+00
                       1.0049575632E+01  9.6912989024E+00  1.5468021612E+01
                       1.0049575632E+01  4.7627502576E+00  1.0049575632E+01
                       1.5468021612E+01  9.6912989024E+00  1.0049575632E+01
                       4.6311296520E+00  9.6912989024E+00  1.0049575632E+01
                      -2.6650906064E-12  1.5135677850E-01 -2.6650906064E-12
            xcart3     5.0197883413E+00  4.9390397088E+00  5.0197883413E+00
                       1.5059365024E+01  1.4591343921E+01  1.5059365024E+01
                       1.0039576682E+01  1.4049476256E+01  1.0039576682E+01
                       1.0039576682E+01  9.6810246447E+00  4.6305800673E+00
                       1.0039576683E+01  9.6810246447E+00  1.5448573298E+01
                       1.0039576683E+01  4.7628460562E+00  1.0039576683E+01
                       1.5448573298E+01  9.6810246447E+00  1.0039576683E+01
                       4.6305800673E+00  9.6810246447E+00  1.0039576682E+01
                      -1.9191850014E-12  1.5162917947E-01 -1.9191850014E-12
            xcart4     5.0151983567E+00  4.9322091920E+00  5.0151983567E+00
                       1.5045595070E+01  1.4573121298E+01  1.5045595070E+01
                       1.0030396713E+01  1.4029545275E+01  1.0030396713E+01
                       1.0030396713E+01  9.6695253654E+00  4.6301320472E+00
                       1.0030396713E+01  9.6695253654E+00  1.5430661379E+01
                       1.0030396713E+01  4.7625045012E+00  1.0030396713E+01
                       1.5430661379E+01  9.6695253654E+00  1.0030396713E+01
                       4.6301320472E+00  9.6695253654E+00  1.0030396713E+01
                      -9.9583617591E-13  1.5181511930E-01 -9.9583617591E-13
            xcart5     5.0098536597E+00  4.9278642691E+00  5.0098536597E+00
                       1.5029560979E+01  1.4560286234E+01  1.5029560979E+01
                       1.0019707319E+01  1.4014779067E+01  1.0019707319E+01
                       1.0019707319E+01  9.6606073457E+00  4.6295462953E+00
                       1.0019707319E+01  9.6606073457E+00  1.5409868343E+01
                       1.0019707319E+01  4.7621896486E+00  1.0019707319E+01
                       1.5409868343E+01  9.6606073457E+00  1.0019707319E+01
                       4.6295462953E+00  9.6606073457E+00  1.0019707319E+01
                      -1.0071834618E-12  1.5182711621E-01 -1.0071834618E-12
            xcart6     5.0052995285E+00  4.9212493294E+00  5.0052995285E+00
                       1.5015898586E+01  1.4542141496E+01  1.5015898586E+01
                       1.0010599057E+01  1.3994439768E+01  1.0010599057E+01
                       1.0010599057E+01  9.6488449242E+00  4.6290228746E+00
                       1.0010599057E+01  9.6488449242E+00  1.5392175240E+01
                       1.0010599057E+01  4.7619437327E+00  1.0010599057E+01
                       1.5392175240E+01  9.6488449242E+00  1.0010599057E+01
                       4.6290228746E+00  9.6488449242E+00  1.0010599057E+01
                      -9.0401911837E-13  1.5198330861E-01 -9.0401911837E-13
            xcart7     4.9999526480E+00  4.9168861232E+00  4.9999526480E+00
                       1.4999857944E+01  1.4529296422E+01  1.4999857944E+01
                       9.9999052959E+00  1.3979802733E+01  9.9999052959E+00
                       9.9999052959E+00  9.6398796806E+00  4.6283627518E+00
                       9.9999052960E+00  9.6398796806E+00  1.5371447840E+01
                       9.9999052960E+00  4.7617273657E+00  9.9999052960E+00
                       1.5371447840E+01  9.6398796806E+00  9.9999052960E+00
                       4.6283627518E+00  9.6398796806E+00  9.9999052959E+00
                      -1.0662465930E-12  1.5205102262E-01 -1.0662465930E-12
            xcart8     4.9948475804E+00  4.9119139647E+00  4.9948475804E+00
                       1.4984542741E+01  1.4514912742E+01  1.4984542741E+01
                       9.9896951608E+00  1.3963418404E+01  9.9896951608E+00
                       9.9896951608E+00  9.6300149712E+00  4.6277801901E+00
                       9.9896951607E+00  9.6300149712E+00  1.5351610131E+01
                       9.9896951607E+00  4.7615828229E+00  9.9896951607E+00
                       1.5351610131E+01  9.6300149712E+00  9.9896951607E+00
                       4.6277801901E+00  9.6300149712E+00  9.9896951608E+00
                       2.6192271895E-12  1.5210239920E-01  2.6192271895E-12
            xcart9     4.9905963893E+00  4.9047901379E+00  4.9905963893E+00
                       1.4971789168E+01  1.4495094817E+01  1.4971789168E+01
                       9.9811927786E+00  1.3940822396E+01  9.9811927786E+00
                       9.9811927786E+00  9.6170747038E+00  4.6272380941E+00
                       9.9811927786E+00  9.6170747038E+00  1.5335147463E+01
                       9.9811927786E+00  4.7611987741E+00  9.9811927786E+00
                       1.5335147463E+01  9.6170747038E+00  9.9811927786E+00
                       4.6272380941E+00  9.6170747038E+00  9.9811927786E+00
                       4.7851627937E-13  1.5223248923E-01  4.7851627937E-13
            xcart10    4.9860247089E+00  4.8982097272E+00  4.9860247089E+00
                       1.4958074127E+01  1.4477053019E+01  1.4958074127E+01
                       9.9720494178E+00  1.3920552463E+01  9.9720494178E+00
                       9.9720494178E+00  9.6052751119E+00  4.6266759038E+00
                       9.9720494177E+00  9.6052751119E+00  1.5317422932E+01
                       9.9720494177E+00  4.7612815892E+00  9.9720494177E+00
                       1.5317422932E+01  9.6052751119E+00  9.9720494177E+00
                       4.6266759038E+00  9.6052751119E+00  9.9720494178E+00
                       2.1945554747E-12  1.5254909055E-01  2.1945554747E-12
             xred1     2.5587441998E-01  2.4412558002E-01  2.5587441998E-01
                       7.5587441998E-01  7.4412558002E-01  7.5587441998E-01
                       7.2807833802E-01  2.7192166198E-01  7.2807833802E-01
                       2.3173977165E-01  2.2867928412E-01  7.7132071588E-01
                       7.7132071588E-01  7.6826022835E-01  2.3173977165E-01
                       2.4623365839E-01  7.5376634161E-01  2.4623365839E-01
                       2.3173977165E-01  7.6826022835E-01  7.7132071588E-01
                       7.7132071588E-01  2.2867928412E-01  2.3173977165E-01
                       7.8181885330E-03 -7.8181885330E-03  7.8181885330E-03
             xred2     2.5586736712E-01  2.4413263288E-01  2.5586736712E-01
                       7.5586736712E-01  7.4413263288E-01  7.5586736712E-01
                       7.2792826696E-01  2.7207173304E-01  7.2792826696E-01
                       2.3192406161E-01  2.2890431778E-01  7.7109568222E-01
                       7.7109568222E-01  7.6807593839E-01  2.3192406161E-01
                       2.4646502968E-01  7.5353497032E-01  2.4646502968E-01
                       2.3192406161E-01  7.6807593839E-01  7.7109568222E-01
                       7.7109568222E-01  2.2890431778E-01  2.3192406161E-01
                       7.8324814210E-03 -7.8324814210E-03  7.8324814210E-03
             xred3     2.5584770227E-01  2.4415229773E-01  2.5584770227E-01
                       7.5584770227E-01  7.4415229773E-01  7.5584770227E-01
                       7.2777835979E-01  2.7222164021E-01  7.2777835979E-01
                       2.3210405060E-01  2.2912855051E-01  7.7087144949E-01
                       7.7087144949E-01  7.6789594940E-01  2.3210405060E-01
                       2.4672067681E-01  7.5327932319E-01  2.4672067681E-01
                       2.3210405060E-01  7.6789594940E-01  7.7087144949E-01
                       7.7087144949E-01  2.2912855051E-01  2.3210405060E-01
                       7.8545586694E-03 -7.8545586694E-03  7.8545586694E-03
             xred4     2.5579577626E-01  2.4420422374E-01  2.5579577626E-01
                       7.5579577626E-01  7.4420422374E-01  7.5579577626E-01
                       7.2760466651E-01  2.7239533349E-01  7.2760466651E-01
                       2.3228898074E-01  2.2932108111E-01  7.7067891889E-01
                       7.7067891889E-01  7.6771101926E-01  2.3228898074E-01
                       2.4699449849E-01  7.5300550151E-01  2.4699449849E-01
                       2.3228898074E-01  7.6771101926E-01  7.7067891889E-01
                       7.7067891889E-01  2.2932108111E-01  2.3228898074E-01
                       7.8734832155E-03 -7.8734832155E-03  7.8734832155E-03
             xred5     2.5579570160E-01  2.4420429840E-01  2.5579570160E-01
                       7.5579570160E-01  7.4420429840E-01  7.5579570160E-01
                       7.2747950194E-01  2.7252049806E-01  7.2747950194E-01
                       2.3248507973E-01  2.2955898481E-01  7.7044101519E-01
                       7.7044101519E-01  7.6751492027E-01  2.3248507973E-01
                       2.4719585926E-01  7.5280414074E-01  2.4719585926E-01
                       2.3248507973E-01  7.6751492027E-01  7.7044101519E-01
                       7.7044101519E-01  2.2955898481E-01  2.3248507973E-01
                       7.8810457417E-03 -7.8810457417E-03  7.8810457417E-03
             xred6     2.5575847043E-01  2.4424152957E-01  2.5575847043E-01
                       7.5575847043E-01  7.4424152957E-01  7.5575847043E-01
                       7.2729428443E-01  2.7270571557E-01  7.2729428443E-01
                       2.3265879839E-01  2.2975337577E-01  7.7024662423E-01
                       7.7024662423E-01  7.6734120161E-01  2.3265879839E-01
                       2.4747932158E-01  7.5252067842E-01  2.4747932158E-01
                       2.3265879839E-01  7.6734120161E-01  7.7024662423E-01
                       7.7024662423E-01  2.2975337577E-01  2.3265879839E-01
                       7.8986078410E-03 -7.8986078410E-03  7.8986078410E-03
             xred7     2.5575719151E-01  2.4424280849E-01  2.5575719151E-01
                       7.5575719151E-01  7.4424280849E-01  7.5575719151E-01
                       7.2717467830E-01  2.7282532170E-01  7.2717467830E-01
                       2.3284917908E-01  2.2999147939E-01  7.7000852061E-01
                       7.7000852061E-01  7.6715082092E-01  2.3284917908E-01
                       2.4768643960E-01  7.5231356040E-01  2.4768643960E-01
                       2.3284917908E-01  7.6715082092E-01  7.7000852061E-01
                       7.7000852061E-01  2.2999147939E-01  2.3284917908E-01
                       7.9090996899E-03 -7.9090996899E-03  7.9090996899E-03
             xred8     2.5574896335E-01  2.4425103665E-01  2.5574896335E-01
                       7.5574896335E-01  7.4425103665E-01  7.5574896335E-01
                       7.2703426960E-01  2.7296573040E-01  7.2703426960E-01
                       2.3303435216E-01  2.3022104409E-01  7.6977895591E-01
                       7.6977895591E-01  7.6696564784E-01  2.3303435216E-01
                       2.4792166142E-01  7.5207833858E-01  2.4792166142E-01
                       2.3303435216E-01  7.6696564784E-01  7.6977895591E-01
                       7.6977895591E-01  2.3022104409E-01  2.3303435216E-01
                       7.9195261149E-03 -7.9195261149E-03  7.9195261149E-03
             xred9     2.5571607484E-01  2.4428392516E-01  2.5571607484E-01
                       7.5571607484E-01  7.4428392516E-01  7.5571607484E-01
                       7.2681853515E-01  2.7318146485E-01  7.2681853515E-01
                       2.3319353374E-01  2.3040217038E-01  7.6959782962E-01
                       7.6959782962E-01  7.6680646626E-01  2.3319353374E-01
                       2.4822979736E-01  7.5177020264E-01  2.4822979736E-01
                       2.3319353374E-01  7.6680646626E-01  7.6959782962E-01
                       7.6959782962E-01  2.3040217038E-01  2.3319353374E-01
                       7.9367910788E-03 -7.9367910788E-03  7.9367910788E-03
             xred10    2.5567856044E-01  2.4432143956E-01  2.5567856044E-01
                       7.5567856044E-01  7.4432143956E-01  7.5567856044E-01
                       7.2663013884E-01  2.7336986116E-01  7.2663013884E-01
                       2.3336189684E-01  2.3060250105E-01  7.6939749895E-01
                       7.6939749895E-01  7.6663810316E-01  2.3336189684E-01
                       2.4853113492E-01  7.5146886508E-01  2.4853113492E-01
                       2.3336189684E-01  7.6663810316E-01  7.6939749895E-01
                       7.6939749895E-01  2.3060250105E-01  2.3336189684E-01
                       7.9628137710E-03 -7.9628137710E-03  7.9628137710E-03
            znucl       55.00000   53.00000   72.00000   17.00000

================================================================================

 chkinp: Checking input parameters for consistency, jdtset=   1.

 chkinp: Checking input parameters for consistency, jdtset=   2.

 chkinp: Checking input parameters for consistency, jdtset=   3.

 chkinp: Checking input parameters for consistency, jdtset=   4.

 chkinp: Checking input parameters for consistency, jdtset=   5.

 chkinp: Checking input parameters for consistency, jdtset=   6.

 chkinp: Checking input parameters for consistency, jdtset=   7.

 chkinp: Checking input parameters for consistency, jdtset=   8.

 chkinp: Checking input parameters for consistency, jdtset=   9.

 chkinp: Checking input parameters for consistency, jdtset=  10.

================================================================================
== DATASET  1 ==================================================================
-   mpi_nproc: 8, omp_nthreads: -1 (-1 if OMP is not activated)


--- !DatasetInfo
iteration_state: {dtset: 1, }
dimensions: {natom: 9, nkpt: 163, mband: 42, nsppol: 1, nspinor: 1, nspden: 1, mpw: 6040, }
cutoff_energies: {ecut:  16.0, pawecutdg:  40.0, }
electrons: {nelect:   7.20000000E+01, charge:   0.00000000E+00, occopt:   1.00000000E+00, tsmear:   1.00000000E-02, }
meta: {optdriver: 0, ionmov: 0, optcell: 0, iscf: 17, paral_kgb: 0, }
...

 Real(R)+Recip(G) space primitive vectors, cartesian coordinates (Bohr,Bohr^-1):
 R(1)=  0.0000000  9.6714550 10.0598264  G(1)= -0.0497026  0.0516985  0.0497026
 R(2)= 10.0598264  0.0000000 10.0598264  G(2)=  0.0497026 -0.0516985  0.0497026
 R(3)= 10.0598264  9.6714550  0.0000000  G(3)=  0.0497026  0.0516985 -0.0497026
 Unit cell volume ucvol=  1.9575046E+03 bohr^3
 Angles (23,13,12)=  5.93533019E+01  6.12933962E+01  5.93533019E+01 degrees

 Coarse grid specifications (used for wave-functions):

 getcut: wavevector=  0.0000  0.0000  0.0000  ngfft=  54  54  54
         ecut(hartree)=     16.000   => boxcut(ratio)=   2.10875

 Fine grid specifications (used for densities):

 getcut: wavevector=  0.0000  0.0000  0.0000  ngfft=  90  90  90
         ecut(hartree)=     40.000   => boxcut(ratio)=   2.22229

 getcut : COMMENT -
  Note that boxcut > 2.2 ; recall that boxcut=Gcut(box)/Gcut(sphere) = 2
  is sufficient for exact treatment of convolution.
  Such a large boxcut is a waste : you could raise ecut
  e.g. ecut=   49.385540 Hartrees makes boxcut=2


--- Pseudopotential description ------------------------------------------------
- pspini: atom type   1  psp file is ../../../Psps_for_tests/ATOMICDATA/Cs.GGA_PBE-JTH.xml
- pspatm: opening atomic psp file    ../../../Psps_for_tests/ATOMICDATA/Cs.GGA_PBE-JTH.xml
- pspatm : Reading pseudopotential header in XML form from ../../../Psps_for_tests/ATOMICDATA/Cs.GGA_PBE-JTH.xml
 Pseudopotential format is: paw10
 basis_size (lnmax)=  6 (lmn_size= 18), orbitals=   0   0   1   1   2   2
 Spheres core radius: rc_sph= 2.20660278
 1 radial meshes are used:
  - mesh 1: r(i)=AA*[exp(BB*(i-1))-1], size=1500 , AA= 0.15922E-03 BB= 0.87573E-02
 Shapefunction is SIN type: shapef(r)=[sin(pi*r/rshp)/(pi*r/rshp)]**2
 Radius for shape functions =  2.00394208
 mmax= 1500
 Radial grid used for partial waves is grid 1
 Radial grid used for projectors is grid 1
 Radial grid used for (t)core density is grid 1
 Radial grid used for Vloc is grid 1
 Radial grid used for pseudo valence density is grid 1
 Mesh size for Vloc has been set to 1341 to avoid numerical noise.
 Compensation charge density is not taken into account in XC energy/potential
 pspatm: atomic psp has been read  and splines computed

- pspini: atom type   2  psp file is ../../../Psps_for_tests/ATOMICDATA/I.GGA_PBE-JTH.xml
- pspatm: opening atomic psp file    ../../../Psps_for_tests/ATOMICDATA/I.GGA_PBE-JTH.xml
- pspatm : Reading pseudopotential header in XML form from ../../../Psps_for_tests/ATOMICDATA/I.GGA_PBE-JTH.xml
 Pseudopotential format is: paw10
 basis_size (lnmax)=  4 (lmn_size=  8), orbitals=   0   0   1   1
 Spheres core radius: rc_sph= 2.30022271
 1 radial meshes are used:
  - mesh 1: r(i)=AA*[exp(BB*(i-1))-1], size=2000 , AA= 0.12610E-03 BB= 0.66836E-02
 Shapefunction is SIN type: shapef(r)=[sin(pi*r/rshp)/(pi*r/rshp)]**2
 Radius for shape functions =  2.10879093
 mmax= 2000
 Radial grid used for partial waves is grid 1
 Radial grid used for projectors is grid 1
 Radial grid used for (t)core density is grid 1
 Radial grid used for Vloc is grid 1
 Radial grid used for pseudo valence density is grid 1
 Mesh size for Vloc has been set to 1792 to avoid numerical noise.
 Compensation charge density is not taken into account in XC energy/potential
 pspatm: atomic psp has been read  and splines computed

- pspini: atom type   3  psp file is ../../../Psps_for_tests/ATOMICDATA/Hf.GGA_PBE-JTH.xml
- pspatm: opening atomic psp file    ../../../Psps_for_tests/ATOMICDATA/Hf.GGA_PBE-JTH.xml
- pspatm : Reading pseudopotential header in XML form from ../../../Psps_for_tests/ATOMICDATA/Hf.GGA_PBE-JTH.xml
 Pseudopotential format is: paw10
 basis_size (lnmax)=  6 (lmn_size= 18), orbitals=   0   0   1   1   2   2
 Spheres core radius: rc_sph= 2.41000000
 1 radial meshes are used:
  - mesh 1: r(i)=AA*[exp(BB*(i-1))-1], size= 972 , AA= 0.19796E-03 BB= 0.14253E-01
 Shapefunction is SIN type: shapef(r)=[sin(pi*r/rshp)/(pi*r/rshp)]**2
 Radius for shape functions =  2.41000000
 mmax=  972
 Radial grid used for partial waves is grid 1
 Radial grid used for projectors is grid 1
 Radial grid used for (t)core density is grid 1
 Radial grid used for Vloc is grid 1
 Radial grid used for pseudo valence density is grid 1
 Mesh size for Vloc has been set to  809 to avoid numerical noise.
 Compensation charge density is not taken into account in XC energy/potential
 pspatm: atomic psp has been read  and splines computed

- pspini: atom type   4  psp file is ../../../Psps_for_tests/ATOMICDATA/Cl.GGA_PBE-JTH.xml
- pspatm: opening atomic psp file    ../../../Psps_for_tests/ATOMICDATA/Cl.GGA_PBE-JTH.xml
- pspatm : Reading pseudopotential header in XML form from ../../../Psps_for_tests/ATOMICDATA/Cl.GGA_PBE-JTH.xml
 Pseudopotential format is: paw10
 basis_size (lnmax)=  4 (lmn_size=  8), orbitals=   0   0   1   1
 Spheres core radius: rc_sph= 1.80315674
 1 radial meshes are used:
  - mesh 1: r(i)=AA*[exp(BB*(i-1))-1], size=1400 , AA= 0.50355E-03 BB= 0.85603E-02
 Shapefunction is SIN type: shapef(r)=[sin(pi*r/rshp)/(pi*r/rshp)]**2
 Radius for shape functions =  1.61320365
 mmax= 1400
 Radial grid used for partial waves is grid 1
 Radial grid used for projectors is grid 1
 Radial grid used for (t)core density is grid 1
 Radial grid used for Vloc is grid 1
 Radial grid used for pseudo valence density is grid 1
 Mesh size for Vloc has been set to 1238 to avoid numerical noise.
 Compensation charge density is not taken into account in XC energy/potential
 pspatm: atomic psp has been read  and splines computed

   2.14177064E+04                                ecore*ucvol(ha*bohr**3)
--------------------------------------------------------------------------------

_setup2: Arith. and geom. avg. npw (full set) are    5984.204    5984.193

================================================================================

--- !BeginCycle
iteration_state: {dtset: 1, }
solver: {iscf: 17, nstep: 2500, nline: 4, wfoptalg: 10, }
tolerances: {toldfe: 1.00E-08, }
...

     iter   Etot(hartree)      deltaE(h)  residm     nres2
 ETOT  1  -176.65394682179    -1.767E+02 6.506E+00 7.333E+00
 ETOT  2  -178.87397060787    -2.220E+00 3.977E-02 7.084E+00
 ETOT  3  -178.84459226424     2.938E-02 1.552E-02 1.086E+00
 ETOT  4  -178.84418600103     4.063E-04 7.603E-03 1.739E-01
 ETOT  5  -178.84455534863    -3.693E-04 5.377E-03 1.824E-02
 ETOT  6  -178.84463697614    -8.163E-05 2.741E-03 1.956E-03
 ETOT  7  -178.84465240837    -1.543E-05 2.240E-03 3.287E-04
 ETOT  8  -178.84465550029    -3.092E-06 1.781E-03 6.718E-05
 ETOT  9  -178.84465568519    -1.849E-07 1.507E-03 1.078E-05
 ETOT 10  -178.84465575123    -6.604E-08 1.382E-03 3.935E-06
 ETOT 11  -178.84465574473     6.501E-09 1.041E-03 6.759E-07
 ETOT 12  -178.84465574784    -3.110E-09 1.002E-03 3.536E-07

 At SCF step   12, etot is converged : 
  for the second time, diff in etot=  3.110E-09 < toldfe=  1.000E-08

 Cartesian components of stress tensor (hartree/bohr^3)
  sigma(1 1)= -5.96753285E-05  sigma(3 2)=  1.10076085E-14
  sigma(2 2)= -5.97317153E-05  sigma(3 1)= -2.11639268E-14
  sigma(3 3)= -5.96753285E-05  sigma(2 1)=  1.10074629E-14


--- !ResultsGS
iteration_state: {dtset: 1, }
comment   : Summary of ground state results
lattice_vectors:
- [  0.0000000,   9.6714550,  10.0598264, ]
- [ 10.0598264,   0.0000000,  10.0598264, ]
- [ 10.0598264,   9.6714550,   0.0000000, ]
lattice_lengths: [  13.95483,   14.22674,   13.95483, ]
lattice_angles: [ 59.353,  61.293,  59.353, ] # degrees, (23, 13, 12)
lattice_volume:   1.9575046E+03
convergence: {deltae: -3.110E-09, res2:  3.536E-07, residm:  1.002E-03, diffor: null, }
etotal    :  -1.78844656E+02
entropy   :   0.00000000E+00
fermie    :  -1.49570829E-02
cartesian_stress_tensor: # hartree/bohr^3
- [ -5.96753285E-05,   1.10074629E-14,  -2.11639268E-14, ]
- [  1.10074629E-14,  -5.97317153E-05,   1.10076085E-14, ]
- [ -2.11639268E-14,   1.10076085E-14,  -5.96753285E-05, ]
pressure_GPa:   1.7563E+00
xred      :
- [  2.5587E-01,   2.4413E-01,   2.5587E-01, Cs]
- [  7.5587E-01,   7.4413E-01,   7.5587E-01, Cs]
- [  7.2808E-01,   2.7192E-01,   7.2808E-01,  I]
- [  2.3174E-01,   2.2868E-01,   7.7132E-01, Cl]
- [  7.7132E-01,   7.6826E-01,   2.3174E-01, Cl]
- [  2.4623E-01,   7.5377E-01,   2.4623E-01, Cl]
- [  2.3174E-01,   7.6826E-01,   7.7132E-01, Cl]
- [  7.7132E-01,   2.2868E-01,   2.3174E-01, Cl]
- [  7.8182E-03,  -7.8182E-03,   7.8182E-03, Hf]
cartesian_forces: # hartree/bohr
- [  3.27453289E-23,  -7.89656074E-06,  -6.12170321E-23, ]
- [ -5.14542298E-23,  -7.89656074E-06,   2.29825266E-23, ]
- [ -9.70012082E-25,  -8.04751470E-06,  -2.75016911E-23, ]
- [ -8.72940572E-17,   3.02458871E-05,   4.56148949E-05, ]
- [  8.72922920E-17,   3.02458871E-05,  -4.56148949E-05, ]
- [  3.75649428E-21,  -8.51011837E-05,  -3.78496598E-21, ]
- [ -4.56148949E-05,   3.02458871E-05,   8.72913086E-17, ]
- [  4.56148949E-05,   3.02458871E-05,  -8.72873860E-17, ]
- [ -8.83910087E-23,  -1.20417285E-05,   5.99193055E-23, ]
force_length_stats: {min:   7.89656074E-06, max:   8.51011837E-05, mean:   3.77677082E-05, }
...

 Integrated electronic density in atomic spheres:
 ------------------------------------------------
 Atom  Sphere_radius  Integrated_density
    1        2.20660          5.37045690
    2        2.20660          5.37045690
    3        2.30022          4.04709136
    4        1.80316          4.37401250
    5        1.80316          4.37401250
    6        1.80316          4.35686342
    7        1.80316          4.37401250
    8        1.80316          4.37401250
    9        2.41000          9.34564817

 PAW TEST:
 ==== Compensation charge inside spheres ============
 The following values must be close to each other ...
 Compensation charge over spherical meshes =     -1.311388761226239
 Compensation charge over fine fft grid    =     -1.311384115071983

 ==== Results concerning PAW augmentation regions ====

 Total pseudopotential strength Dij (hartree):
 Atom #  1
   0.41694  -0.13820  -0.00000   0.00000   0.00000   0.00001   0.00000   0.00000   0.00000   0.00000  -0.00000   0.00000 ...
  -0.13820   0.04147   0.00000   0.00000   0.00000  -0.00000   0.00000   0.00000   0.00000   0.00000   0.00000  -0.00000 ...
  -0.00000   0.00000  -0.09071   0.00000   0.00000  -0.16828   0.00000   0.00000   0.00000   0.00000   0.00000  -0.00000 ...
   0.00000   0.00000   0.00000  -0.09071   0.00000   0.00000  -0.16828  -0.00000  -0.00000  -0.00000   0.00000   0.00000 ...
   0.00000   0.00000   0.00000   0.00000  -0.09071   0.00000  -0.00000  -0.16828  -0.00000  -0.00000   0.00000   0.00000 ...
   0.00001  -0.00000  -0.16828   0.00000   0.00000   0.39697   0.00000   0.00000   0.00000   0.00000  -0.00000   0.00000 ...
   0.00000   0.00000   0.00000  -0.16828  -0.00000   0.00000   0.39695   0.00002   0.00000   0.00000   0.00000   0.00000 ...
   0.00000   0.00000   0.00000  -0.00000  -0.16828   0.00000   0.00002   0.39695   0.00000   0.00000   0.00000   0.00000 ...
   0.00000   0.00000   0.00000  -0.00000  -0.00000   0.00000   0.00000   0.00000   0.00563   0.00000   0.00000   0.00000 ...
   0.00000   0.00000   0.00000  -0.00000  -0.00000   0.00000   0.00000   0.00000   0.00000   0.00563   0.00000   0.00000 ...
  -0.00000   0.00000   0.00000   0.00000   0.00000  -0.00000   0.00000   0.00000   0.00000   0.00000   0.00563   0.00000 ...
   0.00000  -0.00000  -0.00000   0.00000   0.00000   0.00000   0.00000   0.00000   0.00000   0.00000   0.00000   0.00563 ...
   ...  only 12  components have been written...
 Atom #  9
  -3.48488   0.41625   0.00022   0.00000   0.00000  -0.00004   0.00000   0.00000   0.00000   0.00000   0.00003   0.00000 ...
   0.41625   0.00519  -0.00003   0.00000   0.00000   0.00001   0.00000   0.00000   0.00000   0.00000  -0.00000   0.00000 ...
   0.00022  -0.00003  -1.40121   0.00000   0.00000   0.11236   0.00000   0.00000   0.00000   0.00000  -0.00006   0.00000 ...
   0.00000   0.00000   0.00000  -1.40105   0.00000   0.00000   0.11233   0.00000   0.00000   0.00008   0.00000   0.00000 ...
   0.00000   0.00000   0.00000   0.00000  -1.40105   0.00000   0.00000   0.11233   0.00008   0.00000   0.00000   0.00000 ...
  -0.00004   0.00001   0.11236   0.00000   0.00000   0.01520   0.00000   0.00000   0.00000   0.00000   0.00001   0.00000 ...
   0.00000   0.00000   0.00000   0.11233   0.00000   0.00000   0.01521   0.00000   0.00000  -0.00001   0.00000   0.00000 ...
   0.00000   0.00000   0.00000   0.00000   0.11233   0.00000   0.00000   0.01521  -0.00001   0.00000   0.00000   0.00000 ...
   0.00000   0.00000   0.00000   0.00000   0.00008   0.00000   0.00000  -0.00001  -0.38348   0.00000   0.00000   0.00000 ...
   0.00000   0.00000   0.00000   0.00008   0.00000   0.00000  -0.00001   0.00000   0.00000  -0.38348   0.00000   0.00000 ...
   0.00003  -0.00000  -0.00006   0.00000   0.00000   0.00001   0.00000   0.00000   0.00000   0.00000  -0.38282   0.00000 ...
   0.00000   0.00000   0.00000   0.00000   0.00000   0.00000   0.00000   0.00000   0.00000   0.00000   0.00000  -0.38345 ...
   ...  only 12  components have been written...


 Augmentation waves occupancies Rhoij:
 Atom #  1
   1.99885  -0.01220   0.00005   0.00000   0.00000  -0.00003   0.00000   0.00000   0.00000   0.00000  -0.00149   0.00445 ...
  -0.01220   0.15795  -0.00219   0.00000   0.00000   0.00001   0.00000   0.00000   0.00000   0.00000   0.01014  -0.03719 ...
   0.00005  -0.00219   2.00839   0.00000   0.00000  -0.00449   0.00000   0.00000   0.00000   0.00000   0.00150  -0.00093 ...
   0.00000   0.00000   0.00000   2.01196  -0.00329   0.00000  -0.00503   0.00051  -0.00123  -0.00070   0.00000   0.00000 ...
   0.00000   0.00000   0.00000  -0.00329   2.01196   0.00000   0.00051  -0.00503  -0.00070  -0.00123   0.00000   0.00000 ...
  -0.00003   0.00001  -0.00449   0.00000   0.00000   0.00010   0.00000   0.00000   0.00000   0.00000  -0.00007  -0.00002 ...
   0.00000   0.00000   0.00000  -0.00503   0.00051   0.00000   0.00013  -0.00004  -0.00000  -0.00006   0.00000   0.00000 ...
   0.00000   0.00000   0.00000   0.00051  -0.00503   0.00000  -0.00004   0.00013  -0.00006  -0.00000   0.00000   0.00000 ...
   0.00000   0.00000   0.00000  -0.00123  -0.00070   0.00000  -0.00000  -0.00006   0.04554  -0.00198   0.00000   0.00000 ...
   0.00000   0.00000   0.00000  -0.00070  -0.00123   0.00000  -0.00006  -0.00000  -0.00198   0.04554   0.00000   0.00000 ...
  -0.00149   0.01014   0.00150   0.00000   0.00000  -0.00007   0.00000   0.00000   0.00000   0.00000   0.03290  -0.01152 ...
   0.00445  -0.03719  -0.00093   0.00000   0.00000  -0.00002   0.00000   0.00000   0.00000   0.00000  -0.01152   0.07388 ...
   ...  only 12  components have been written...
 Atom #  9
   1.99782  -0.02317   0.00001   0.00000   0.00000  -0.00043   0.00000   0.00000   0.00000   0.00000  -0.00026   0.00000 ...
  -0.02317   1.00666  -0.00238   0.00000   0.00000   0.03230   0.00000   0.00000   0.00000   0.00000   0.01365   0.00000 ...
   0.00001  -0.00238   1.99248   0.00000   0.00000  -0.06645   0.00000   0.00000   0.00000   0.00000   0.00014   0.00000 ...
   0.00000   0.00000   0.00000   1.99221   0.00000   0.00000  -0.07189   0.00000   0.00000   0.00154   0.00000   0.00000 ...
   0.00000   0.00000   0.00000   0.00000   1.99221   0.00000   0.00000  -0.07189   0.00154   0.00000   0.00000   0.00000 ...
  -0.00043   0.03230  -0.06645   0.00000   0.00000   1.34418   0.00000   0.00000   0.00000   0.00000  -0.08370   0.00000 ...
   0.00000   0.00000   0.00000  -0.07189   0.00000   0.00000   1.47225   0.00000   0.00000  -0.04150   0.00000   0.00000 ...
   0.00000   0.00000   0.00000   0.00000  -0.07189   0.00000   0.00000   1.47225  -0.04150   0.00000   0.00000   0.00000 ...
   0.00000   0.00000   0.00000   0.00000   0.00154   0.00000   0.00000  -0.04150   0.53433   0.00000   0.00000   0.00000 ...
   0.00000   0.00000   0.00000   0.00154   0.00000   0.00000  -0.04150   0.00000   0.00000   0.53433   0.00000   0.00000 ...
  -0.00026   0.01365   0.00014   0.00000   0.00000  -0.08370   0.00000   0.00000   0.00000   0.00000   1.68156   0.00000 ...
   0.00000   0.00000   0.00000   0.00000   0.00000   0.00000   0.00000   0.00000   0.00000   0.00000   0.00000   0.54619 ...
   ...  only 12  components have been written...


================================================================================

 ----iterations are completed or convergence reached----

 Mean square residual over all n,k,spin=   40.723E-07; max=  10.025E-04
 reduced coordinates (array xred) for    9 atoms
       0.255874419980      0.244125580020      0.255874419980
       0.755874419980      0.744125580020      0.755874419980
       0.728078338020      0.271921661980      0.728078338020
       0.231739771650      0.228679284120      0.771320715880
       0.771320715880      0.768260228350      0.231739771650
       0.246233658390      0.753766341610      0.246233658390
       0.231739771650      0.768260228350      0.771320715880
       0.771320715880      0.228679284120      0.231739771650
       0.007818188533     -0.007818188533      0.007818188533
 rms dE/dt=  3.8045E-04; max dE/dt=  7.4086E-04; dE/dt below (all hartree)
    1      -0.000005823291      0.000000000000     -0.000005823291
    2      -0.000005823291      0.000000000000     -0.000005823291
    3      -0.000004363346      0.000000000000     -0.000004363346
    4      -0.000833594186     -0.000458877926     -0.000374716259
    5       0.000084161667      0.000458877926     -0.000374716259
    6       0.000740857748      0.000000000000      0.000740857748
    7      -0.000374716259      0.000458877926      0.000084161667
    8      -0.000374716259     -0.000458877926     -0.000833594186
    9       0.000034266512      0.000000000000      0.000034266512

 cartesian coordinates (angstrom) at end:
    1      2.66171543916917     2.61908633465475     2.66171543916917
    2      7.98514631750775     7.73699990893752     7.98514631750775
    3      5.32343087833394     7.45248401858759     5.32343087833394
    4      5.32343087833305     5.13357688495648     2.45100901846148
    5      5.32343087834405     5.13357688495648     8.19585273821562
    6      5.32343087834375     2.52040516543898     5.32343087834375
    7      8.19585273821562     5.13357688495648     5.32343087834405
    8      2.45100901846148     5.13357688495648     5.32343087833305
    9     -0.00000000000016     0.08002562643869    -0.00000000000016

 cartesian forces (hartree/bohr) at end:
    1      0.00000000000000    -0.00000789656074    -0.00000000000000
    2     -0.00000000000000    -0.00000789656074     0.00000000000000
    3     -0.00000000000000    -0.00000804751470    -0.00000000000000
    4     -0.00000000000000     0.00003024588708     0.00004561489491
    5      0.00000000000000     0.00003024588708    -0.00004561489491
    6      0.00000000000000    -0.00008510118366    -0.00000000000000
    7     -0.00004561489491     0.00003024588708     0.00000000000000
    8      0.00004561489491     0.00003024588708    -0.00000000000000
    9     -0.00000000000000    -0.00001204172845     0.00000000000000
 frms,max,avg= 2.6914692E-05 8.5101184E-05   0.000E+00  8.499E-06  0.000E+00 h/b

 cartesian forces (eV/Angstrom) at end:
    1      0.00000000000000    -0.00040605744554    -0.00000000000000
    2     -0.00000000000000    -0.00040605744554     0.00000000000000
    3     -0.00000000000000    -0.00041381980957    -0.00000000000000
    4     -0.00000000000000     0.00155530591652     0.00234561200882
    5      0.00000000000000     0.00155530591651    -0.00234561200882
    6      0.00000000000000    -0.00437607844394    -0.00000000000000
    7     -0.00234561200882     0.00155530591651     0.00000000000000
    8      0.00234561200882     0.00155530591652    -0.00000000000000
    9     -0.00000000000000    -0.00061921052149     0.00000000000000
 frms,max,avg= 1.3840090E-03 4.3760784E-03   0.000E+00  4.370E-04  0.000E+00 e/A
 length scales= 13.954825348000 14.226742997000 13.954825348000 bohr
              =  7.384575524016  7.528468146480  7.384575524016 angstroms
 prteigrs : about to open file Cs2TiI6o_DS1_EIG
 Fermi (or HOMO) energy (hartree) =  -0.01496   Average Vxc (hartree)=  -0.30776
 Eigenvalues (hartree) for nkpt= 163  k points:
 kpt#   1, nband= 42, wtk=  0.00058, kpt=  0.0000  0.0000  0.0000 (reduced coord)
  -2.30014   -1.14618   -1.14618   -1.14539   -0.74666   -0.74597   -0.54561   -0.52894
  -0.52846   -0.52627   -0.52627   -0.41468   -0.27094   -0.27030   -0.27030   -0.26488
  -0.26488   -0.26379   -0.17883   -0.13348   -0.12619   -0.12454   -0.12287   -0.12287
  -0.11871   -0.11871   -0.10556   -0.08318   -0.07888   -0.07888   -0.06492   -0.06492
  -0.06094   -0.03409   -0.01496   -0.01496    0.09267    0.09267    0.09820    0.16321
   0.17523    0.17701
 prteigrs : prtvol=0 or 1, do not print more k-points.


--- !EnergyTerms
iteration_state     : {dtset: 1, }
comment             : Components of total free energy in Hartree
kinetic             :  5.16812697644318E+01
hartree             :  4.01381204600186E+01
xc                  : -5.60764678529644E+01
Ewald energy        : -1.28229251274200E+02
psp_core            :  1.09413313758414E+01
local_psp           : -1.08719802548769E+02
spherical_terms     :  1.14201077277991E+01
total_energy        : -1.78844692347842E+02
total_energy_eV     : -4.86661157480074E+03
...


--- !EnergyTermsDC
iteration_state     : {dtset: 1, }
comment             : '"Double-counting" decomposition of free energy'
band_energy         : -2.72442968193601E+01
Ewald energy        : -1.28229251274200E+02
psp_core            :  1.09413313758414E+01
xc_dc               : -5.48254922245793E+01
spherical_terms     :  2.05130531944588E+01
total_energy_dc     : -1.78844655747840E+02
total_energy_dc_eV  : -4.86661057886402E+03
...


 Cartesian components of stress tensor (hartree/bohr^3)
  sigma(1 1)= -5.96753285E-05  sigma(3 2)=  1.10076085E-14
  sigma(2 2)= -5.97317153E-05  sigma(3 1)= -2.11639268E-14
  sigma(3 3)= -5.96753285E-05  sigma(2 1)=  1.10074629E-14

-Cartesian components of stress tensor (GPa)         [Pressure=  1.7563E+00 GPa]
- sigma(1 1)= -1.75570848E+00  sigma(3 2)=  3.23854968E-10
- sigma(2 2)= -1.75736744E+00  sigma(3 1)= -6.22664120E-10
- sigma(3 3)= -1.75570848E+00  sigma(2 1)=  3.23850684E-10

================================================================================
== DATASET  2 ==================================================================
-   mpi_nproc: 8, omp_nthreads: -1 (-1 if OMP is not activated)


--- !DatasetInfo
iteration_state: {dtset: 2, }
dimensions: {natom: 9, nkpt: 163, mband: 42, nsppol: 1, nspinor: 1, nspden: 1, mpw: 6024, }
cutoff_energies: {ecut:  16.0, pawecutdg:  40.0, }
electrons: {nelect:   7.20000000E+01, charge:   0.00000000E+00, occopt:   1.00000000E+00, tsmear:   1.00000000E-02, }
meta: {optdriver: 0, ionmov: 0, optcell: 0, iscf: 17, paral_kgb: 0, }
...

 Real(R)+Recip(G) space primitive vectors, cartesian coordinates (Bohr,Bohr^-1):
 R(1)=  0.0000000  9.6621218 10.0495756  G(1)= -0.0497533  0.0517485  0.0497533
 R(2)= 10.0495756  0.0000000 10.0495756  G(2)=  0.0497533 -0.0517485  0.0497533
 R(3)= 10.0495756  9.6621218  0.0000000  G(3)=  0.0497533  0.0517485 -0.0497533
 Unit cell volume ucvol=  1.9516321E+03 bohr^3
 Angles (23,13,12)=  5.93541825E+01  6.12916349E+01  5.93541825E+01 degrees

 Coarse grid specifications (used for wave-functions):

 getcut: wavevector=  0.0000  0.0000  0.0000  ngfft=  54  54  54
         ecut(hartree)=     16.000   => boxcut(ratio)=   2.11090

 Fine grid specifications (used for densities):

 getcut: wavevector=  0.0000  0.0000  0.0000  ngfft=  90  90  90
         ecut(hartree)=     40.000   => boxcut(ratio)=   2.22455

 getcut : COMMENT -
  Note that boxcut > 2.2 ; recall that boxcut=Gcut(box)/Gcut(sphere) = 2
  is sufficient for exact treatment of convolution.
  Such a large boxcut is a waste : you could raise ecut
  e.g. ecut=   49.486339 Hartrees makes boxcut=2


--- Pseudopotential description ------------------------------------------------
- pspini: atom type   1  psp file is ../../../Psps_for_tests/ATOMICDATA/Cs.GGA_PBE-JTH.xml
- pspatm: opening atomic psp file    ../../../Psps_for_tests/ATOMICDATA/Cs.GGA_PBE-JTH.xml
- pspatm : Reading pseudopotential header in XML form from ../../../Psps_for_tests/ATOMICDATA/Cs.GGA_PBE-JTH.xml
 Pseudopotential format is: paw10
 basis_size (lnmax)=  6 (lmn_size= 18), orbitals=   0   0   1   1   2   2
 Spheres core radius: rc_sph= 2.20660278
 1 radial meshes are used:
  - mesh 1: r(i)=AA*[exp(BB*(i-1))-1], size=1500 , AA= 0.15922E-03 BB= 0.87573E-02
 Shapefunction is SIN type: shapef(r)=[sin(pi*r/rshp)/(pi*r/rshp)]**2
 Radius for shape functions =  2.00394208
 mmax= 1500
 Radial grid used for partial waves is grid 1
 Radial grid used for projectors is grid 1
 Radial grid used for (t)core density is grid 1
 Radial grid used for Vloc is grid 1
 Radial grid used for pseudo valence density is grid 1
 Mesh size for Vloc has been set to 1341 to avoid numerical noise.
 Compensation charge density is not taken into account in XC energy/potential
 pspatm: atomic psp has been read  and splines computed

- pspini: atom type   2  psp file is ../../../Psps_for_tests/ATOMICDATA/I.GGA_PBE-JTH.xml
- pspatm: opening atomic psp file    ../../../Psps_for_tests/ATOMICDATA/I.GGA_PBE-JTH.xml
- pspatm : Reading pseudopotential header in XML form from ../../../Psps_for_tests/ATOMICDATA/I.GGA_PBE-JTH.xml
 Pseudopotential format is: paw10
 basis_size (lnmax)=  4 (lmn_size=  8), orbitals=   0   0   1   1
 Spheres core radius: rc_sph= 2.30022271
 1 radial meshes are used:
  - mesh 1: r(i)=AA*[exp(BB*(i-1))-1], size=2000 , AA= 0.12610E-03 BB= 0.66836E-02
 Shapefunction is SIN type: shapef(r)=[sin(pi*r/rshp)/(pi*r/rshp)]**2
 Radius for shape functions =  2.10879093
 mmax= 2000
 Radial grid used for partial waves is grid 1
 Radial grid used for projectors is grid 1
 Radial grid used for (t)core density is grid 1
 Radial grid used for Vloc is grid 1
 Radial grid used for pseudo valence density is grid 1
 Mesh size for Vloc has been set to 1792 to avoid numerical noise.
 Compensation charge density is not taken into account in XC energy/potential
 pspatm: atomic psp has been read  and splines computed

- pspini: atom type   3  psp file is ../../../Psps_for_tests/ATOMICDATA/Hf.GGA_PBE-JTH.xml
- pspatm: opening atomic psp file    ../../../Psps_for_tests/ATOMICDATA/Hf.GGA_PBE-JTH.xml
- pspatm : Reading pseudopotential header in XML form from ../../../Psps_for_tests/ATOMICDATA/Hf.GGA_PBE-JTH.xml
 Pseudopotential format is: paw10
 basis_size (lnmax)=  6 (lmn_size= 18), orbitals=   0   0   1   1   2   2
 Spheres core radius: rc_sph= 2.41000000
 1 radial meshes are used:
  - mesh 1: r(i)=AA*[exp(BB*(i-1))-1], size= 972 , AA= 0.19796E-03 BB= 0.14253E-01
 Shapefunction is SIN type: shapef(r)=[sin(pi*r/rshp)/(pi*r/rshp)]**2
 Radius for shape functions =  2.41000000
 mmax=  972
 Radial grid used for partial waves is grid 1
 Radial grid used for projectors is grid 1
 Radial grid used for (t)core density is grid 1
 Radial grid used for Vloc is grid 1
 Radial grid used for pseudo valence density is grid 1
 Mesh size for Vloc has been set to  809 to avoid numerical noise.
 Compensation charge density is not taken into account in XC energy/potential
 pspatm: atomic psp has been read  and splines computed

- pspini: atom type   4  psp file is ../../../Psps_for_tests/ATOMICDATA/Cl.GGA_PBE-JTH.xml
- pspatm: opening atomic psp file    ../../../Psps_for_tests/ATOMICDATA/Cl.GGA_PBE-JTH.xml
- pspatm : Reading pseudopotential header in XML form from ../../../Psps_for_tests/ATOMICDATA/Cl.GGA_PBE-JTH.xml
 Pseudopotential format is: paw10
 basis_size (lnmax)=  4 (lmn_size=  8), orbitals=   0   0   1   1
 Spheres core radius: rc_sph= 1.80315674
 1 radial meshes are used:
  - mesh 1: r(i)=AA*[exp(BB*(i-1))-1], size=1400 , AA= 0.50355E-03 BB= 0.85603E-02
 Shapefunction is SIN type: shapef(r)=[sin(pi*r/rshp)/(pi*r/rshp)]**2
 Radius for shape functions =  1.61320365
 mmax= 1400
 Radial grid used for partial waves is grid 1
 Radial grid used for projectors is grid 1
 Radial grid used for (t)core density is grid 1
 Radial grid used for Vloc is grid 1
 Radial grid used for pseudo valence density is grid 1
 Mesh size for Vloc has been set to 1238 to avoid numerical noise.
 Compensation charge density is not taken into account in XC energy/potential
 pspatm: atomic psp has been read  and splines computed

--------------------------------------------------------------------------------

_setup2: Arith. and geom. avg. npw (full set) are    5966.028    5966.017

================================================================================

--- !BeginCycle
iteration_state: {dtset: 2, }
solver: {iscf: 17, nstep: 2500, nline: 4, wfoptalg: 10, }
tolerances: {toldfe: 1.00E-08, }
...

     iter   Etot(hartree)      deltaE(h)  residm     nres2
 ETOT  1  -176.58630461708    -1.766E+02 6.511E+00 7.054E+00
 ETOT  2  -178.87672274370    -2.290E+00 4.049E-02 7.730E+00
 ETOT  3  -178.84521615845     3.151E-02 2.547E-02 1.297E+00
 ETOT  4  -178.84371315660     1.503E-03 1.243E-02 1.747E-01
 ETOT  5  -178.84415686085    -4.437E-04 6.139E-03 2.108E-02
 ETOT  6  -178.84424685469    -8.999E-05 2.921E-03 1.849E-03
 ETOT  7  -178.84425809905    -1.124E-05 2.017E-03 3.489E-04
 ETOT  8  -178.84426162540    -3.526E-06 1.736E-03 6.300E-05
 ETOT  9  -178.84426170103    -7.563E-08 1.292E-03 9.680E-06
 ETOT 10  -178.84426176572    -6.469E-08 1.167E-03 3.919E-06
 ETOT 11  -178.84426175591     9.818E-09 1.090E-03 1.035E-06
 ETOT 12  -178.84426175936    -3.458E-09 8.141E-04 3.916E-07

 At SCF step   12, etot is converged : 
  for the second time, diff in etot=  3.458E-09 < toldfe=  1.000E-08

 Cartesian components of stress tensor (hartree/bohr^3)
  sigma(1 1)= -6.16144511E-05  sigma(3 2)=  9.79267659E-14
  sigma(2 2)= -6.15972760E-05  sigma(3 1)= -1.88302130E-13
  sigma(3 3)= -6.16144511E-05  sigma(2 1)=  9.79264391E-14


--- !ResultsGS
iteration_state: {dtset: 2, }
comment   : Summary of ground state results
lattice_vectors:
- [  0.0000000,   9.6621218,  10.0495756, ]
- [ 10.0495756,   0.0000000,  10.0495756, ]
- [ 10.0495756,   9.6621218,   0.0000000, ]
lattice_lengths: [  13.94097,   14.21225,   13.94097, ]
lattice_angles: [ 59.354,  61.292,  59.354, ] # degrees, (23, 13, 12)
lattice_volume:   1.9516321E+03
convergence: {deltae: -3.458E-09, res2:  3.916E-07, residm:  8.141E-04, diffor: null, }
etotal    :  -1.78844262E+02
entropy   :   0.00000000E+00
fermie    :  -1.42284277E-02
cartesian_stress_tensor: # hartree/bohr^3
- [ -6.16144511E-05,   9.79264391E-14,  -1.88302130E-13, ]
- [  9.79264391E-14,  -6.15972760E-05,   9.79267659E-14, ]
- [ -1.88302130E-13,   9.79267659E-14,  -6.16144511E-05, ]
pressure_GPa:   1.8126E+00
xred      :
- [  2.5587E-01,   2.4413E-01,   2.5587E-01, Cs]
- [  7.5587E-01,   7.4413E-01,   7.5587E-01, Cs]
- [  7.2793E-01,   2.7207E-01,   7.2793E-01,  I]
- [  2.3192E-01,   2.2890E-01,   7.7110E-01, Cl]
- [  7.7110E-01,   7.6808E-01,   2.3192E-01, Cl]
- [  2.4647E-01,   7.5353E-01,   2.4647E-01, Cl]
- [  2.3192E-01,   7.6808E-01,   7.7110E-01, Cl]
- [  7.7110E-01,   2.2890E-01,   2.3192E-01, Cl]
- [  7.8325E-03,  -7.8325E-03,   7.8325E-03, Hf]
cartesian_forces: # hartree/bohr
- [  2.11044856E-22,  -7.18812196E-06,  -8.45429776E-22, ]
- [ -3.37855158E-22,  -7.18812196E-06,  -2.96529762E-22, ]
- [ -1.23393003E-21,   3.18485858E-06,   5.99545107E-22, ]
- [ -9.30535537E-16,   2.48378133E-05,   5.49668204E-05, ]
- [  9.30536456E-16,   2.48378133E-05,  -5.49668204E-05, ]
- [  1.15043085E-21,  -8.35791955E-05,  -1.78481577E-21, ]
- [ -5.49668204E-05,   2.48378133E-05,   9.30538747E-16, ]
- [  5.49668204E-05,   2.48378133E-05,  -9.30533156E-16, ]
- [  2.62246249E-26,  -4.58067236E-06,  -6.34411144E-22, ]
force_length_stats: {min:   3.18485858E-06, max:   8.35791955E-05, mean:   3.85548010E-05, }
...

 Integrated electronic density in atomic spheres:
 ------------------------------------------------
 Atom  Sphere_radius  Integrated_density
    1        2.20660          5.37365249
    2        2.20660          5.37365249
    3        2.30022          4.04584368
    4        1.80316          4.37261069
    5        1.80316          4.37261069
    6        1.80316          4.35436232
    7        1.80316          4.37261069
    8        1.80316          4.37261069
    9        2.41000          9.34404192

 PAW TEST:
 ==== Compensation charge inside spheres ============
 The following values must be close to each other ...
 Compensation charge over spherical meshes =     -1.311512167264849
 Compensation charge over fine fft grid    =     -1.311525943589392

 ==== Results concerning PAW augmentation regions ====

 Total pseudopotential strength Dij (hartree):
 Atom #  1
   0.41674  -0.13813  -0.00000   0.00000   0.00000   0.00001   0.00000   0.00000   0.00000   0.00000  -0.00000   0.00000 ...
  -0.13813   0.04145   0.00000   0.00000   0.00000  -0.00000   0.00000   0.00000   0.00000   0.00000   0.00000  -0.00000 ...
  -0.00000   0.00000  -0.09069   0.00000   0.00000  -0.16830   0.00000   0.00000   0.00000   0.00000   0.00000  -0.00000 ...
   0.00000   0.00000   0.00000  -0.09069   0.00000   0.00000  -0.16829  -0.00000  -0.00000  -0.00000   0.00000   0.00000 ...
[...]
                       8.1150105278E+00  5.0891367466E+00  5.2818197330E+00
                       2.4486289381E+00  5.0891367466E+00  5.2818197330E+00
                       2.5321990898E-13  8.0557963710E-02  2.5321990898E-13
           xangst10    2.6384906374E+00  2.5920209505E+00  2.6384906374E+00
                       7.9154719122E+00  7.6609265054E+00  7.9154719122E+00
                       5.2769812748E+00  7.3664390941E+00  5.2769812748E+00
                       5.2769812749E+00  5.0828926715E+00  2.4483314398E+00
                       5.2769812748E+00  5.0828926715E+00  8.1056311098E+00
                       5.2769812748E+00  2.5195617007E+00  5.2769812748E+00
                       8.1056311098E+00  5.0828926715E+00  5.2769812748E+00
                       2.4483314398E+00  5.0828926715E+00  5.2769812749E+00
                       1.1613087402E-12  8.0725501912E-02  1.1613087402E-12
            xcart1     5.0299132237E+00  4.9493558909E+00  5.0299132237E+00
                       1.5089739671E+01  1.4620810918E+01  1.5089739671E+01
                       1.0059826447E+01  1.4083153805E+01  1.0059826447E+01
                       1.0059826447E+01  9.7010543947E+00  4.6317357941E+00
                       1.0059826447E+01  9.7010543947E+00  1.5487917101E+01
                       1.0059826447E+01  4.7628755066E+00  1.0059826447E+01
                       1.5487917101E+01  9.7010543947E+00  1.0059826447E+01
                       4.6317357941E+00  9.7010543947E+00  1.0059826447E+01
                      -3.0101413936E-13  1.5122651758E-01 -3.0101413936E-13
            xcart2     5.0247878160E+00  4.9444433161E+00  5.0247878160E+00
                       1.5074363448E+01  1.4606565086E+01  1.5074363448E+01
                       1.0049575632E+01  1.4066663110E+01  1.0049575632E+01
                       1.0049575632E+01  9.6912989024E+00  4.6311296520E+00
                       1.0049575632E+01  9.6912989024E+00  1.5468021612E+01
                       1.0049575632E+01  4.7627502576E+00  1.0049575632E+01
                       1.5468021612E+01  9.6912989024E+00  1.0049575632E+01
                       4.6311296520E+00  9.6912989024E+00  1.0049575632E+01
                      -2.6650906064E-12  1.5135677850E-01 -2.6650906064E-12
            xcart3     5.0197883413E+00  4.9390397088E+00  5.0197883413E+00
                       1.5059365024E+01  1.4591343921E+01  1.5059365024E+01
                       1.0039576682E+01  1.4049476256E+01  1.0039576682E+01
                       1.0039576682E+01  9.6810246447E+00  4.6305800673E+00
                       1.0039576683E+01  9.6810246447E+00  1.5448573298E+01
                       1.0039576683E+01  4.7628460562E+00  1.0039576683E+01
                       1.5448573298E+01  9.6810246447E+00  1.0039576683E+01
                       4.6305800673E+00  9.6810246447E+00  1.0039576682E+01
                      -1.9191850014E-12  1.5162917947E-01 -1.9191850014E-12
            xcart4     5.0151983567E+00  4.9322091920E+00  5.0151983567E+00
                       1.5045595070E+01  1.4573121298E+01  1.5045595070E+01
                       1.0030396713E+01  1.4029545275E+01  1.0030396713E+01
                       1.0030396713E+01  9.6695253654E+00  4.6301320472E+00
                       1.0030396713E+01  9.6695253654E+00  1.5430661379E+01
                       1.0030396713E+01  4.7625045012E+00  1.0030396713E+01
                       1.5430661379E+01  9.6695253654E+00  1.0030396713E+01
                       4.6301320472E+00  9.6695253654E+00  1.0030396713E+01
                      -9.9583617591E-13  1.5181511930E-01 -9.9583617591E-13
            xcart5     5.0098536597E+00  4.9278642691E+00  5.0098536597E+00
                       1.5029560979E+01  1.4560286234E+01  1.5029560979E+01
                       1.0019707319E+01  1.4014779067E+01  1.0019707319E+01
                       1.0019707319E+01  9.6606073457E+00  4.6295462953E+00
                       1.0019707319E+01  9.6606073457E+00  1.5409868343E+01
                       1.0019707319E+01  4.7621896486E+00  1.0019707319E+01
                       1.5409868343E+01  9.6606073457E+00  1.0019707319E+01
                       4.6295462953E+00  9.6606073457E+00  1.0019707319E+01
                      -1.0071834618E-12  1.5182711621E-01 -1.0071834618E-12
            xcart6     5.0052995285E+00  4.9212493294E+00  5.0052995285E+00
                       1.5015898586E+01  1.4542141496E+01  1.5015898586E+01
                       1.0010599057E+01  1.3994439768E+01  1.0010599057E+01
                       1.0010599057E+01  9.6488449242E+00  4.6290228746E+00
                       1.0010599057E+01  9.6488449242E+00  1.5392175240E+01
                       1.0010599057E+01  4.7619437327E+00  1.0010599057E+01
                       1.5392175240E+01  9.6488449242E+00  1.0010599057E+01
                       4.6290228746E+00  9.6488449242E+00  1.0010599057E+01
                      -9.0401911837E-13  1.5198330861E-01 -9.0401911837E-13
            xcart7     4.9999526480E+00  4.9168861232E+00  4.9999526480E+00
                       1.4999857944E+01  1.4529296422E+01  1.4999857944E+01
                       9.9999052959E+00  1.3979802733E+01  9.9999052959E+00
                       9.9999052959E+00  9.6398796806E+00  4.6283627518E+00
                       9.9999052960E+00  9.6398796806E+00  1.5371447840E+01
                       9.9999052960E+00  4.7617273657E+00  9.9999052960E+00
                       1.5371447840E+01  9.6398796806E+00  9.9999052960E+00
                       4.6283627518E+00  9.6398796806E+00  9.9999052959E+00
                      -1.0662465930E-12  1.5205102262E-01 -1.0662465930E-12
            xcart8     4.9948475804E+00  4.9119139647E+00  4.9948475804E+00
                       1.4984542741E+01  1.4514912742E+01  1.4984542741E+01
                       9.9896951608E+00  1.3963418404E+01  9.9896951608E+00
                       9.9896951608E+00  9.6300149712E+00  4.6277801901E+00
                       9.9896951607E+00  9.6300149712E+00  1.5351610131E+01
                       9.9896951607E+00  4.7615828229E+00  9.9896951607E+00
                       1.5351610131E+01  9.6300149712E+00  9.9896951607E+00
                       4.6277801901E+00  9.6300149712E+00  9.9896951608E+00
                       2.6192271895E-12  1.5210239920E-01  2.6192271895E-12
            xcart9     4.9905963893E+00  4.9047901379E+00  4.9905963893E+00
                       1.4971789168E+01  1.4495094817E+01  1.4971789168E+01
                       9.9811927786E+00  1.3940822396E+01  9.9811927786E+00
                       9.9811927786E+00  9.6170747038E+00  4.6272380941E+00
                       9.9811927786E+00  9.6170747038E+00  1.5335147463E+01
                       9.9811927786E+00  4.7611987741E+00  9.9811927786E+00
                       1.5335147463E+01  9.6170747038E+00  9.9811927786E+00
                       4.6272380941E+00  9.6170747038E+00  9.9811927786E+00
                       4.7851627937E-13  1.5223248923E-01  4.7851627937E-13
            xcart10    4.9860247089E+00  4.8982097272E+00  4.9860247089E+00
                       1.4958074127E+01  1.4477053019E+01  1.4958074127E+01
                       9.9720494178E+00  1.3920552463E+01  9.9720494178E+00
                       9.9720494178E+00  9.6052751119E+00  4.6266759038E+00
                       9.9720494177E+00  9.6052751119E+00  1.5317422932E+01
                       9.9720494177E+00  4.7612815892E+00  9.9720494177E+00
                       1.5317422932E+01  9.6052751119E+00  9.9720494177E+00
                       4.6266759038E+00  9.6052751119E+00  9.9720494178E+00
                       2.1945554747E-12  1.5254909055E-01  2.1945554747E-12
             xred1     2.5587441998E-01  2.4412558002E-01  2.5587441998E-01
                       7.5587441998E-01  7.4412558002E-01  7.5587441998E-01
                       7.2807833802E-01  2.7192166198E-01  7.2807833802E-01
                       2.3173977165E-01  2.2867928412E-01  7.7132071588E-01
                       7.7132071588E-01  7.6826022835E-01  2.3173977165E-01
                       2.4623365839E-01  7.5376634161E-01  2.4623365839E-01
                       2.3173977165E-01  7.6826022835E-01  7.7132071588E-01
                       7.7132071588E-01  2.2867928412E-01  2.3173977165E-01
                       7.8181885330E-03 -7.8181885330E-03  7.8181885330E-03
             xred2     2.5586736712E-01  2.4413263288E-01  2.5586736712E-01
                       7.5586736712E-01  7.4413263288E-01  7.5586736712E-01
                       7.2792826696E-01  2.7207173304E-01  7.2792826696E-01
                       2.3192406161E-01  2.2890431778E-01  7.7109568222E-01
                       7.7109568222E-01  7.6807593839E-01  2.3192406161E-01
                       2.4646502968E-01  7.5353497032E-01  2.4646502968E-01
                       2.3192406161E-01  7.6807593839E-01  7.7109568222E-01
                       7.7109568222E-01  2.2890431778E-01  2.3192406161E-01
                       7.8324814210E-03 -7.8324814210E-03  7.8324814210E-03
             xred3     2.5584770227E-01  2.4415229773E-01  2.5584770227E-01
                       7.5584770227E-01  7.4415229773E-01  7.5584770227E-01
                       7.2777835979E-01  2.7222164021E-01  7.2777835979E-01
                       2.3210405060E-01  2.2912855051E-01  7.7087144949E-01
                       7.7087144949E-01  7.6789594940E-01  2.3210405060E-01
                       2.4672067681E-01  7.5327932319E-01  2.4672067681E-01
                       2.3210405060E-01  7.6789594940E-01  7.7087144949E-01
                       7.7087144949E-01  2.2912855051E-01  2.3210405060E-01
                       7.8545586694E-03 -7.8545586694E-03  7.8545586694E-03
             xred4     2.5579577626E-01  2.4420422374E-01  2.5579577626E-01
                       7.5579577626E-01  7.4420422374E-01  7.5579577626E-01
                       7.2760466651E-01  2.7239533349E-01  7.2760466651E-01
                       2.3228898074E-01  2.2932108111E-01  7.7067891889E-01
                       7.7067891889E-01  7.6771101926E-01  2.3228898074E-01
                       2.4699449849E-01  7.5300550151E-01  2.4699449849E-01
                       2.3228898074E-01  7.6771101926E-01  7.7067891889E-01
                       7.7067891889E-01  2.2932108111E-01  2.3228898074E-01
                       7.8734832155E-03 -7.8734832155E-03  7.8734832155E-03
             xred5     2.5579570160E-01  2.4420429840E-01  2.5579570160E-01
                       7.5579570160E-01  7.4420429840E-01  7.5579570160E-01
                       7.2747950194E-01  2.7252049806E-01  7.2747950194E-01
                       2.3248507973E-01  2.2955898481E-01  7.7044101519E-01
                       7.7044101519E-01  7.6751492027E-01  2.3248507973E-01
                       2.4719585926E-01  7.5280414074E-01  2.4719585926E-01
                       2.3248507973E-01  7.6751492027E-01  7.7044101519E-01
                       7.7044101519E-01  2.2955898481E-01  2.3248507973E-01
                       7.8810457417E-03 -7.8810457417E-03  7.8810457417E-03
             xred6     2.5575847043E-01  2.4424152957E-01  2.5575847043E-01
                       7.5575847043E-01  7.4424152957E-01  7.5575847043E-01
                       7.2729428443E-01  2.7270571557E-01  7.2729428443E-01
                       2.3265879839E-01  2.2975337577E-01  7.7024662423E-01
                       7.7024662423E-01  7.6734120161E-01  2.3265879839E-01
                       2.4747932158E-01  7.5252067842E-01  2.4747932158E-01
                       2.3265879839E-01  7.6734120161E-01  7.7024662423E-01
                       7.7024662423E-01  2.2975337577E-01  2.3265879839E-01
                       7.8986078410E-03 -7.8986078410E-03  7.8986078410E-03
             xred7     2.5575719151E-01  2.4424280849E-01  2.5575719151E-01
                       7.5575719151E-01  7.4424280849E-01  7.5575719151E-01
                       7.2717467830E-01  2.7282532170E-01  7.2717467830E-01
                       2.3284917908E-01  2.2999147939E-01  7.7000852061E-01
                       7.7000852061E-01  7.6715082092E-01  2.3284917908E-01
                       2.4768643960E-01  7.5231356040E-01  2.4768643960E-01
                       2.3284917908E-01  7.6715082092E-01  7.7000852061E-01
                       7.7000852061E-01  2.2999147939E-01  2.3284917908E-01
                       7.9090996899E-03 -7.9090996899E-03  7.9090996899E-03
             xred8     2.5574896335E-01  2.4425103665E-01  2.5574896335E-01
                       7.5574896335E-01  7.4425103665E-01  7.5574896335E-01
                       7.2703426960E-01  2.7296573040E-01  7.2703426960E-01
                       2.3303435216E-01  2.3022104409E-01  7.6977895591E-01
                       7.6977895591E-01  7.6696564784E-01  2.3303435216E-01
                       2.4792166142E-01  7.5207833858E-01  2.4792166142E-01
                       2.3303435216E-01  7.6696564784E-01  7.6977895591E-01
                       7.6977895591E-01  2.3022104409E-01  2.3303435216E-01
                       7.9195261149E-03 -7.9195261149E-03  7.9195261149E-03
             xred9     2.5571607484E-01  2.4428392516E-01  2.5571607484E-01
                       7.5571607484E-01  7.4428392516E-01  7.5571607484E-01
                       7.2681853515E-01  2.7318146485E-01  7.2681853515E-01
                       2.3319353374E-01  2.3040217038E-01  7.6959782962E-01
                       7.6959782962E-01  7.6680646626E-01  2.3319353374E-01
                       2.4822979736E-01  7.5177020264E-01  2.4822979736E-01
                       2.3319353374E-01  7.6680646626E-01  7.6959782962E-01
                       7.6959782962E-01  2.3040217038E-01  2.3319353374E-01
                       7.9367910788E-03 -7.9367910788E-03  7.9367910788E-03
             xred10    2.5567856044E-01  2.4432143956E-01  2.5567856044E-01
                       7.5567856044E-01  7.4432143956E-01  7.5567856044E-01
                       7.2663013884E-01  2.7336986116E-01  7.2663013884E-01
                       2.3336189684E-01  2.3060250105E-01  7.6939749895E-01
                       7.6939749895E-01  7.6663810316E-01  2.3336189684E-01
                       2.4853113492E-01  7.5146886508E-01  2.4853113492E-01
                       2.3336189684E-01  7.6663810316E-01  7.6939749895E-01
                       7.6939749895E-01  2.3060250105E-01  2.3336189684E-01
                       7.9628137710E-03 -7.9628137710E-03  7.9628137710E-03
            znucl       55.00000   53.00000   72.00000   17.00000

================================================================================


- Timing analysis has been suppressed with timopt=0



================================================================================

 Suggested references for the acknowledgment of ABINIT usage.

 The users of ABINIT have little formal obligations with respect to the ABINIT group
 (those specified in the GNU General Public License, http://www.gnu.org/copyleft/gpl.txt).
 However, it is common practice in the scientific literature,
 to acknowledge the efforts of people that have made the research possible.
 In this spirit, please find below suggested citations of work written by ABINIT developers,
 corresponding to implementations inside of ABINIT that you have used in the present run.
 Note also that it will be of great value to readers of publications presenting these results,
 to read papers enabling them to understand the theoretical formalism and details
 of the ABINIT implementation.
 For information on why they are suggested, see also https://docs.abinit.org/theory/acknowledgments.
-
- [1] Implementation of the Projector Augmented-Wave Method in the ABINIT code.
- M. Torrent, F. Jollet, F. Bottin, G. Zerah, and X. Gonze Comput. Mat. Science 42, 337, (2008).
- Comment: PAW calculations. Strong suggestion to cite this paper.
- DOI and bibtex: see https://docs.abinit.org/theory/bibliography/#torrent2008
-
- [2] Libxc: A library of exchange and correlation functionals for density functional theory.
- M.A.L. Marques, M.J.T. Oliveira, T. Burnus, Computer Physics Communications 183, 2227 (2012).
- Comment: to be cited when LibXC is used (negative value of ixc)
- Strong suggestion to cite this paper.
- DOI and bibtex: see https://docs.abinit.org/theory/bibliography/#marques2012
-
- [3] The Abinit project: Impact, environment and recent developments.
- Computer Phys. Comm. 248, 107042 (2020).
- X.Gonze, B. Amadon, G. Antonius, F.Arnardi, L.Baguet, J.-M.Beuken,
- J.Bieder, F.Bottin, J.Bouchet, E.Bousquet, N.Brouwer, F.Bruneval,
- G.Brunin, T.Cavignac, J.-B. Charraud, Wei Chen, M.Cote, S.Cottenier,
- J.Denier, G.Geneste, Ph.Ghosez, M.Giantomassi, Y.Gillet, O.Gingras,
- D.R.Hamann, G.Hautier, Xu He, N.Helbig, N.Holzwarth, Y.Jia, F.Jollet,
- W.Lafargue-Dit-Hauret, K.Lejaeghere, M.A.L.Marques, A.Martin, C.Martins,
- H.P.C. Miranda, F.Naccarato, K. Persson, G.Petretto, V.Planes, Y.Pouillon,
- S.Prokhorenko, F.Ricci, G.-M.Rignanese, A.H.Romero, M.M.Schmitt, M.Torrent,
- M.J.van Setten, B.Van Troeye, M.J.Verstraete, G.Zerah and J.W.Zwanzig
- Comment: the fifth generic paper describing the ABINIT project.
- Note that a version of this paper, that is not formatted for Computer Phys. Comm. 
- is available at https://www.abinit.org/sites/default/files/ABINIT20.pdf .
- The licence allows the authors to put it on the Web.
- DOI and bibtex: see https://docs.abinit.org/theory/bibliography/#gonze2020
-
- [4] ABINIT: Overview, and focus on selected capabilities
- J. Chem. Phys. 152, 124102 (2020).
- A. Romero, D.C. Allan, B. Amadon, G. Antonius, T. Applencourt, L.Baguet,
- J.Bieder, F.Bottin, J.Bouchet, E.Bousquet, F.Bruneval,
- G.Brunin, D.Caliste, M.Cote,
- J.Denier, C. Dreyer, Ph.Ghosez, M.Giantomassi, Y.Gillet, O.Gingras,
- D.R.Hamann, G.Hautier, F.Jollet, G. Jomard,
- A.Martin, 
- H.P.C. Miranda, F.Naccarato, G.Petretto, N.A. Pike, V.Planes,
- S.Prokhorenko, T. Rangel, F.Ricci, G.-M.Rignanese, M.Royo, M.Stengel, M.Torrent,
- M.J.van Setten, B.Van Troeye, M.J.Verstraete, J.Wiktor, J.W.Zwanziger, and X.Gonze.
- Comment: a global overview of ABINIT, with focus on selected capabilities .
- Note that a version of this paper, that is not formatted for J. Chem. Phys 
- is available at https://www.abinit.org/sites/default/files/ABINIT20_JPC.pdf .
- The licence allows the authors to put it on the Web.
- DOI and bibtex: see https://docs.abinit.org/theory/bibliography/#romero2020
-
- [5] Recent developments in the ABINIT software package.
- Computer Phys. Comm. 205, 106 (2016).
- X.Gonze, F.Jollet, F.Abreu Araujo, D.Adams, B.Amadon, T.Applencourt,
- C.Audouze, J.-M.Beuken, J.Bieder, A.Bokhanchuk, E.Bousquet, F.Bruneval
- D.Caliste, M.Cote, F.Dahm, F.Da Pieve, M.Delaveau, M.Di Gennaro,
- B.Dorado, C.Espejo, G.Geneste, L.Genovese, A.Gerossier, M.Giantomassi,
- Y.Gillet, D.R.Hamann, L.He, G.Jomard, J.Laflamme Janssen, S.Le Roux,
- A.Levitt, A.Lherbier, F.Liu, I.Lukacevic, A.Martin, C.Martins,
- M.J.T.Oliveira, S.Ponce, Y.Pouillon, T.Rangel, G.-M.Rignanese,
- A.H.Romero, B.Rousseau, O.Rubel, A.A.Shukri, M.Stankovski, M.Torrent,
- M.J.Van Setten, B.Van Troeye, M.J.Verstraete, D.Waroquier, J.Wiktor,
- B.Xu, A.Zhou, J.W.Zwanziger.
- Comment: the fourth generic paper describing the ABINIT project.
- Note that a version of this paper, that is not formatted for Computer Phys. Comm. 
- is available at https://www.abinit.org/sites/default/files/ABINIT16.pdf .
- The licence allows the authors to put it on the Web.
- DOI and bibtex: see https://docs.abinit.org/theory/bibliography/#gonze2016
-
- Proc.   0 individual time (sec): cpu=       7483.7  wall=       7547.2

================================================================================

 Calculation completed.
.Delivered   0 WARNINGs and  20 COMMENTs to log file.
+Overall time at end (sec) : cpu=      59877.6  wall=      60377.5
