
.Version 9.2.2 of ABINIT 
.(MPI version, prepared for a x86_64_linux_gnu9.3 computer) 

.Copyright (C) 1998-2020 ABINIT group . 
 ABINIT comes with ABSOLUTELY NO WARRANTY.
 It is free software, and you are welcome to redistribute it
 under certain conditions (GNU General Public License,
 see ~abinit/COPYING or http://www.gnu.org/copyleft/gpl.txt).

 ABINIT is a project of the Universite Catholique de Louvain,
 Corning Inc. and other collaborators, see ~abinit/doc/developers/contributors.txt .
 Please read https://docs.abinit.org/theory/acknowledgments for suggested
 acknowledgments of the ABINIT effort.
 For more information, see https://www.abinit.org .

.Starting date : Fri 25 Nov 2022.
- ( at 11h30 )
  
- input  file    -> Cs2TiI6.in
- output file    -> Cs2TiI6.out
- root for input  files -> Cs2TiI6i
- root for output files -> Cs2TiI6o

- inpspheads : Reading pseudopotential header in XML form from 
-   ../../../Psps_for_tests/ATOMICDATA/Cs.GGA_PBE-JTH.xml
- inpspheads : Reading pseudopotential header in XML form from 
-   ../../../Psps_for_tests/ATOMICDATA/I.GGA_PBE-JTH.xml
- inpspheads : Reading pseudopotential header in XML form from 
-   ../../../Psps_for_tests/ATOMICDATA/Zr.GGA_PBE-JTH.xml
- inpspheads : Reading pseudopotential header in XML form from 
-   ../../../Psps_for_tests/ATOMICDATA/Br.GGA_PBE-JTH.xml

 DATASET    1 : space group I4/m m m (#139); Bravais tI (body-center tetrag.)
================================================================================
 Values of the parameters that define the memory need for DATASET  1.
     intxc =       0    ionmov =       0      iscf =      17    lmnmax =      18
     lnmax =       6     mgfft =      60  mpssoang =       3    mqgrid =    3630
     natom =       9  nloc_mem =       2    nspden =       1   nspinor =       1
    nsppol =       1      nsym =      16    n1xccc =       1    ntypat =       4
    occopt =       1   xclevel =       2
-    mband =          42        mffmem =           1         mkmem =          28
       mpw =        8276          nfft =      216000          nkpt =         163
Pmy_natom=         2
 PAW method is used; the additional fine FFT grid is defined by:
   mgfftf=        90    nfftf =    729000
================================================================================
P This job should need less than                     377.628 Mbytes of memory.
  Rough estimation (10% accuracy) of disk space for files :
_ WF disk file :    864.527 Mbytes ; DEN or POT disk file :      5.564 Mbytes.
================================================================================


 DATASET    2 : space group I4/m m m (#139); Bravais tI (body-center tetrag.)
================================================================================
 Values of the parameters that define the memory need for DATASET  2.
     intxc =       0    ionmov =       0      iscf =      17    lmnmax =      18
     lnmax =       6     mgfft =      60  mpssoang =       3    mqgrid =    3593
     natom =       9  nloc_mem =       2    nspden =       1   nspinor =       1
    nsppol =       1      nsym =      16    n1xccc =       1    ntypat =       4
    occopt =       1   xclevel =       2
-    mband =          42        mffmem =           1         mkmem =          28
       mpw =        8010          nfft =      216000          nkpt =         163
Pmy_natom=         2
 PAW method is used; the additional fine FFT grid is defined by:
   mgfftf=        90    nfftf =    729000
================================================================================
P This job should need less than                     372.361 Mbytes of memory.
  Rough estimation (10% accuracy) of disk space for files :
_ WF disk file :    836.740 Mbytes ; DEN or POT disk file :      5.564 Mbytes.
================================================================================


 DATASET    3 : space group I4/m m m (#139); Bravais tI (body-center tetrag.)
================================================================================
 Values of the parameters that define the memory need for DATASET  3.
     intxc =       0    ionmov =       0      iscf =      17    lmnmax =      18
     lnmax =       6     mgfft =      60  mpssoang =       3    mqgrid =    3556
     natom =       9  nloc_mem =       2    nspden =       1   nspinor =       1
    nsppol =       1      nsym =      16    n1xccc =       1    ntypat =       4
    occopt =       1   xclevel =       2
-    mband =          42        mffmem =           1         mkmem =          28
       mpw =        7774          nfft =      216000          nkpt =         163
Pmy_natom=         2
 PAW method is used; the additional fine FFT grid is defined by:
   mgfftf=        90    nfftf =    729000
================================================================================
P This job should need less than                     367.704 Mbytes of memory.
  Rough estimation (10% accuracy) of disk space for files :
_ WF disk file :    812.087 Mbytes ; DEN or POT disk file :      5.564 Mbytes.
================================================================================


 DATASET    4 : space group I4/m m m (#139); Bravais tI (body-center tetrag.)
================================================================================
 Values of the parameters that define the memory need for DATASET  4.
     intxc =       0    ionmov =       0      iscf =      17    lmnmax =      18
     lnmax =       6     mgfft =      60  mpssoang =       3    mqgrid =    3520
     natom =       9  nloc_mem =       2    nspden =       1   nspinor =       1
    nsppol =       1      nsym =      16    n1xccc =       1    ntypat =       4
    occopt =       1   xclevel =       2
-    mband =          42        mffmem =           1         mkmem =          28
       mpw =        7547          nfft =      216000          nkpt =         163
Pmy_natom=         2
 PAW method is used; the additional fine FFT grid is defined by:
   mgfftf=        90    nfftf =    729000
================================================================================
P This job should need less than                     363.234 Mbytes of memory.
  Rough estimation (10% accuracy) of disk space for files :
_ WF disk file :    788.374 Mbytes ; DEN or POT disk file :      5.564 Mbytes.
================================================================================


 DATASET    5 : space group I4/m m m (#139); Bravais tI (body-center tetrag.)
================================================================================
 Values of the parameters that define the memory need for DATASET  5.
     intxc =       0    ionmov =       0      iscf =      17    lmnmax =      18
     lnmax =       6     mgfft =      60  mpssoang =       3    mqgrid =    3483
     natom =       9  nloc_mem =       2    nspden =       1   nspinor =       1
    nsppol =       1      nsym =      16    n1xccc =       1    ntypat =       4
    occopt =       1   xclevel =       2
-    mband =          42        mffmem =           1         mkmem =          28
       mpw =        7325          nfft =      216000          nkpt =         163
Pmy_natom=         2
 PAW method is used; the additional fine FFT grid is defined by:
   mgfftf=        90    nfftf =    729000
================================================================================
P This job should need less than                     358.870 Mbytes of memory.
  Rough estimation (10% accuracy) of disk space for files :
_ WF disk file :    765.184 Mbytes ; DEN or POT disk file :      5.564 Mbytes.
================================================================================


 DATASET    6 : space group I4/m m m (#139); Bravais tI (body-center tetrag.)
================================================================================
 Values of the parameters that define the memory need for DATASET  6.
     intxc =       0    ionmov =       0      iscf =      17    lmnmax =      18
     lnmax =       6     mgfft =      60  mpssoang =       3    mqgrid =    3446
     natom =       9  nloc_mem =       2    nspden =       1   nspinor =       1
    nsppol =       1      nsym =      16    n1xccc =       1    ntypat =       4
    occopt =       1   xclevel =       2
-    mband =          42        mffmem =           1         mkmem =          28
       mpw =        7074          nfft =      216000          nkpt =         163
Pmy_natom=         2
 PAW method is used; the additional fine FFT grid is defined by:
   mgfftf=        90    nfftf =    729000
================================================================================
P This job should need less than                     353.925 Mbytes of memory.
  Rough estimation (10% accuracy) of disk space for files :
_ WF disk file :    738.964 Mbytes ; DEN or POT disk file :      5.564 Mbytes.
================================================================================


 DATASET    7 : space group I4/m m m (#139); Bravais tI (body-center tetrag.)
================================================================================
 Values of the parameters that define the memory need for DATASET  7.
     intxc =       0    ionmov =       0      iscf =      17    lmnmax =      18
     lnmax =       6     mgfft =      54  mpssoang =       3    mqgrid =    3409
     natom =       9  nloc_mem =       2    nspden =       1   nspinor =       1
    nsppol =       1      nsym =      16    n1xccc =       1    ntypat =       4
    occopt =       1   xclevel =       2
-    mband =          42        mffmem =           1         mkmem =          28
       mpw =        6866          nfft =      157464          nkpt =         163
Pmy_natom=         2
 PAW method is used; the additional fine FFT grid is defined by:
   mgfftf=        90    nfftf =    729000
================================================================================
P This job should need less than                     341.141 Mbytes of memory.
  Rough estimation (10% accuracy) of disk space for files :
_ WF disk file :    717.236 Mbytes ; DEN or POT disk file :      5.564 Mbytes.
================================================================================


 DATASET    8 : space group I4/m m m (#139); Bravais tI (body-center tetrag.)
================================================================================
 Values of the parameters that define the memory need for DATASET  8.
     intxc =       0    ionmov =       0      iscf =      17    lmnmax =      18
     lnmax =       6     mgfft =      54  mpssoang =       3    mqgrid =    3372
     natom =       9  nloc_mem =       2    nspden =       1   nspinor =       1
    nsppol =       1      nsym =      16    n1xccc =       1    ntypat =       4
    occopt =       1   xclevel =       2
-    mband =          42        mffmem =           1         mkmem =          28
       mpw =        6642          nfft =      157464          nkpt =         163
Pmy_natom=         2
 PAW method is used; the additional fine FFT grid is defined by:
   mgfftf=        90    nfftf =    729000
================================================================================
P This job should need less than                     336.753 Mbytes of memory.
  Rough estimation (10% accuracy) of disk space for files :
_ WF disk file :    693.836 Mbytes ; DEN or POT disk file :      5.564 Mbytes.
================================================================================


 DATASET    9 : space group I4/m m m (#139); Bravais tI (body-center tetrag.)
================================================================================
 Values of the parameters that define the memory need for DATASET  9.
     intxc =       0    ionmov =       0      iscf =      17    lmnmax =      18
     lnmax =       6     mgfft =      54  mpssoang =       3    mqgrid =    3335
     natom =       9  nloc_mem =       2    nspden =       1   nspinor =       1
    nsppol =       1      nsym =      16    n1xccc =       1    ntypat =       4
    occopt =       1   xclevel =       2
-    mband =          42        mffmem =           1         mkmem =          28
       mpw =        6424          nfft =      157464          nkpt =         163
Pmy_natom=         2
 PAW method is used; the additional fine FFT grid is defined by:
   mgfftf=        90    nfftf =    729000
================================================================================
P This job should need less than                     332.492 Mbytes of memory.
  Rough estimation (10% accuracy) of disk space for files :
_ WF disk file :    671.064 Mbytes ; DEN or POT disk file :      5.564 Mbytes.
================================================================================

--------------------------------------------------------------------------------
------------- Echo of variables that govern the present computation ------------
--------------------------------------------------------------------------------
-
- outvars: echo of selected default values                                      
-   iomode0 =  0 , fftalg0 =112 , wfoptalg0 = 10
-
- outvars: echo of global parameters not present in the input file              
-  max_nthreads =    0
-
 -outvars: echo values of preprocessed input variables --------
            acell1     1.5528347870E+01  1.5528347870E+01  1.5806767879E+01 Bohr
            acell2     1.5368855168E+01  1.5368855168E+01  1.5653147700E+01 Bohr
            acell3     1.5207924617E+01  1.5207924617E+01  1.5502872825E+01 Bohr
            acell4     1.5047985349E+01  1.5047985349E+01  1.5350361965E+01 Bohr
            acell5     1.4885509691E+01  1.4885509691E+01  1.5203832486E+01 Bohr
            acell6     1.4723726215E+01  1.4723726215E+01  1.5055804606E+01 Bohr
            acell7     1.4561807255E+01  1.4561807255E+01  1.4908217945E+01 Bohr
            acell8     1.4399083650E+01  1.4399083650E+01  1.4762709398E+01 Bohr
            acell9     1.4236834420E+01  1.4236834420E+01  1.4616222448E+01 Bohr
              amu      1.32905430E+02  1.26904470E+02  9.12240000E+01
                       7.99040000E+01
           diemac      1.20000000E+01
             ecut      1.60000000E+01 Hartree
-          fftalg         112
           istwfk        2    0    0    0    0    0    3    0    0    0
                         0    0    0    0    0    0    0    0    0    0
                         0    0    0    0    0    0    0    0    0    0
                         0    0    0    0    0    0    0    0    0    0
                         0    0    7    0    0    0    0    0    0    0
                       outvar_i_n : Printing only first  50 k-points.
              ixc     -101130
           jdtset        1    2    3    4    5    6    7    8    9
              kpt      0.00000000E+00  0.00000000E+00  0.00000000E+00
                       8.33333333E-02  0.00000000E+00  0.00000000E+00
                       1.66666667E-01  0.00000000E+00  0.00000000E+00
                       2.50000000E-01  0.00000000E+00  0.00000000E+00
                       3.33333333E-01  0.00000000E+00  0.00000000E+00
                       4.16666667E-01  0.00000000E+00  0.00000000E+00
                       5.00000000E-01  0.00000000E+00  0.00000000E+00
                       8.33333333E-02  8.33333333E-02  0.00000000E+00
                       1.66666667E-01  8.33333333E-02  0.00000000E+00
                       2.50000000E-01  8.33333333E-02  0.00000000E+00
                       3.33333333E-01  8.33333333E-02  0.00000000E+00
                       4.16666667E-01  8.33333333E-02  0.00000000E+00
                       5.00000000E-01  8.33333333E-02  0.00000000E+00
                      -4.16666667E-01  8.33333333E-02  0.00000000E+00
                      -3.33333333E-01  8.33333333E-02  0.00000000E+00
                      -2.50000000E-01  8.33333333E-02  0.00000000E+00
                      -1.66666667E-01  8.33333333E-02  0.00000000E+00
                      -8.33333333E-02  8.33333333E-02  0.00000000E+00
                       1.66666667E-01  1.66666667E-01  0.00000000E+00
                       2.50000000E-01  1.66666667E-01  0.00000000E+00
                       3.33333333E-01  1.66666667E-01  0.00000000E+00
                       4.16666667E-01  1.66666667E-01  0.00000000E+00
                       5.00000000E-01  1.66666667E-01  0.00000000E+00
                      -4.16666667E-01  1.66666667E-01  0.00000000E+00
                      -3.33333333E-01  1.66666667E-01  0.00000000E+00
                      -2.50000000E-01  1.66666667E-01  0.00000000E+00
                      -1.66666667E-01  1.66666667E-01  0.00000000E+00
                       2.50000000E-01  2.50000000E-01  0.00000000E+00
                       3.33333333E-01  2.50000000E-01  0.00000000E+00
                       4.16666667E-01  2.50000000E-01  0.00000000E+00
                       5.00000000E-01  2.50000000E-01  0.00000000E+00
                      -4.16666667E-01  2.50000000E-01  0.00000000E+00
                      -3.33333333E-01  2.50000000E-01  0.00000000E+00
                      -2.50000000E-01  2.50000000E-01  0.00000000E+00
                       3.33333333E-01  3.33333333E-01  0.00000000E+00
                       4.16666667E-01  3.33333333E-01  0.00000000E+00
                       5.00000000E-01  3.33333333E-01  0.00000000E+00
                      -4.16666667E-01  3.33333333E-01  0.00000000E+00
                      -3.33333333E-01  3.33333333E-01  0.00000000E+00
                       4.16666667E-01  4.16666667E-01  0.00000000E+00
                       5.00000000E-01  4.16666667E-01  0.00000000E+00
                      -4.16666667E-01  4.16666667E-01  0.00000000E+00
                       5.00000000E-01  5.00000000E-01  0.00000000E+00
                       8.33333333E-02  0.00000000E+00  8.33333333E-02
                       1.66666667E-01  0.00000000E+00  8.33333333E-02
                       2.50000000E-01  0.00000000E+00  8.33333333E-02
                       3.33333333E-01  0.00000000E+00  8.33333333E-02
                       4.16666667E-01  0.00000000E+00  8.33333333E-02
                       5.00000000E-01  0.00000000E+00  8.33333333E-02
                      -4.16666667E-01  0.00000000E+00  8.33333333E-02
                       outvar_i_n : Printing only first  50 k-points.
         kptrlatt       12    0    0      0   12    0      0    0   12
          kptrlen1     1.86340174E+02
          kptrlen2     1.84426262E+02
          kptrlen3     1.82495095E+02
          kptrlen4     1.80575824E+02
          kptrlen5     1.78626116E+02
          kptrlen6     1.76684715E+02
          kptrlen7     1.74741687E+02
          kptrlen8     1.72789004E+02
          kptrlen9     1.70842013E+02
P           mkmem          28
            natom           9
            nband          42
           ndtset           9
            ngfft1         60      60      60
            ngfft2         60      60      60
            ngfft3         60      60      60
            ngfft4         60      60      60
            ngfft5         60      60      60
            ngfft6         60      60      60
            ngfft7         54      54      54
            ngfft8         54      54      54
            ngfft9         54      54      54
          ngfftdg          90      90      90
             nkpt         163
            nstep        2500
             nsym          16
           ntypat           4
              occ      2.000000  2.000000  2.000000  2.000000  2.000000  2.000000
                       2.000000  2.000000  2.000000  2.000000  2.000000  2.000000
                       2.000000  2.000000  2.000000  2.000000  2.000000  2.000000
                       2.000000  2.000000  2.000000  2.000000  2.000000  2.000000
                       2.000000  2.000000  2.000000  2.000000  2.000000  2.000000
                       2.000000  2.000000  2.000000  2.000000  2.000000  2.000000
                       0.000000  0.000000  0.000000  0.000000  0.000000  0.000000
        pawecutdg      4.00000000E+01 Hartree
            prtwf           0
            rprim1     0.0000000000E+00  7.1978505694E-01  6.9419699784E-01
                       7.1978505694E-01  0.0000000000E+00  6.9419699784E-01
                       7.0710678119E-01  7.0710678119E-01  0.0000000000E+00
            rprim2     0.0000000000E+00  7.2018681707E-01  6.9378018747E-01
                       7.2018681707E-01  0.0000000000E+00  6.9378018747E-01
                       7.0710678119E-01  7.0710678119E-01  0.0000000000E+00
            rprim3     0.0000000000E+00  7.2082067598E-01  6.9312160050E-01
                       7.2082067598E-01  0.0000000000E+00  6.9312160050E-01
                       7.0710678119E-01  7.0710678119E-01  0.0000000000E+00
            rprim4     0.0000000000E+00  7.2131549753E-01  6.9260663657E-01
                       7.2131549753E-01  0.0000000000E+00  6.9260663657E-01
                       7.0710678119E-01  7.0710678119E-01  0.0000000000E+00
            rprim5     0.0000000000E+00  7.2222807777E-01  6.9165497445E-01
                       7.2222807777E-01  0.0000000000E+00  6.9165497445E-01
                       7.0710678119E-01  7.0710678119E-01  0.0000000000E+00
            rprim6     0.0000000000E+00  7.2305484208E-01  6.9079063061E-01
                       7.2305484208E-01  0.0000000000E+00  6.9079063061E-01
                       7.0710678119E-01  7.0710678119E-01  0.0000000000E+00
            rprim7     0.0000000000E+00  7.2392813743E-01  6.8987538863E-01
                       7.2392813743E-01  0.0000000000E+00  6.8987538863E-01
                       7.0710678119E-01  7.0710678119E-01  0.0000000000E+00
            rprim8     0.0000000000E+00  7.2496362806E-01  6.8878714998E-01
                       7.2496362806E-01  0.0000000000E+00  6.8878714998E-01
                       7.0710678119E-01  7.0710678119E-01  0.0000000000E+00
            rprim9     0.0000000000E+00  7.2595000432E-01  6.8774747635E-01
                       7.2595000432E-01  0.0000000000E+00  6.8774747635E-01
                       7.0710678119E-01  7.0710678119E-01  0.0000000000E+00
          spgroup         139
           symrel      1  0  0   0  1  0   0  0  1      -1  0  0   0 -1  0   0  0 -1
                      -1  0  1   0 -1  1   0  0  1       1  0 -1   0  1 -1   0  0 -1
                       0  1 -1   1  0 -1   0  0 -1       0 -1  1  -1  0  1   0  0  1
                       0 -1  0  -1  0  0   0  0 -1       0  1  0   1  0  0   0  0  1
                       1  0  0   1  0 -1   1 -1  0      -1  0  0  -1  0  1  -1  1  0
                       0 -1  0   0 -1  1   1 -1  0       0  1  0   0  1 -1  -1  1  0
                       0  1 -1   0  1  0  -1  1  0       0 -1  1   0 -1  0   1 -1  0
                      -1  0  1  -1  0  0  -1  1  0       1  0 -1   1  0  0   1 -1  0
           toldfe      1.00000000E-08 Hartree
            typat      1  1  4  4  2  2  2  2  3
           useylm           1
              wtk        0.00058    0.00463    0.00463    0.00463    0.00463    0.00463
                         0.00231    0.00116    0.00463    0.00463    0.00463    0.00463
                         0.00463    0.00463    0.00463    0.00463    0.00463    0.00231
                         0.00116    0.00463    0.00463    0.00463    0.00463    0.00463
                         0.00463    0.00463    0.00231    0.00116    0.00463    0.00463
                         0.00463    0.00463    0.00463    0.00231    0.00116    0.00463
                         0.00463    0.00463    0.00231    0.00116    0.00463    0.00231
                         0.00058    0.00231    0.00926    0.00926    0.00926    0.00926
                         0.00926    0.00926
                       outvars : Printing only first  50 k-points.
           xangst1     2.9573260806E+00  2.9573260806E+00  2.8521943696E+00
                       8.8719782417E+00  8.8719782417E+00  8.5565831089E+00
                       5.9146521612E+00  5.9146521612E+00  2.6199584841E+00
                       5.9146521611E+00  5.9146521611E+00  8.7888189945E+00
                       8.9351370628E+00  5.9146521612E+00  5.7043887393E+00
                       5.9146521612E+00  8.9351370628E+00  5.7043887393E+00
                       5.9146521611E+00  2.8941672595E+00  5.7043887393E+00
                       2.8941672595E+00  5.9146521611E+00  5.7043887393E+00
                       0.0000000000E+00  0.0000000000E+00  0.0000000000E+00
           xangst2     2.9285849132E+00  2.9285849132E+00  2.8212043624E+00
                       8.7857547395E+00  8.7857547395E+00  8.4636130872E+00
                       5.8571698263E+00  5.8571698263E+00  2.6184664618E+00
                       5.8571698263E+00  5.8571698263E+00  8.6663509877E+00
                       8.8255132728E+00  5.8571698263E+00  5.6424087248E+00
                       5.8571698263E+00  8.8255132728E+00  5.6424087248E+00
                       5.8571698263E+00  2.8888263798E+00  5.6424087248E+00
                       2.8888263798E+00  5.8571698263E+00  5.6424087248E+00
                       2.3920853634E-21 -9.3497381907E-22 -5.7005734996E-22
           xangst3     2.9004696267E+00  2.9004696267E+00  2.7890128806E+00
                       8.7014088802E+00  8.7014088802E+00  8.3670386418E+00
                       5.8009392535E+00  5.8009392535E+00  2.6165765879E+00
                       5.8009392535E+00  5.8009392535E+00  8.5394749345E+00
                       8.7189683057E+00  5.8009392535E+00  5.5780257612E+00
                       5.8009392535E+00  8.7189683057E+00  5.5780257612E+00
                       5.8009392535E+00  2.8829102013E+00  5.5780257612E+00
                       2.8829102013E+00  5.8009392535E+00  5.5780257612E+00
                       0.0000000000E+00  0.0000000000E+00  0.0000000000E+00
           xangst4     2.8719360044E+00  2.8719360044E+00  2.7576309441E+00
                       8.6158080132E+00  8.6158080132E+00  8.2728928322E+00
                       5.7438720089E+00  5.7438720089E+00  2.6140348108E+00
                       5.7438720088E+00  5.7438720088E+00  8.4164889655E+00
                       8.6118847135E+00  5.7438720089E+00  5.5152618881E+00
                       5.7438720089E+00  8.6118847135E+00  5.5152618881E+00
                       5.7438720088E+00  2.8758593041E+00  5.5152618881E+00
                       2.8758593041E+00  5.7438720088E+00  5.5152618881E+00
                       1.1070871301E-21  2.2339182295E-21 -3.9598193612E-21
           xangst5     2.8445214531E+00  2.8445214531E+00  2.7241081779E+00
                       8.5335643592E+00  8.5335643592E+00  8.1723245336E+00
                       5.6890429062E+00  5.6890429062E+00  2.6105947143E+00
                       5.6890429061E+00  5.6890429061E+00  8.2858379971E+00
                       8.5101859507E+00  5.6890429062E+00  5.4482163557E+00
                       5.6890429062E+00  8.5101859507E+00  5.4482163557E+00
                       5.6890429061E+00  2.8678998616E+00  5.4482163557E+00
                       2.8678998616E+00  5.6890429061E+00  5.4482163557E+00
                       3.1794138849E-22 -3.0725210513E-22 -5.5884783060E-23
           xangst6     2.8168265623E+00  2.8168265623E+00  2.6911339003E+00
                       8.4504796869E+00  8.4504796869E+00  8.0734017009E+00
                       5.6336531246E+00  5.6336531246E+00  2.6061718534E+00
                       5.6336531246E+00  5.6336531246E+00  8.1583637478E+00
                       8.4086948747E+00  5.6336531246E+00  5.3822678006E+00
                       5.6336531246E+00  8.4086948747E+00  5.3822678006E+00
                       5.6336531246E+00  2.8586113745E+00  5.3822678006E+00
                       2.8586113745E+00  5.6336531246E+00  5.3822678006E+00
                       4.3502369704E-21 -3.3095015168E-21 -1.0994993173E-22
           xangst7     2.7892142201E+00  2.7892142201E+00  2.6580127841E+00
                       8.3676426604E+00  8.3676426604E+00  7.9740383522E+00
                       5.5784284404E+00  5.5784284404E+00  2.6009456252E+00
                       5.5784284402E+00  5.5784284402E+00  8.0311055111E+00
                       8.3086669595E+00  5.5784284404E+00  5.3160255681E+00
                       5.5784284404E+00  8.3086669595E+00  5.3160255681E+00
                       5.5784284402E+00  2.8481899211E+00  5.3160255681E+00
                       2.8481899211E+00  5.5784284402E+00  5.3160255681E+00
                       1.4794838460E-21 -1.2104395941E-21  2.4471591819E-22
           xangst8     2.7619906774E+00  2.7619906774E+00  2.6241643212E+00
                       8.2859720323E+00  8.2859720323E+00  7.8724929637E+00
                       5.5239813549E+00  5.5239813549E+00  2.5944005232E+00
                       5.5239813548E+00  5.5239813548E+00  7.9022567617E+00
                       8.2115248477E+00  5.5239813549E+00  5.2483286424E+00
                       5.5239813549E+00  8.2115248477E+00  5.2483286424E+00
                       5.5239813548E+00  2.8364378620E+00  5.2483286424E+00
                       2.8364378620E+00  5.5239813548E+00  5.2483286424E+00
                      -1.8827181295E-21  4.1840538999E-21 -1.0248482570E-20
           xangst9     2.7345840830E+00  2.7345840830E+00  2.5906788220E+00
                       8.2037522491E+00  8.2037522491E+00  7.7720364659E+00
                       5.4691681660E+00  5.4691681660E+00  2.5865860731E+00
                       5.4691681661E+00  5.4691681661E+00  7.7761292148E+00
                       8.1150453721E+00  5.4691681660E+00  5.1813576439E+00
                       5.4691681660E+00  8.1150453721E+00  5.1813576439E+00
                       5.4691681661E+00  2.8232909600E+00  5.1813576439E+00
                       2.8232909600E+00  5.4691681661E+00  5.1813576439E+00
                       1.3471744478E-21 -1.5067858449E-21 -9.6180574341E-22
            xcart1     5.5885363779E+00  5.5885363779E+00  5.3898662364E+00
                       1.6765609134E+01  1.6765609134E+01  1.6169598709E+01
                       1.1177072756E+01  1.1177072756E+01  4.9510040144E+00
                       1.1177072756E+01  1.1177072756E+01  1.6608460931E+01
                       1.6884962008E+01  1.1177072756E+01  1.0779732473E+01
                       1.1177072756E+01  1.6884962008E+01  1.0779732473E+01
                       1.1177072756E+01  5.4691835032E+00  1.0779732473E+01
                       5.4691835032E+00  1.1177072756E+01  1.0779732473E+01
                       0.0000000000E+00  0.0000000000E+00  0.0000000000E+00
            xcart2     5.5342234428E+00  5.5342234428E+00  5.3313036098E+00
                       1.6602670328E+01  1.6602670328E+01  1.5993910829E+01
                       1.1068446886E+01  1.1068446886E+01  4.9481845010E+00
                       1.1068446885E+01  1.1068446885E+01  1.6377029938E+01
                       1.6677803068E+01  1.1068446886E+01  1.0662607220E+01
                       1.1068446886E+01  1.6677803068E+01  1.0662607220E+01
                       1.1068446885E+01  5.4590907033E+00  1.0662607220E+01
                       5.4590907033E+00  1.1068446885E+01  1.0662607220E+01
                       4.5203862234E-21 -1.7668444595E-21 -1.0772522715E-21
            xcart3     5.4810932513E+00  5.4810932513E+00  5.2704705254E+00
                       1.6443279754E+01  1.6443279754E+01  1.5811411576E+01
                       1.0962186503E+01  1.0962186503E+01  4.9446131569E+00
                       1.0962186503E+01  1.0962186503E+01  1.6137268945E+01
                       1.6476462259E+01  1.0962186503E+01  1.0540941051E+01
                       1.0962186503E+01  1.6476462259E+01  1.0540941051E+01
                       1.0962186503E+01  5.4479107461E+00  1.0540941051E+01
                       5.4479107461E+00  1.0962186503E+01  1.0540941051E+01
                       0.0000000000E+00  0.0000000000E+00  0.0000000000E+00
            xcart4     5.4271725195E+00  5.4271725195E+00  5.2111672599E+00
                       1.6281517559E+01  1.6281517559E+01  1.5633501780E+01
                       1.0854345039E+01  1.0854345039E+01  4.9398098942E+00
                       1.0854345039E+01  1.0854345039E+01  1.5904859145E+01
                       1.6274103596E+01  1.0854345039E+01  1.0422334520E+01
                       1.0854345039E+01  1.6274103596E+01  1.0422334520E+01
                       1.0854345039E+01  5.4345864815E+00  1.0422334520E+01
                       5.4345864815E+00  1.0854345039E+01  1.0422334520E+01
                       2.0920914812E-21  4.2214936571E-21 -7.4829741284E-21
            xcart5     5.3753665254E+00  5.3753665254E+00  5.1478184125E+00
                       1.6126099576E+01  1.6126099576E+01  1.5443455238E+01
                       1.0750733051E+01  1.0750733051E+01  4.9333090540E+00
                       1.0750733051E+01  1.0750733051E+01  1.5657964596E+01
                       1.6081920787E+01  1.0750733051E+01  1.0295636825E+01
                       1.0750733051E+01  1.6081920787E+01  1.0295636825E+01
                       1.0750733051E+01  5.4195453150E+00  1.0295636825E+01
                       5.4195453150E+00  1.0750733051E+01  1.0295636825E+01
                       6.0082215056E-22 -5.8062233246E-22 -1.0560693498E-22
            xcart6     5.3230307666E+00  5.3230307666E+00  5.0855060585E+00
                       1.5969092300E+01  1.5969092300E+01  1.5256518175E+01
                       1.0646061533E+01  1.0646061533E+01  4.9249510581E+00
                       1.0646061533E+01  1.0646061533E+01  1.5417073176E+01
                       1.5890130448E+01  1.0646061533E+01  1.0171012117E+01
                       1.0646061533E+01  1.5890130448E+01  1.0171012117E+01
                       1.0646061533E+01  5.4019926182E+00  1.0171012117E+01
                       5.4019926182E+00  1.0646061533E+01  1.0171012117E+01
                       8.2207564872E-21 -6.2540515030E-21 -2.0777525929E-22
            xcart7     5.2708510020E+00  5.2708510020E+00  5.0229162196E+00
                       1.5812553006E+01  1.5812553006E+01  1.5068748659E+01
                       1.0541702004E+01  1.0541702004E+01  4.9150749182E+00
                       1.0541702004E+01  1.0541702004E+01  1.5176589960E+01
                       1.5701105083E+01  1.0541702004E+01  1.0045832439E+01
                       1.0541702004E+01  1.5701105083E+01  1.0045832439E+01
                       1.0541702004E+01  5.3822989254E+00  1.0045832439E+01
                       5.3822989254E+00  1.0541702004E+01  1.0045832439E+01
                       2.7958192869E-21 -2.2873993332E-21  4.6244606574E-22
            xcart8     5.2194059619E+00  5.2194059619E+00  4.9589518948E+00
                       1.5658217886E+01  1.5658217886E+01  1.4876855684E+01
                       1.0438811924E+01  1.0438811924E+01  4.9027064678E+00
                       1.0438811924E+01  1.0438811924E+01  1.4933101111E+01
                       1.5517533096E+01  1.0438811924E+01  9.9179037896E+00
                       1.0438811924E+01  1.5517533096E+01  9.9179037896E+00
                       1.0438811924E+01  5.3600907522E+00  9.9179037896E+00
                       5.3600907522E+00  1.0438811924E+01  9.9179037896E+00
                      -3.5578216501E-21  7.9067159960E-21 -1.9366825336E-20
            xcart9     5.1676150043E+00  5.1676150043E+00  4.8956734718E+00
                       1.5502845013E+01  1.5502845013E+01  1.4687020415E+01
                       1.0335230008E+01  1.0335230008E+01  4.8879392972E+00
                       1.0335230009E+01  1.0335230009E+01  1.4694754590E+01
                       1.5335213309E+01  1.0335230008E+01  9.7913469436E+00
                       1.0335230008E+01  1.5335213309E+01  9.7913469436E+00
                       1.0335230009E+01  5.3352467078E+00  9.7913469436E+00
                       5.3352467078E+00  1.0335230009E+01  9.7913469436E+00
                       2.5457907595E-21 -2.8474125878E-21 -1.8175494481E-21
             xred1     2.5000000000E-01  2.5000000000E-01  2.5000000000E-01
                       7.5000000000E-01  7.5000000000E-01  7.5000000000E-01
                       2.2964410420E-01  2.2964410420E-01  7.7035589580E-01
                       7.7035589580E-01  7.7035589580E-01  2.2964410420E-01
                       2.4466081696E-01  7.5533918305E-01  7.5533918304E-01
                       7.5533918305E-01  2.4466081696E-01  7.5533918304E-01
                       2.4466081696E-01  7.5533918305E-01  2.4466081696E-01
                       7.5533918305E-01  2.4466081696E-01  2.4466081696E-01
                       0.0000000000E+00  0.0000000000E+00  0.0000000000E+00
             xred2     2.5000000000E-01  2.5000000000E-01  2.5000000000E-01
                       7.5000000000E-01  7.5000000000E-01  7.5000000000E-01
                       2.3203445457E-01  2.3203445457E-01  7.6796554543E-01
                       7.6796554543E-01  7.6796554543E-01  2.3203445457E-01
                       2.4660599449E-01  7.5339400551E-01  7.5339400551E-01
                       7.5339400551E-01  2.4660599449E-01  7.5339400551E-01
                       2.4660599449E-01  7.5339400551E-01  2.4660599449E-01
                       7.5339400551E-01  2.4660599449E-01  2.4660599449E-01
                      -3.3453136458E-22  2.3350051450E-22  1.7490242316E-22
             xred3     2.5000000000E-01  2.5000000000E-01  2.5000000000E-01
                       7.5000000000E-01  7.5000000000E-01  7.5000000000E-01
                       2.3454325060E-01  2.3454325060E-01  7.6545674940E-01
                       7.6545674940E-01  7.6545674940E-01  2.3454325060E-01
                       2.4848650152E-01  7.5151349848E-01  7.5151349848E-01
                       7.5151349848E-01  2.4848650152E-01  7.5151349848E-01
                       2.4848650152E-01  7.5151349848E-01  2.4848650152E-01
                       7.5151349848E-01  2.4848650152E-01  2.4848650152E-01
                       0.0000000000E+00  0.0000000000E+00  0.0000000000E+00
             xred4     2.5000000000E-01  2.5000000000E-01  2.5000000000E-01
                       7.5000000000E-01  7.5000000000E-01  7.5000000000E-01
                       2.3698192976E-01  2.3698192976E-01  7.6301807024E-01
                       7.6301807024E-01  7.6301807024E-01  2.3698192976E-01
                       2.5034152047E-01  7.4965847953E-01  7.4965847953E-01
                       7.4965847953E-01  2.5034152047E-01  7.4965847953E-01
                       2.5034152047E-01  7.4965847953E-01  2.5034152047E-01
                       7.4965847953E-01  2.5034152047E-01  2.5034152047E-01
                      -2.6089757708E-22 -4.5707727915E-22  6.4981958405E-22
             xred5     2.5000000000E-01  2.5000000000E-01  2.5000000000E-01
                       7.5000000000E-01  7.5000000000E-01  7.5000000000E-01
                       2.3958251140E-01  2.3958251140E-01  7.6041748860E-01
                       7.6041748860E-01  7.6041748860E-01  2.3958251140E-01
                       2.5205468731E-01  7.4794531269E-01  7.4794531269E-01
                       7.4794531269E-01  2.5205468731E-01  7.4794531269E-01
                       2.5205468731E-01  7.4794531269E-01  2.5205468731E-01
                       7.4794531269E-01  2.5205468731E-01  2.5205468731E-01
                      -6.0075882114E-23  4.9818436482E-23  6.0681851769E-24
             xred6     2.5000000000E-01  2.5000000000E-01  2.5000000000E-01
                       7.5000000000E-01  7.5000000000E-01  7.5000000000E-01
                       2.4210722598E-01  2.4210722598E-01  7.5789277402E-01
                       7.5789277402E-01  7.5789277402E-01  2.4210722598E-01
                       2.5370850062E-01  7.4629149938E-01  7.4629149938E-01
                       7.4629149938E-01  2.5370850062E-01  7.4629149938E-01
                       2.5370850062E-01  7.4629149938E-01  2.5370850062E-01
                       7.4629149938E-01  2.5370850062E-01  2.5370850062E-01
                      -6.9003394346E-22  6.6960576415E-22  1.0258181541E-22
             xred7     2.5000000000E-01  2.5000000000E-01  2.5000000000E-01
                       7.5000000000E-01  7.5000000000E-01  7.5000000000E-01
                       2.4463253533E-01  2.4463253533E-01  7.5536746467E-01
                       7.5536746467E-01  7.5536746467E-01  2.4463253533E-01
                       2.5528604979E-01  7.4471395021E-01  7.4471395021E-01
                       7.4471395021E-01  2.5528604979E-01  7.4471395021E-01
                       2.5528604979E-01  7.4471395021E-01  2.5528604979E-01
                       7.4471395021E-01  2.5528604979E-01  2.5528604979E-01
                      -2.1808365860E-22  2.6411728185E-22  1.0978879521E-24
             xred8     2.5000000000E-01  2.5000000000E-01  2.5000000000E-01
                       7.5000000000E-01  7.5000000000E-01  7.5000000000E-01
                       2.4716444986E-01  2.4716444986E-01  7.5283555014E-01
                       7.5283555014E-01  7.5283555014E-01  2.4716444986E-01
                       2.5673854416E-01  7.4326145584E-01  7.4326145584E-01
                       7.4326145584E-01  2.5673854416E-01  7.4326145584E-01
                       2.5673854416E-01  7.4326145584E-01  2.5673854416E-01
                       7.4326145584E-01  2.5673854416E-01  2.5673854416E-01
                      -4.2722639981E-22 -1.5254871722E-21  1.1846608716E-21
             xred9     2.5000000000E-01  2.5000000000E-01  2.5000000000E-01
                       7.5000000000E-01  7.5000000000E-01  7.5000000000E-01
                       2.4960505053E-01  2.4960505053E-01  7.5039494947E-01
                       7.5039494947E-01  7.5039494947E-01  2.4960505053E-01
                       2.5810972293E-01  7.4189027707E-01  7.4189027707E-01
                       7.4189027707E-01  2.5810972293E-01  7.4189027707E-01
                       2.5810972293E-01  7.4189027707E-01  2.5810972293E-01
                       7.4189027707E-01  2.5810972293E-01  2.5810972293E-01
                      -3.5372762807E-22  1.6809949554E-22  7.8222140009E-23
            znucl       55.00000   53.00000   40.00000   35.00000

================================================================================

 chkinp: Checking input parameters for consistency, jdtset=   1.

 chkinp: Checking input parameters for consistency, jdtset=   2.

 chkinp: Checking input parameters for consistency, jdtset=   3.

 chkinp: Checking input parameters for consistency, jdtset=   4.

 chkinp: Checking input parameters for consistency, jdtset=   5.

 chkinp: Checking input parameters for consistency, jdtset=   6.

 chkinp: Checking input parameters for consistency, jdtset=   7.

 chkinp: Checking input parameters for consistency, jdtset=   8.

 chkinp: Checking input parameters for consistency, jdtset=   9.

================================================================================
== DATASET  1 ==================================================================
-   mpi_nproc: 6, omp_nthreads: -1 (-1 if OMP is not activated)


--- !DatasetInfo
iteration_state: {dtset: 1, }
dimensions: {natom: 9, nkpt: 163, mband: 42, nsppol: 1, nspinor: 1, nspden: 1, mpw: 8276, }
cutoff_energies: {ecut:  16.0, pawecutdg:  40.0, }
electrons: {nelect:   7.20000000E+01, charge:   0.00000000E+00, occopt:   1.00000000E+00, tsmear:   1.00000000E-02, }
meta: {optdriver: 0, ionmov: 0, optcell: 0, iscf: 17, paral_kgb: 0, }
...

 Real(R)+Recip(G) space primitive vectors, cartesian coordinates (Bohr,Bohr^-1):
 R(1)=  0.0000000 11.1770728 10.7797325  G(1)= -0.0447344  0.0447344  0.0463833
 R(2)= 11.1770728  0.0000000 10.7797325  G(2)=  0.0447344 -0.0447344  0.0463833
 R(3)= 11.1770728 11.1770728  0.0000000  G(3)=  0.0447344  0.0447344 -0.0463833
 Unit cell volume ucvol=  2.6933583E+03 bohr^3
 Angles (23,13,12)=  5.94050935E+01  5.94050935E+01  6.11898129E+01 degrees

 Coarse grid specifications (used for wave-functions):

 getcut: wavevector=  0.0000  0.0000  0.0000  ngfft=  60  60  60
         ecut(hartree)=     16.000   => boxcut(ratio)=   2.10806

 Fine grid specifications (used for densities):

 getcut: wavevector=  0.0000  0.0000  0.0000  ngfft=  90  90  90
         ecut(hartree)=     40.000   => boxcut(ratio)=   2.00015

--- Pseudopotential description ------------------------------------------------
- pspini: atom type   1  psp file is ../../../Psps_for_tests/ATOMICDATA/Cs.GGA_PBE-JTH.xml
- pspatm: opening atomic psp file    ../../../Psps_for_tests/ATOMICDATA/Cs.GGA_PBE-JTH.xml
- pspatm : Reading pseudopotential header in XML form from ../../../Psps_for_tests/ATOMICDATA/Cs.GGA_PBE-JTH.xml
 Pseudopotential format is: paw10
 basis_size (lnmax)=  6 (lmn_size= 18), orbitals=   0   0   1   1   2   2
 Spheres core radius: rc_sph= 2.20660278
 1 radial meshes are used:
  - mesh 1: r(i)=AA*[exp(BB*(i-1))-1], size=1500 , AA= 0.15922E-03 BB= 0.87573E-02
 Shapefunction is SIN type: shapef(r)=[sin(pi*r/rshp)/(pi*r/rshp)]**2
 Radius for shape functions =  2.00394208
 mmax= 1500
 Radial grid used for partial waves is grid 1
 Radial grid used for projectors is grid 1
 Radial grid used for (t)core density is grid 1
 Radial grid used for Vloc is grid 1
 Radial grid used for pseudo valence density is grid 1
 Mesh size for Vloc has been set to 1341 to avoid numerical noise.
 Compensation charge density is not taken into account in XC energy/potential
 pspatm: atomic psp has been read  and splines computed

- pspini: atom type   2  psp file is ../../../Psps_for_tests/ATOMICDATA/I.GGA_PBE-JTH.xml
- pspatm: opening atomic psp file    ../../../Psps_for_tests/ATOMICDATA/I.GGA_PBE-JTH.xml
- pspatm : Reading pseudopotential header in XML form from ../../../Psps_for_tests/ATOMICDATA/I.GGA_PBE-JTH.xml
 Pseudopotential format is: paw10
 basis_size (lnmax)=  4 (lmn_size=  8), orbitals=   0   0   1   1
 Spheres core radius: rc_sph= 2.30022271
 1 radial meshes are used:
  - mesh 1: r(i)=AA*[exp(BB*(i-1))-1], size=2000 , AA= 0.12610E-03 BB= 0.66836E-02
 Shapefunction is SIN type: shapef(r)=[sin(pi*r/rshp)/(pi*r/rshp)]**2
 Radius for shape functions =  2.10879093
 mmax= 2000
 Radial grid used for partial waves is grid 1
 Radial grid used for projectors is grid 1
 Radial grid used for (t)core density is grid 1
 Radial grid used for Vloc is grid 1
 Radial grid used for pseudo valence density is grid 1
 Mesh size for Vloc has been set to 1792 to avoid numerical noise.
 Compensation charge density is not taken into account in XC energy/potential
 pspatm: atomic psp has been read  and splines computed

- pspini: atom type   3  psp file is ../../../Psps_for_tests/ATOMICDATA/Zr.GGA_PBE-JTH.xml
- pspatm: opening atomic psp file    ../../../Psps_for_tests/ATOMICDATA/Zr.GGA_PBE-JTH.xml
- pspatm : Reading pseudopotential header in XML form from ../../../Psps_for_tests/ATOMICDATA/Zr.GGA_PBE-JTH.xml
 Pseudopotential format is: paw10
 basis_size (lnmax)=  6 (lmn_size= 18), orbitals=   0   0   1   1   2   2
 Spheres core radius: rc_sph= 2.21000000
 1 radial meshes are used:
  - mesh 1: r(i)=AA*[exp(BB*(i-1))-1], size= 941 , AA= 0.35256E-03 BB= 0.14102E-01
 Shapefunction is BESSEL type: shapef(r,l)=aa(1,l)*jl(q(1,l)*r)+aa(2,l)*jl(q(2,l)*r)
 Radius for shape functions =  2.21000000
 mmax=  941
 Radial grid used for partial waves is grid 1
 Radial grid used for projectors is grid 1
 Radial grid used for (t)core density is grid 1
 Radial grid used for Vloc is grid 1
 Radial grid used for pseudo valence density is grid 1
 Mesh size for Vloc has been set to  777 to avoid numerical noise.
 Compensation charge density is not taken into account in XC energy/potential
 pspatm: atomic psp has been read  and splines computed

- pspini: atom type   4  psp file is ../../../Psps_for_tests/ATOMICDATA/Br.GGA_PBE-JTH.xml
- pspatm: opening atomic psp file    ../../../Psps_for_tests/ATOMICDATA/Br.GGA_PBE-JTH.xml
- pspatm : Reading pseudopotential header in XML form from ../../../Psps_for_tests/ATOMICDATA/Br.GGA_PBE-JTH.xml
 Pseudopotential format is: paw10
 basis_size (lnmax)=  4 (lmn_size=  8), orbitals=   0   0   1   1
 Spheres core radius: rc_sph= 2.20000000
 1 radial meshes are used:
  - mesh 1: r(i)=AA*[exp(BB*(i-1))-1], size= 927 , AA= 0.40483E-03 BB= 0.14169E-01
 Shapefunction is BESSEL type: shapef(r,l)=aa(1,l)*jl(q(1,l)*r)+aa(2,l)*jl(q(2,l)*r)
 Radius for shape functions =  2.02066386
 mmax=  927
 Radial grid used for partial waves is grid 1
 Radial grid used for projectors is grid 1
 Radial grid used for (t)core density is grid 1
 Radial grid used for Vloc is grid 1
 Radial grid used for pseudo valence density is grid 1
 Mesh size for Vloc has been set to  763 to avoid numerical noise.
 Compensation charge density is not taken into account in XC energy/potential
 pspatm: atomic psp has been read  and splines computed

   3.69876676E+04                                ecore*ucvol(ha*bohr**3)
--------------------------------------------------------------------------------

_setup2: Arith. and geom. avg. npw (full set) are    8233.332    8233.321

================================================================================

--- !BeginCycle
iteration_state: {dtset: 1, }
solver: {iscf: 17, nstep: 2500, nline: 4, wfoptalg: 10, }
tolerances: {toldfe: 1.00E-08, }
...

     iter   Etot(hartree)      deltaE(h)  residm     nres2
 ETOT  1  -162.55570466701    -1.626E+02 2.092E-01 1.519E+01
 ETOT  2  -162.74675659476    -1.911E-01 1.364E-02 4.082E+00
 ETOT  3  -162.74267293838     4.084E-03 8.668E-03 8.733E-01
 ETOT  4  -162.74342580705    -7.529E-04 4.083E-03 8.669E-02
 ETOT  5  -162.74290087715     5.249E-04 8.918E-04 7.642E-03
 ETOT  6  -162.74296846060    -6.758E-05 8.034E-04 1.099E-03
 ETOT  7  -162.74296746308     9.975E-07 4.582E-04 3.384E-04
 ETOT  8  -162.74296974378    -2.281E-06 6.383E-04 5.615E-05
 ETOT  9  -162.74296982124    -7.746E-08 2.234E-04 1.806E-05
 ETOT 10  -162.74296988118    -5.994E-08 2.038E-04 1.212E-06
 ETOT 11  -162.74296989886    -1.769E-08 9.742E-05 1.070E-06
 ETOT 12  -162.74296989523     3.633E-09 2.385E-04 1.004E-07
 ETOT 13  -162.74296989652    -1.293E-09 1.229E-04 4.349E-08

 At SCF step   13, etot is converged : 
  for the second time, diff in etot=  1.293E-09 < toldfe=  1.000E-08

 Cartesian components of stress tensor (hartree/bohr^3)
  sigma(1 1)= -4.81823525E-06  sigma(3 2)=  3.42840504E-14
  sigma(2 2)= -4.81823525E-06  sigma(3 1)=  3.42830072E-14
  sigma(3 3)= -4.81927824E-06  sigma(2 1)= -6.61294632E-14


--- !ResultsGS
iteration_state: {dtset: 1, }
comment   : Summary of ground state results
lattice_vectors:
- [  0.0000000,  11.1770728,  10.7797325, ]
- [ 11.1770728,   0.0000000,  10.7797325, ]
- [ 11.1770728,  11.1770728,   0.0000000, ]
lattice_lengths: [  15.52835,   15.52835,   15.80677, ]
lattice_angles: [ 59.405,  59.405,  61.190, ] # degrees, (23, 13, 12)
lattice_volume:   2.6933583E+03
convergence: {deltae: -1.293E-09, res2:  4.349E-08, residm:  1.229E-04, diffor: null, }
etotal    :  -1.62742970E+02
entropy   :   0.00000000E+00
fermie    :  -8.79578955E-02
cartesian_stress_tensor: # hartree/bohr^3
- [ -4.81823525E-06,  -6.61294632E-14,   3.42830072E-14, ]
- [ -6.61294632E-14,  -4.81823525E-06,   3.42840504E-14, ]
- [  3.42830072E-14,   3.42840504E-14,  -4.81927824E-06, ]
pressure_GPa:   1.4177E-01
xred      :
- [  2.5000E-01,   2.5000E-01,   2.5000E-01, Cs]
- [  7.5000E-01,   7.5000E-01,   7.5000E-01, Cs]
- [  2.2964E-01,   2.2964E-01,   7.7036E-01, Br]
- [  7.7036E-01,   7.7036E-01,   2.2964E-01, Br]
- [  2.4466E-01,   7.5534E-01,   7.5534E-01,  I]
- [  7.5534E-01,   2.4466E-01,   7.5534E-01,  I]
- [  2.4466E-01,   7.5534E-01,   2.4466E-01,  I]
- [  7.5534E-01,   2.4466E-01,   2.4466E-01,  I]
- [  0.0000E+00,   0.0000E+00,   0.0000E+00, Zr]
cartesian_forces: # hartree/bohr
- [  1.88229544E-22,   2.49792554E-22,  -5.16150584E-22, ]
- [  1.88229544E-22,   2.49792554E-22,  -5.16150509E-22, ]
- [  2.18115622E-23,   4.16210554E-22,   1.59856614E-06, ]
- [  3.54647525E-22,   8.33745903E-23,  -1.59856614E-06, ]
- [  1.20842725E-05,  -7.84395293E-17,   8.13295243E-17, ]
- [ -7.84395908E-17,   1.20842725E-05,   8.13295243E-17, ]
- [  7.84370607E-17,  -1.20842725E-05,  -8.13276053E-17, ]
- [ -1.20842725E-05,   7.84383348E-17,  -8.13288625E-17, ]
- [  1.88229544E-22,   2.49792572E-22,  -5.16150528E-22, ]
force_length_stats: {min:   6.03521357E-22, max:   1.20842725E-05, mean:   5.72602468E-06, }
...

 Integrated electronic density in atomic spheres:
 ------------------------------------------------
 Atom  Sphere_radius  Integrated_density
    1        2.20660          5.35614260
    2        2.20660          5.35614260
    3        2.20000          4.92331644
    4        2.20000          4.92331644
    5        2.30022          4.02336850
    6        2.30022          4.02336850
    7        2.30022          4.02336850
    8        2.30022          4.02336850
    9        2.21000          8.81794009

 PAW TEST:
 ==== Compensation charge inside spheres ============
 The following values must be close to each other ...
 Compensation charge over spherical meshes =     -5.088510482108314
 Compensation charge over fine fft grid    =     -5.088527111805155

 ==== Results concerning PAW augmentation regions ====

 Total pseudopotential strength Dij (hartree):
 Atom #  1
   0.44066  -0.14592   0.00000   0.00000   0.00000   0.00000   0.00000   0.00000   0.00000   0.00000  -0.00000   0.00000 ...
  -0.14592   0.04398   0.00000   0.00000   0.00000   0.00000   0.00000   0.00000   0.00000   0.00000   0.00000   0.00000 ...
   0.00000   0.00000  -0.09364   0.00000   0.00000  -0.16651   0.00000   0.00000   0.00000   0.00000   0.00000  -0.00000 ...
   0.00000   0.00000   0.00000  -0.09364   0.00000   0.00000  -0.16651   0.00000  -0.00000   0.00000   0.00000   0.00000 ...
   0.00000   0.00000   0.00000   0.00000  -0.09364   0.00000   0.00000  -0.16651   0.00000  -0.00000   0.00000   0.00000 ...
   0.00000   0.00000  -0.16651   0.00000   0.00000   0.40411   0.00000   0.00000   0.00000   0.00000   0.00000   0.00000 ...
   0.00000   0.00000   0.00000  -0.16651   0.00000   0.00000   0.40410   0.00000   0.00000   0.00000   0.00000   0.00000 ...
   0.00000   0.00000   0.00000   0.00000  -0.16651   0.00000   0.00000   0.40411   0.00000   0.00000   0.00000   0.00000 ...
   0.00000   0.00000   0.00000  -0.00000   0.00000   0.00000   0.00000   0.00000   0.00522   0.00000   0.00000   0.00000 ...
   0.00000   0.00000   0.00000   0.00000  -0.00000   0.00000   0.00000   0.00000   0.00000   0.00522   0.00000   0.00000 ...
  -0.00000   0.00000   0.00000   0.00000   0.00000   0.00000   0.00000   0.00000   0.00000   0.00000   0.00522   0.00000 ...
   0.00000   0.00000  -0.00000   0.00000   0.00000   0.00000   0.00000   0.00000   0.00000   0.00000   0.00000   0.00522 ...
   ...  only 12  components have been written...
 Atom #  9
   3.08533  -0.89874   0.00000   0.00000   0.00000   0.00000   0.00000   0.00000   0.00000   0.00000   0.00008   0.00000 ...
  -0.89874   0.26861   0.00000   0.00000   0.00000   0.00000   0.00000   0.00000   0.00000   0.00000  -0.00001   0.00000 ...
   0.00000   0.00000   0.26600   0.00000   0.00000  -0.05399   0.00000   0.00000   0.00000   0.00000   0.00000   0.00000 ...
   0.00000   0.00000   0.00000   0.26612   0.00000   0.00000  -0.05401   0.00000   0.00000   0.00000   0.00000   0.00000 ...
   0.00000   0.00000   0.00000   0.00000   0.26600   0.00000   0.00000  -0.05399   0.00000   0.00000   0.00000   0.00000 ...
   0.00000   0.00000  -0.05399   0.00000   0.00000   0.01484   0.00000   0.00000   0.00000   0.00000   0.00000   0.00000 ...
   0.00000   0.00000   0.00000  -0.05401   0.00000   0.00000   0.01484   0.00000   0.00000   0.00000   0.00000   0.00000 ...
   0.00000   0.00000   0.00000   0.00000  -0.05399   0.00000   0.00000   0.01484   0.00000   0.00000   0.00000   0.00000 ...
   0.00000   0.00000   0.00000   0.00000   0.00000   0.00000   0.00000   0.00000  -0.01759   0.00000   0.00000   0.00000 ...
   0.00000   0.00000   0.00000   0.00000   0.00000   0.00000   0.00000   0.00000   0.00000  -0.01751   0.00000   0.00000 ...
   0.00008  -0.00001   0.00000   0.00000   0.00000   0.00000   0.00000   0.00000   0.00000   0.00000  -0.01739   0.00000 ...
   0.00000   0.00000   0.00000   0.00000   0.00000   0.00000   0.00000   0.00000   0.00000   0.00000   0.00000  -0.01751 ...
   ...  only 12  components have been written...


 Augmentation waves occupancies Rhoij:
 Atom #  1
   1.99699  -0.01642   0.00000   0.00000   0.00000   0.00000   0.00000   0.00000   0.00000   0.00000  -0.00150   0.00000 ...
  -0.01642   0.12937   0.00000   0.00000   0.00000   0.00000   0.00000   0.00000   0.00000   0.00000   0.01468   0.00000 ...
   0.00000   0.00000   2.00788   0.00000   0.00000  -0.00489   0.00000   0.00000   0.00000   0.00000   0.00000  -0.00000 ...
   0.00000   0.00000   0.00000   2.00922   0.00000   0.00000  -0.00516   0.00000   0.00029   0.00000   0.00000   0.00000 ...
   0.00000   0.00000   0.00000   0.00000   2.00788   0.00000   0.00000  -0.00489   0.00000  -0.00000   0.00000   0.00000 ...
   0.00000   0.00000  -0.00489   0.00000   0.00000   0.00008   0.00000   0.00000   0.00000   0.00000   0.00000  -0.00000 ...
   0.00000   0.00000   0.00000  -0.00516   0.00000   0.00000   0.00010   0.00000  -0.00002   0.00000   0.00000   0.00000 ...
   0.00000   0.00000   0.00000   0.00000  -0.00489   0.00000   0.00000   0.00008   0.00000  -0.00000   0.00000   0.00000 ...
   0.00000   0.00000   0.00000   0.00029   0.00000   0.00000  -0.00002   0.00000   0.02058   0.00000   0.00000   0.00000 ...
   0.00000   0.00000   0.00000   0.00000  -0.00000   0.00000   0.00000  -0.00000   0.00000   0.04796   0.00000   0.00000 ...
  -0.00150   0.01468   0.00000   0.00000   0.00000   0.00000   0.00000   0.00000   0.00000   0.00000   0.01847   0.00000 ...
   0.00000   0.00000  -0.00000   0.00000   0.00000  -0.00000   0.00000   0.00000   0.00000   0.00000   0.00000   0.04796 ...
   ...  only 12  components have been written...
 Atom #  9
   1.99263  -0.06546   0.00000   0.00000   0.00000   0.00000   0.00000   0.00000   0.00000   0.00000  -0.00255   0.00000 ...
  -0.06546   1.04439   0.00000   0.00000   0.00000   0.00000   0.00000   0.00000   0.00000   0.00000   0.06225   0.00000 ...
   0.00000   0.00000   1.96763   0.00000   0.00000  -0.19531   0.00000   0.00000   0.00000   0.00000   0.00000   0.00000 ...
   0.00000   0.00000   0.00000   1.96541   0.00000   0.00000  -0.20670   0.00000   0.00000   0.00000   0.00000   0.00000 ...
   0.00000   0.00000   0.00000   0.00000   1.96763   0.00000   0.00000  -0.19531   0.00000   0.00000   0.00000   0.00000 ...
   0.00000   0.00000  -0.19531   0.00000   0.00000   1.42652   0.00000   0.00000   0.00000   0.00000   0.00000   0.00000 ...
   0.00000   0.00000   0.00000  -0.20670   0.00000   0.00000   1.72016   0.00000   0.00000   0.00000   0.00000   0.00000 ...
   0.00000   0.00000   0.00000   0.00000  -0.19531   0.00000   0.00000   1.42652   0.00000   0.00000   0.00000   0.00000 ...
   0.00000   0.00000   0.00000   0.00000   0.00000   0.00000   0.00000   0.00000   0.41521   0.00000   0.00000   0.00000 ...
   0.00000   0.00000   0.00000   0.00000   0.00000   0.00000   0.00000   0.00000   0.00000   0.46132   0.00000   0.00000 ...
  -0.00255   0.06225   0.00000   0.00000   0.00000   0.00000   0.00000   0.00000   0.00000   0.00000   1.40006   0.00000 ...
   0.00000   0.00000   0.00000   0.00000   0.00000   0.00000   0.00000   0.00000   0.00000   0.00000   0.00000   0.46132 ...
   ...  only 12  components have been written...


================================================================================

 ----iterations are completed or convergence reached----

 Mean square residual over all n,k,spin=   86.195E-09; max=  12.287E-05
 reduced coordinates (array xred) for    9 atoms
       0.250000000000      0.250000000000      0.250000000000
       0.750000000000      0.750000000000      0.750000000000
       0.229644104200      0.229644104200      0.770355895800
       0.770355895800      0.770355895800      0.229644104200
       0.244660816955      0.755339183045      0.755339183045
       0.755339183045      0.244660816955      0.755339183045
       0.244660816955      0.755339183045      0.244660816955
       0.755339183045      0.244660816955      0.244660816955
       0.000000000000      0.000000000000      0.000000000000
 rms dE/dt=  7.3820E-05; max dE/dt=  1.3507E-04; dE/dt below (all hartree)
    1       0.000000000000      0.000000000000      0.000000000000
    2       0.000000000000     -0.000000000000      0.000000000000
    3      -0.000017232115     -0.000017232115      0.000000000000
    4       0.000017232115      0.000017232115      0.000000000000
    5      -0.000000000000     -0.000135066792     -0.000135066792
    6      -0.000135066792      0.000000000000     -0.000135066792
    7       0.000135066792      0.000000000000      0.000135066792
    8       0.000000000000      0.000135066792      0.000135066792
    9       0.000000000000      0.000000000000      0.000000000000

 cartesian coordinates (angstrom) at end:
    1      2.95732608057789     2.95732608057789     2.85219436964348
    2      8.87197824173367     8.87197824173367     8.55658310893044
    3      5.91465216117654     5.91465216117654     2.61995848408424
    4      5.91465216113502     5.91465216113502     8.78881899448968
    5      8.93513706280550     5.91465216117539     5.70438873928696
    6      5.91465216117539     8.93513706280550     5.70438873928696
    7      5.91465216113618     2.89416725950606     5.70438873928696
    8      2.89416725950606     5.91465216113618     5.70438873928696
    9      0.00000000000000     0.00000000000000     0.00000000000000

 cartesian forces (hartree/bohr) at end:
    1      0.00000000000000     0.00000000000000    -0.00000000000000
    2      0.00000000000000     0.00000000000000    -0.00000000000000
    3      0.00000000000000     0.00000000000000     0.00000159856614
    4      0.00000000000000     0.00000000000000    -0.00000159856614
    5      0.00001208427246    -0.00000000000000     0.00000000000000
    6     -0.00000000000000     0.00001208427246     0.00000000000000
    7      0.00000000000000    -0.00001208427246    -0.00000000000000
    8     -0.00001208427246     0.00000000000000    -0.00000000000000
    9      0.00000000000000     0.00000000000000    -0.00000000000000
 frms,max,avg= 4.6715427E-06 1.2084272E-05   0.000E+00  0.000E+00  0.000E+00 h/b

 cartesian forces (eV/Angstrom) at end:
    1      0.00000000000000     0.00000000000000    -0.00000000000000
    2      0.00000000000000     0.00000000000000    -0.00000000000000
    3      0.00000000000000     0.00000000000000     0.00008220156925
    4      0.00000000000000     0.00000000000000    -0.00008220156925
    5      0.00062139822195    -0.00000000000000     0.00000000000000
    6     -0.00000000000000     0.00062139822195     0.00000000000000
    7      0.00000000000000    -0.00062139822195    -0.00000000000000
    8     -0.00062139822195     0.00000000000000    -0.00000000000000
    9      0.00000000000000     0.00000000000000    -0.00000000000000
 frms,max,avg= 2.4022036E-04 6.2139822E-04   0.000E+00  0.000E+00  0.000E+00 e/A
 length scales= 15.528347870000 15.528347870000 15.806767879000 bohr
              =  8.217247779861  8.217247779861  8.364581303039 angstroms
 prteigrs : about to open file Cs2TiI6o_DS1_EIG
 Fermi (or HOMO) energy (hartree) =  -0.08796   Average Vxc (hartree)=  -0.28424
 Eigenvalues (hartree) for nkpt= 163  k points:
 kpt#   1, nband= 42, wtk=  0.00058, kpt=  0.0000  0.0000  0.0000 (reduced coord)
  -1.90553   -1.09633   -1.09540   -1.09540   -0.84136   -0.84124   -0.59460   -0.58760
  -0.50794   -0.49733   -0.49733   -0.49437   -0.35930   -0.35817   -0.35817   -0.35676
  -0.35675   -0.35675   -0.21949   -0.17954   -0.17954   -0.17710   -0.17366   -0.17305
  -0.17305   -0.16699   -0.15515   -0.12922   -0.12922   -0.11455   -0.10978   -0.10031
  -0.10031   -0.09883   -0.09883   -0.08796   -0.02111   -0.01324   -0.01324    0.06148
   0.07080    0.07743
 prteigrs : prtvol=0 or 1, do not print more k-points.


--- !EnergyTerms
iteration_state     : {dtset: 1, }
comment             : Components of total free energy in Hartree
kinetic             :  4.59607903959302E+01
hartree             :  3.81920910823416E+01
xc                  : -6.04736052900493E+01
Ewald energy        : -1.15472302964661E+02
psp_core            :  1.37329175135689E+01
local_psp           : -1.11459620161912E+02
spherical_terms     :  2.67767173791615E+01
total_energy        : -1.62743012045620E+02
total_energy_eV     : -4.42846257130597E+03
...


--- !EnergyTermsDC
iteration_state     : {dtset: 1, }
comment             : '"Double-counting" decomposition of free energy'
band_energy         : -2.96626109437553E+01
Ewald energy        : -1.15472302964661E+02
psp_core            :  1.37329175135689E+01
xc_dc               : -5.67821590497200E+01
spherical_terms     :  2.54411855480460E+01
total_energy_dc     : -1.62742969896521E+02
total_energy_dc_eV  : -4.42846142437066E+03
...


 Cartesian components of stress tensor (hartree/bohr^3)
  sigma(1 1)= -4.81823525E-06  sigma(3 2)=  3.42840504E-14
  sigma(2 2)= -4.81823525E-06  sigma(3 1)=  3.42830072E-14
  sigma(3 3)= -4.81927824E-06  sigma(2 1)= -6.61294632E-14

-Cartesian components of stress tensor (GPa)         [Pressure=  1.4177E-01 GPa]
- sigma(1 1)= -1.41757351E-01  sigma(3 2)=  1.00867142E-09
- sigma(2 2)= -1.41757351E-01  sigma(3 1)=  1.00864073E-09
- sigma(3 3)= -1.41788037E-01  sigma(2 1)= -1.94559565E-09

================================================================================
== DATASET  2 ==================================================================
-   mpi_nproc: 6, omp_nthreads: -1 (-1 if OMP is not activated)


--- !DatasetInfo
iteration_state: {dtset: 2, }
dimensions: {natom: 9, nkpt: 163, mband: 42, nsppol: 1, nspinor: 1, nspden: 1, mpw: 8010, }
cutoff_energies: {ecut:  16.0, pawecutdg:  40.0, }
electrons: {nelect:   7.20000000E+01, charge:   0.00000000E+00, occopt:   1.00000000E+00, tsmear:   1.00000000E-02, }
meta: {optdriver: 0, ionmov: 0, optcell: 0, iscf: 17, paral_kgb: 0, }
...

 Real(R)+Recip(G) space primitive vectors, cartesian coordinates (Bohr,Bohr^-1):
 R(1)=  0.0000000 11.0684469 10.6626072  G(1)= -0.0451735  0.0451735  0.0468928
 R(2)= 11.0684469  0.0000000 10.6626072  G(2)=  0.0451735 -0.0451735  0.0468928
 R(3)= 11.0684469 11.0684469  0.0000000  G(3)=  0.0451735  0.0451735 -0.0468928
 Unit cell volume ucvol=  2.6125630E+03 bohr^3
 Angles (23,13,12)=  5.93861822E+01  5.93861822E+01  6.12276355E+01 degrees

 Coarse grid specifications (used for wave-functions):

 getcut: wavevector=  0.0000  0.0000  0.0000  ngfft=  60  60  60
         ecut(hartree)=     16.000   => boxcut(ratio)=   2.12875

 Fine grid specifications (used for densities):

 getcut: wavevector=  0.0000  0.0000  0.0000  ngfft=  90  90  90
         ecut(hartree)=     40.000   => boxcut(ratio)=   2.01978

--- Pseudopotential description ------------------------------------------------
- pspini: atom type   1  psp file is ../../../Psps_for_tests/ATOMICDATA/Cs.GGA_PBE-JTH.xml
- pspatm: opening atomic psp file    ../../../Psps_for_tests/ATOMICDATA/Cs.GGA_PBE-JTH.xml
- pspatm : Reading pseudopotential header in XML form from ../../../Psps_for_tests/ATOMICDATA/Cs.GGA_PBE-JTH.xml
 Pseudopotential format is: paw10
 basis_size (lnmax)=  6 (lmn_size= 18), orbitals=   0   0   1   1   2   2
 Spheres core radius: rc_sph= 2.20660278
 1 radial meshes are used:
  - mesh 1: r(i)=AA*[exp(BB*(i-1))-1], size=1500 , AA= 0.15922E-03 BB= 0.87573E-02
 Shapefunction is SIN type: shapef(r)=[sin(pi*r/rshp)/(pi*r/rshp)]**2
 Radius for shape functions =  2.00394208
 mmax= 1500
 Radial grid used for partial waves is grid 1
 Radial grid used for projectors is grid 1
 Radial grid used for (t)core density is grid 1
 Radial grid used for Vloc is grid 1
 Radial grid used for pseudo valence density is grid 1
 Mesh size for Vloc has been set to 1341 to avoid numerical noise.
 Compensation charge density is not taken into account in XC energy/potential
 pspatm: atomic psp has been read  and splines computed

- pspini: atom type   2  psp file is ../../../Psps_for_tests/ATOMICDATA/I.GGA_PBE-JTH.xml
- pspatm: opening atomic psp file    ../../../Psps_for_tests/ATOMICDATA/I.GGA_PBE-JTH.xml
- pspatm : Reading pseudopotential header in XML form from ../../../Psps_for_tests/ATOMICDATA/I.GGA_PBE-JTH.xml
 Pseudopotential format is: paw10
 basis_size (lnmax)=  4 (lmn_size=  8), orbitals=   0   0   1   1
 Spheres core radius: rc_sph= 2.30022271
 1 radial meshes are used:
  - mesh 1: r(i)=AA*[exp(BB*(i-1))-1], size=2000 , AA= 0.12610E-03 BB= 0.66836E-02
 Shapefunction is SIN type: shapef(r)=[sin(pi*r/rshp)/(pi*r/rshp)]**2
 Radius for shape functions =  2.10879093
 mmax= 2000
 Radial grid used for partial waves is grid 1
 Radial grid used for projectors is grid 1
 Radial grid used for (t)core density is grid 1
 Radial grid used for Vloc is grid 1
 Radial grid used for pseudo valence density is grid 1
 Mesh size for Vloc has been set to 1792 to avoid numerical noise.
 Compensation charge density is not taken into account in XC energy/potential
 pspatm: atomic psp has been read  and splines computed

- pspini: atom type   3  psp file is ../../../Psps_for_tests/ATOMICDATA/Zr.GGA_PBE-JTH.xml
- pspatm: opening atomic psp file    ../../../Psps_for_tests/ATOMICDATA/Zr.GGA_PBE-JTH.xml
- pspatm : Reading pseudopotential header in XML form from ../../../Psps_for_tests/ATOMICDATA/Zr.GGA_PBE-JTH.xml
 Pseudopotential format is: paw10
 basis_size (lnmax)=  6 (lmn_size= 18), orbitals=   0   0   1   1   2   2
 Spheres core radius: rc_sph= 2.21000000
 1 radial meshes are used:
  - mesh 1: r(i)=AA*[exp(BB*(i-1))-1], size= 941 , AA= 0.35256E-03 BB= 0.14102E-01
 Shapefunction is BESSEL type: shapef(r,l)=aa(1,l)*jl(q(1,l)*r)+aa(2,l)*jl(q(2,l)*r)
 Radius for shape functions =  2.21000000
 mmax=  941
 Radial grid used for partial waves is grid 1
 Radial grid used for projectors is grid 1
 Radial grid used for (t)core density is grid 1
 Radial grid used for Vloc is grid 1
 Radial grid used for pseudo valence density is grid 1
 Mesh size for Vloc has been set to  777 to avoid numerical noise.
 Compensation charge density is not taken into account in XC energy/potential
 pspatm: atomic psp has been read  and splines computed

- pspini: atom type   4  psp file is ../../../Psps_for_tests/ATOMICDATA/Br.GGA_PBE-JTH.xml
- pspatm: opening atomic psp file    ../../../Psps_for_tests/ATOMICDATA/Br.GGA_PBE-JTH.xml
- pspatm : Reading pseudopotential header in XML form from ../../../Psps_for_tests/ATOMICDATA/Br.GGA_PBE-JTH.xml
 Pseudopotential format is: paw10
 basis_size (lnmax)=  4 (lmn_size=  8), orbitals=   0   0   1   1
 Spheres core radius: rc_sph= 2.20000000
 1 radial meshes are used:
  - mesh 1: r(i)=AA*[exp(BB*(i-1))-1], size= 927 , AA= 0.40483E-03 BB= 0.14169E-01
 Shapefunction is BESSEL type: shapef(r,l)=aa(1,l)*jl(q(1,l)*r)+aa(2,l)*jl(q(2,l)*r)
 Radius for shape functions =  2.02066386
 mmax=  927
 Radial grid used for partial waves is grid 1
 Radial grid used for projectors is grid 1
 Radial grid used for (t)core density is grid 1
 Radial grid used for Vloc is grid 1
 Radial grid used for pseudo valence density is grid 1
 Mesh size for Vloc has been set to  763 to avoid numerical noise.
 Compensation charge density is not taken into account in XC energy/potential
 pspatm: atomic psp has been read  and splines computed

--------------------------------------------------------------------------------

_setup2: Arith. and geom. avg. npw (full set) are    7985.585    7985.578

================================================================================

--- !BeginCycle
iteration_state: {dtset: 2, }
solver: {iscf: 17, nstep: 2500, nline: 4, wfoptalg: 10, }
tolerances: {toldfe: 1.00E-08, }
...

     iter   Etot(hartree)      deltaE(h)  residm     nres2
 ETOT  1  -162.54982925396    -1.625E+02 2.488E-01 1.565E+01
 ETOT  2  -162.74579867681    -1.960E-01 1.807E-02 4.268E+00
 ETOT  3  -162.74162553455     4.173E-03 2.325E-03 9.115E-01
 ETOT  4  -162.74240804385    -7.825E-04 2.949E-03 9.006E-02
 ETOT  5  -162.74187066683     5.374E-04 9.877E-04 7.513E-03
 ETOT  6  -162.74193790277    -6.724E-05 6.056E-04 1.160E-03
 ETOT  7  -162.74193651006     1.393E-06 2.870E-04 3.553E-04
 ETOT  8  -162.74193856279    -2.053E-06 5.073E-04 5.691E-05
 ETOT  9  -162.74193865191    -8.913E-08 2.869E-04 1.818E-05
 ETOT 10  -162.74193871732    -6.540E-08 7.031E-04 1.303E-06
 ETOT 11  -162.74193873595    -1.863E-08 1.754E-04 1.215E-06
 ETOT 12  -162.74193873194     4.005E-09 3.213E-04 1.135E-07
 ETOT 13  -162.74193873332    -1.384E-09 1.179E-04 5.091E-08

 At SCF step   13, etot is converged : 
  for the second time, diff in etot=  1.384E-09 < toldfe=  1.000E-08

 Cartesian components of stress tensor (hartree/bohr^3)
  sigma(1 1)= -1.44077419E-05  sigma(3 2)=  4.73700499E-14
  sigma(2 2)= -1.44077419E-05  sigma(3 1)=  4.73712978E-14
  sigma(3 3)= -1.44213864E-05  sigma(2 1)= -9.12665103E-14


--- !ResultsGS
iteration_state: {dtset: 2, }
comment   : Summary of ground state results
lattice_vectors:
- [  0.0000000,  11.0684469,  10.6626072, ]
- [ 11.0684469,   0.0000000,  10.6626072, ]
- [ 11.0684469,  11.0684469,   0.0000000, ]
lattice_lengths: [  15.36886,   15.36886,   15.65315, ]
lattice_angles: [ 59.386,  59.386,  61.228, ] # degrees, (23, 13, 12)
lattice_volume:   2.6125630E+03
convergence: {deltae: -1.384E-09, res2:  5.091E-08, residm:  1.179E-04, diffor: null, }
etotal    :  -1.62741939E+02
entropy   :   0.00000000E+00
fermie    :  -8.35144116E-02
cartesian_stress_tensor: # hartree/bohr^3
- [ -1.44077419E-05,  -9.12665103E-14,   4.73712978E-14, ]
- [ -9.12665103E-14,  -1.44077419E-05,   4.73700499E-14, ]
- [  4.73712978E-14,   4.73700499E-14,  -1.44213864E-05, ]
pressure_GPa:   4.2402E-01
xred      :
- [  2.5000E-01,   2.5000E-01,   2.5000E-01, Cs]
- [  7.5000E-01,   7.5000E-01,   7.5000E-01, Cs]
- [  2.3203E-01,   2.3203E-01,   7.6797E-01, Br]
- [  7.6797E-01,   7.6797E-01,   2.3203E-01, Br]
- [  2.4661E-01,   7.5339E-01,   7.5339E-01,  I]
- [  7.5339E-01,   2.4661E-01,   7.5339E-01,  I]
- [  2.4661E-01,   7.5339E-01,   2.4661E-01,  I]
- [  7.5339E-01,   2.4661E-01,   2.4661E-01,  I]
- [ -3.3453E-22,   2.3350E-22,   1.7490E-22, Zr]
cartesian_forces: # hartree/bohr
- [ -7.52918221E-22,  -6.36740434E-23,   4.70573575E-23, ]
- [ -7.52918011E-22,  -6.36742349E-23,   4.70573291E-23, ]
- [ -6.91034068E-22,  -1.25558160E-22,   3.20244243E-06, ]
- [ -1.02656052E-21,   2.09968292E-22,  -3.20244243E-06, ]
- [ -3.97687245E-05,   3.35787880E-16,  -3.48566684E-16, ]
- [  3.35787191E-16,  -3.97687245E-05,  -3.48566684E-16, ]
- [ -3.35782859E-16,   3.97687245E-05,   3.48564236E-16, ]
- [  3.97687245E-05,  -3.35790456E-16,   3.48569320E-16, ]
- [ -7.52918175E-22,  -6.36740525E-23,   4.70573860E-23, ]
force_length_stats: {min:   7.57069569E-22, max:   3.97687245E-05, mean:   1.83866426E-05, }
...

 Integrated electronic density in atomic spheres:
 ------------------------------------------------
 Atom  Sphere_radius  Integrated_density
    1        2.20660          5.36591765
    2        2.20660          5.36591765
    3        2.20000          4.92133110
    4        2.20000          4.92133110
    5        2.30022          4.01658528
    6        2.30022          4.01658528
    7        2.30022          4.01658528
    8        2.30022          4.01658528
    9        2.21000          8.81480944

 PAW TEST:
 ==== Compensation charge inside spheres ============
 The following values must be close to each other ...
 Compensation charge over spherical meshes =     -5.089915693829029
 Compensation charge over fine fft grid    =     -5.089924931474071

 ==== Results concerning PAW augmentation regions ====

 Total pseudopotential strength Dij (hartree):
 Atom #  1
   0.43927  -0.14547   0.00000   0.00000   0.00000   0.00000   0.00000   0.00000   0.00000   0.00000  -0.00000   0.00000 ...
  -0.14547   0.04383   0.00000   0.00000   0.00000   0.00000   0.00000   0.00000   0.00000   0.00000   0.00000   0.00000 ...
   0.00000   0.00000  -0.09346   0.00000   0.00000  -0.16662   0.00000   0.00000   0.00000   0.00000   0.00000  -0.00000 ...
   0.00000   0.00000   0.00000  -0.09346   0.00000   0.00000  -0.16662   0.00000  -0.00000   0.00000   0.00000   0.00000 ...
   0.00000   0.00000   0.00000   0.00000  -0.09346   0.00000   0.00000  -0.16662   0.00000  -0.00000   0.00000   0.00000 ...
   0.00000   0.00000  -0.16662   0.00000   0.00000   0.40369   0.00000   0.00000   0.00000   0.00000   0.00000   0.00000 ...
   0.00000   0.00000   0.00000  -0.16662   0.00000   0.00000   0.40369   0.00000   0.00000   0.00000   0.00000   0.00000 ...
   0.00000   0.00000   0.00000   0.00000  -0.16662   0.00000   0.00000   0.40369   0.00000   0.00000   0.00000   0.00000 ...
   0.00000   0.00000   0.00000  -0.00000   0.00000   0.00000   0.00000   0.00000   0.00524   0.00000   0.00000   0.00000 ...
   0.00000   0.00000   0.00000   0.00000  -0.00000   0.00000   0.00000   0.00000   0.00000   0.00524   0.00000   0.00000 ...
  -0.00000   0.00000   0.00000   0.00000   0.00000   0.00000   0.00000   0.00000   0.00000   0.00000   0.00524   0.00000 ...
   0.00000   0.00000  -0.00000   0.00000   0.00000   0.00000   0.00000   0.00000   0.00000   0.00000   0.00000   0.00524 ...
   ...  only 12  components have been written...
 Atom #  9
   3.08365  -0.89823   0.00000   0.00000   0.00000   0.00000   0.00000   0.00000   0.00000   0.00000   0.00008   0.00000 ...
  -0.89823   0.26845   0.00000   0.00000   0.00000   0.00000   0.00000   0.00000   0.00000   0.00000  -0.00001   0.00000 ...
   0.00000   0.00000   0.26652   0.00000   0.00000  -0.05411   0.00000   0.00000   0.00000   0.00000   0.00000   0.00000 ...
   0.00000   0.00000   0.00000   0.26663   0.00000   0.00000  -0.05413   0.00000   0.00000   0.00000   0.00000   0.00000 ...
   0.00000   0.00000   0.00000   0.00000   0.26652   0.00000   0.00000  -0.05411   0.00000   0.00000   0.00000   0.00000 ...
   0.00000   0.00000  -0.05411   0.00000   0.00000   0.01487   0.00000   0.00000   0.00000   0.00000   0.00000   0.00000 ...
   0.00000   0.00000   0.00000  -0.05413   0.00000   0.00000   0.01487   0.00000   0.00000   0.00000   0.00000   0.00000 ...
   0.00000   0.00000   0.00000   0.00000  -0.05411   0.00000   0.00000   0.01487   0.00000   0.00000   0.00000   0.00000 ...
   0.00000   0.00000   0.00000   0.00000   0.00000   0.00000   0.00000   0.00000  -0.01699   0.00000   0.00000   0.00000 ...
   0.00000   0.00000   0.00000   0.00000   0.00000   0.00000   0.00000   0.00000   0.00000  -0.01691   0.00000   0.00000 ...
   0.00008  -0.00001   0.00000   0.00000   0.00000   0.00000   0.00000   0.00000   0.00000   0.00000  -0.01680   0.00000 ...
   0.00000   0.00000   0.00000   0.00000   0.00000   0.00000   0.00000   0.00000   0.00000   0.00000   0.00000  -0.01691 ...
   ...  only 12  components have been written...


 Augmentation waves occupancies Rhoij:
 Atom #  1
   1.99717  -0.01603   0.00000   0.00000   0.00000   0.00000   0.00000   0.00000   0.00000   0.00000  -0.00147   0.00000 ...
  -0.01603   0.13932   0.00000   0.00000   0.00000   0.00000   0.00000   0.00000   0.00000   0.00000   0.01579   0.00000 ...
   0.00000   0.00000   2.00772   0.00000   0.00000  -0.00488   0.00000   0.00000   0.00000   0.00000   0.00000  -0.00034 ...
   0.00000   0.00000   0.00000   2.00902   0.00000   0.00000  -0.00514   0.00000  -0.00005   0.00000   0.00000   0.00000 ...
   0.00000   0.00000   0.00000   0.00000   2.00772   0.00000   0.00000  -0.00488   0.00000  -0.00034   0.00000   0.00000 ...
   0.00000   0.00000  -0.00488   0.00000   0.00000   0.00009   0.00000   0.00000   0.00000   0.00000   0.00000   0.00001 ...
[...]
                       5.6336531246E+00  2.8586113745E+00  5.3822678006E+00
                       2.8586113745E+00  5.6336531246E+00  5.3822678006E+00
                       4.3502369704E-21 -3.3095015168E-21 -1.0994993173E-22
           xangst7     2.7892142201E+00  2.7892142201E+00  2.6580127841E+00
                       8.3676426604E+00  8.3676426604E+00  7.9740383522E+00
                       5.5784284404E+00  5.5784284404E+00  2.6009456252E+00
                       5.5784284402E+00  5.5784284402E+00  8.0311055111E+00
                       8.3086669595E+00  5.5784284404E+00  5.3160255681E+00
                       5.5784284404E+00  8.3086669595E+00  5.3160255681E+00
                       5.5784284402E+00  2.8481899211E+00  5.3160255681E+00
                       2.8481899211E+00  5.5784284402E+00  5.3160255681E+00
                       1.4794838460E-21 -1.2104395941E-21  2.4471591819E-22
           xangst8     2.7619906774E+00  2.7619906774E+00  2.6241643212E+00
                       8.2859720323E+00  8.2859720323E+00  7.8724929637E+00
                       5.5239813549E+00  5.5239813549E+00  2.5944005232E+00
                       5.5239813548E+00  5.5239813548E+00  7.9022567617E+00
                       8.2115248477E+00  5.5239813549E+00  5.2483286424E+00
                       5.5239813549E+00  8.2115248477E+00  5.2483286424E+00
                       5.5239813548E+00  2.8364378620E+00  5.2483286424E+00
                       2.8364378620E+00  5.5239813548E+00  5.2483286424E+00
                      -1.8827181295E-21  4.1840538999E-21 -1.0248482570E-20
           xangst9     2.7345840830E+00  2.7345840830E+00  2.5906788220E+00
                       8.2037522491E+00  8.2037522491E+00  7.7720364659E+00
                       5.4691681660E+00  5.4691681660E+00  2.5865860731E+00
                       5.4691681661E+00  5.4691681661E+00  7.7761292148E+00
                       8.1150453721E+00  5.4691681660E+00  5.1813576439E+00
                       5.4691681660E+00  8.1150453721E+00  5.1813576439E+00
                       5.4691681661E+00  2.8232909600E+00  5.1813576439E+00
                       2.8232909600E+00  5.4691681661E+00  5.1813576439E+00
                       1.3471744478E-21 -1.5067858449E-21 -9.6180574341E-22
            xcart1     5.5885363779E+00  5.5885363779E+00  5.3898662364E+00
                       1.6765609134E+01  1.6765609134E+01  1.6169598709E+01
                       1.1177072756E+01  1.1177072756E+01  4.9510040144E+00
                       1.1177072756E+01  1.1177072756E+01  1.6608460931E+01
                       1.6884962008E+01  1.1177072756E+01  1.0779732473E+01
                       1.1177072756E+01  1.6884962008E+01  1.0779732473E+01
                       1.1177072756E+01  5.4691835032E+00  1.0779732473E+01
                       5.4691835032E+00  1.1177072756E+01  1.0779732473E+01
                       0.0000000000E+00  0.0000000000E+00  0.0000000000E+00
            xcart2     5.5342234428E+00  5.5342234428E+00  5.3313036098E+00
                       1.6602670328E+01  1.6602670328E+01  1.5993910829E+01
                       1.1068446886E+01  1.1068446886E+01  4.9481845010E+00
                       1.1068446885E+01  1.1068446885E+01  1.6377029938E+01
                       1.6677803068E+01  1.1068446886E+01  1.0662607220E+01
                       1.1068446886E+01  1.6677803068E+01  1.0662607220E+01
                       1.1068446885E+01  5.4590907033E+00  1.0662607220E+01
                       5.4590907033E+00  1.1068446885E+01  1.0662607220E+01
                       4.5203862234E-21 -1.7668444595E-21 -1.0772522715E-21
            xcart3     5.4810932513E+00  5.4810932513E+00  5.2704705254E+00
                       1.6443279754E+01  1.6443279754E+01  1.5811411576E+01
                       1.0962186503E+01  1.0962186503E+01  4.9446131569E+00
                       1.0962186503E+01  1.0962186503E+01  1.6137268945E+01
                       1.6476462259E+01  1.0962186503E+01  1.0540941051E+01
                       1.0962186503E+01  1.6476462259E+01  1.0540941051E+01
                       1.0962186503E+01  5.4479107461E+00  1.0540941051E+01
                       5.4479107461E+00  1.0962186503E+01  1.0540941051E+01
                       0.0000000000E+00  0.0000000000E+00  0.0000000000E+00
            xcart4     5.4271725195E+00  5.4271725195E+00  5.2111672599E+00
                       1.6281517559E+01  1.6281517559E+01  1.5633501780E+01
                       1.0854345039E+01  1.0854345039E+01  4.9398098942E+00
                       1.0854345039E+01  1.0854345039E+01  1.5904859145E+01
                       1.6274103596E+01  1.0854345039E+01  1.0422334520E+01
                       1.0854345039E+01  1.6274103596E+01  1.0422334520E+01
                       1.0854345039E+01  5.4345864815E+00  1.0422334520E+01
                       5.4345864815E+00  1.0854345039E+01  1.0422334520E+01
                       2.0920914812E-21  4.2214936571E-21 -7.4829741284E-21
            xcart5     5.3753665254E+00  5.3753665254E+00  5.1478184125E+00
                       1.6126099576E+01  1.6126099576E+01  1.5443455238E+01
                       1.0750733051E+01  1.0750733051E+01  4.9333090540E+00
                       1.0750733051E+01  1.0750733051E+01  1.5657964596E+01
                       1.6081920787E+01  1.0750733051E+01  1.0295636825E+01
                       1.0750733051E+01  1.6081920787E+01  1.0295636825E+01
                       1.0750733051E+01  5.4195453150E+00  1.0295636825E+01
                       5.4195453150E+00  1.0750733051E+01  1.0295636825E+01
                       6.0082215056E-22 -5.8062233246E-22 -1.0560693498E-22
            xcart6     5.3230307666E+00  5.3230307666E+00  5.0855060585E+00
                       1.5969092300E+01  1.5969092300E+01  1.5256518175E+01
                       1.0646061533E+01  1.0646061533E+01  4.9249510581E+00
                       1.0646061533E+01  1.0646061533E+01  1.5417073176E+01
                       1.5890130448E+01  1.0646061533E+01  1.0171012117E+01
                       1.0646061533E+01  1.5890130448E+01  1.0171012117E+01
                       1.0646061533E+01  5.4019926182E+00  1.0171012117E+01
                       5.4019926182E+00  1.0646061533E+01  1.0171012117E+01
                       8.2207564872E-21 -6.2540515030E-21 -2.0777525929E-22
            xcart7     5.2708510020E+00  5.2708510020E+00  5.0229162196E+00
                       1.5812553006E+01  1.5812553006E+01  1.5068748659E+01
                       1.0541702004E+01  1.0541702004E+01  4.9150749182E+00
                       1.0541702004E+01  1.0541702004E+01  1.5176589960E+01
                       1.5701105083E+01  1.0541702004E+01  1.0045832439E+01
                       1.0541702004E+01  1.5701105083E+01  1.0045832439E+01
                       1.0541702004E+01  5.3822989254E+00  1.0045832439E+01
                       5.3822989254E+00  1.0541702004E+01  1.0045832439E+01
                       2.7958192869E-21 -2.2873993332E-21  4.6244606574E-22
            xcart8     5.2194059619E+00  5.2194059619E+00  4.9589518948E+00
                       1.5658217886E+01  1.5658217886E+01  1.4876855684E+01
                       1.0438811924E+01  1.0438811924E+01  4.9027064678E+00
                       1.0438811924E+01  1.0438811924E+01  1.4933101111E+01
                       1.5517533096E+01  1.0438811924E+01  9.9179037896E+00
                       1.0438811924E+01  1.5517533096E+01  9.9179037896E+00
                       1.0438811924E+01  5.3600907522E+00  9.9179037896E+00
                       5.3600907522E+00  1.0438811924E+01  9.9179037896E+00
                      -3.5578216501E-21  7.9067159960E-21 -1.9366825336E-20
            xcart9     5.1676150043E+00  5.1676150043E+00  4.8956734718E+00
                       1.5502845013E+01  1.5502845013E+01  1.4687020415E+01
                       1.0335230008E+01  1.0335230008E+01  4.8879392972E+00
                       1.0335230009E+01  1.0335230009E+01  1.4694754590E+01
                       1.5335213309E+01  1.0335230008E+01  9.7913469436E+00
                       1.0335230008E+01  1.5335213309E+01  9.7913469436E+00
                       1.0335230009E+01  5.3352467078E+00  9.7913469436E+00
                       5.3352467078E+00  1.0335230009E+01  9.7913469436E+00
                       2.5457907595E-21 -2.8474125878E-21 -1.8175494481E-21
             xred1     2.5000000000E-01  2.5000000000E-01  2.5000000000E-01
                       7.5000000000E-01  7.5000000000E-01  7.5000000000E-01
                       2.2964410420E-01  2.2964410420E-01  7.7035589580E-01
                       7.7035589580E-01  7.7035589580E-01  2.2964410420E-01
                       2.4466081696E-01  7.5533918305E-01  7.5533918304E-01
                       7.5533918305E-01  2.4466081696E-01  7.5533918304E-01
                       2.4466081696E-01  7.5533918305E-01  2.4466081696E-01
                       7.5533918305E-01  2.4466081696E-01  2.4466081696E-01
                       0.0000000000E+00  0.0000000000E+00  0.0000000000E+00
             xred2     2.5000000000E-01  2.5000000000E-01  2.5000000000E-01
                       7.5000000000E-01  7.5000000000E-01  7.5000000000E-01
                       2.3203445457E-01  2.3203445457E-01  7.6796554543E-01
                       7.6796554543E-01  7.6796554543E-01  2.3203445457E-01
                       2.4660599449E-01  7.5339400551E-01  7.5339400551E-01
                       7.5339400551E-01  2.4660599449E-01  7.5339400551E-01
                       2.4660599449E-01  7.5339400551E-01  2.4660599449E-01
                       7.5339400551E-01  2.4660599449E-01  2.4660599449E-01
                      -3.3453136458E-22  2.3350051450E-22  1.7490242316E-22
             xred3     2.5000000000E-01  2.5000000000E-01  2.5000000000E-01
                       7.5000000000E-01  7.5000000000E-01  7.5000000000E-01
                       2.3454325060E-01  2.3454325060E-01  7.6545674940E-01
                       7.6545674940E-01  7.6545674940E-01  2.3454325060E-01
                       2.4848650152E-01  7.5151349848E-01  7.5151349848E-01
                       7.5151349848E-01  2.4848650152E-01  7.5151349848E-01
                       2.4848650152E-01  7.5151349848E-01  2.4848650152E-01
                       7.5151349848E-01  2.4848650152E-01  2.4848650152E-01
                       0.0000000000E+00  0.0000000000E+00  0.0000000000E+00
             xred4     2.5000000000E-01  2.5000000000E-01  2.5000000000E-01
                       7.5000000000E-01  7.5000000000E-01  7.5000000000E-01
                       2.3698192976E-01  2.3698192976E-01  7.6301807024E-01
                       7.6301807024E-01  7.6301807024E-01  2.3698192976E-01
                       2.5034152047E-01  7.4965847953E-01  7.4965847953E-01
                       7.4965847953E-01  2.5034152047E-01  7.4965847953E-01
                       2.5034152047E-01  7.4965847953E-01  2.5034152047E-01
                       7.4965847953E-01  2.5034152047E-01  2.5034152047E-01
                      -2.6089757708E-22 -4.5707727915E-22  6.4981958405E-22
             xred5     2.5000000000E-01  2.5000000000E-01  2.5000000000E-01
                       7.5000000000E-01  7.5000000000E-01  7.5000000000E-01
                       2.3958251140E-01  2.3958251140E-01  7.6041748860E-01
                       7.6041748860E-01  7.6041748860E-01  2.3958251140E-01
                       2.5205468731E-01  7.4794531269E-01  7.4794531269E-01
                       7.4794531269E-01  2.5205468731E-01  7.4794531269E-01
                       2.5205468731E-01  7.4794531269E-01  2.5205468731E-01
                       7.4794531269E-01  2.5205468731E-01  2.5205468731E-01
                      -6.0075882114E-23  4.9818436482E-23  6.0681851769E-24
             xred6     2.5000000000E-01  2.5000000000E-01  2.5000000000E-01
                       7.5000000000E-01  7.5000000000E-01  7.5000000000E-01
                       2.4210722598E-01  2.4210722598E-01  7.5789277402E-01
                       7.5789277402E-01  7.5789277402E-01  2.4210722598E-01
                       2.5370850062E-01  7.4629149938E-01  7.4629149938E-01
                       7.4629149938E-01  2.5370850062E-01  7.4629149938E-01
                       2.5370850062E-01  7.4629149938E-01  2.5370850062E-01
                       7.4629149938E-01  2.5370850062E-01  2.5370850062E-01
                      -6.9003394346E-22  6.6960576415E-22  1.0258181541E-22
             xred7     2.5000000000E-01  2.5000000000E-01  2.5000000000E-01
                       7.5000000000E-01  7.5000000000E-01  7.5000000000E-01
                       2.4463253533E-01  2.4463253533E-01  7.5536746467E-01
                       7.5536746467E-01  7.5536746467E-01  2.4463253533E-01
                       2.5528604979E-01  7.4471395021E-01  7.4471395021E-01
                       7.4471395021E-01  2.5528604979E-01  7.4471395021E-01
                       2.5528604979E-01  7.4471395021E-01  2.5528604979E-01
                       7.4471395021E-01  2.5528604979E-01  2.5528604979E-01
                      -2.1808365860E-22  2.6411728185E-22  1.0978879521E-24
             xred8     2.5000000000E-01  2.5000000000E-01  2.5000000000E-01
                       7.5000000000E-01  7.5000000000E-01  7.5000000000E-01
                       2.4716444986E-01  2.4716444986E-01  7.5283555014E-01
                       7.5283555014E-01  7.5283555014E-01  2.4716444986E-01
                       2.5673854416E-01  7.4326145584E-01  7.4326145584E-01
                       7.4326145584E-01  2.5673854416E-01  7.4326145584E-01
                       2.5673854416E-01  7.4326145584E-01  2.5673854416E-01
                       7.4326145584E-01  2.5673854416E-01  2.5673854416E-01
                      -4.2722639981E-22 -1.5254871722E-21  1.1846608716E-21
             xred9     2.5000000000E-01  2.5000000000E-01  2.5000000000E-01
                       7.5000000000E-01  7.5000000000E-01  7.5000000000E-01
                       2.4960505053E-01  2.4960505053E-01  7.5039494947E-01
                       7.5039494947E-01  7.5039494947E-01  2.4960505053E-01
                       2.5810972293E-01  7.4189027707E-01  7.4189027707E-01
                       7.4189027707E-01  2.5810972293E-01  7.4189027707E-01
                       2.5810972293E-01  7.4189027707E-01  2.5810972293E-01
                       7.4189027707E-01  2.5810972293E-01  2.5810972293E-01
                      -3.5372762807E-22  1.6809949554E-22  7.8222140009E-23
            znucl       55.00000   53.00000   40.00000   35.00000

================================================================================


- Timing analysis has been suppressed with timopt=0



================================================================================

 Suggested references for the acknowledgment of ABINIT usage.

 The users of ABINIT have little formal obligations with respect to the ABINIT group
 (those specified in the GNU General Public License, http://www.gnu.org/copyleft/gpl.txt).
 However, it is common practice in the scientific literature,
 to acknowledge the efforts of people that have made the research possible.
 In this spirit, please find below suggested citations of work written by ABINIT developers,
 corresponding to implementations inside of ABINIT that you have used in the present run.
 Note also that it will be of great value to readers of publications presenting these results,
 to read papers enabling them to understand the theoretical formalism and details
 of the ABINIT implementation.
 For information on why they are suggested, see also https://docs.abinit.org/theory/acknowledgments.
-
- [1] Implementation of the Projector Augmented-Wave Method in the ABINIT code.
- M. Torrent, F. Jollet, F. Bottin, G. Zerah, and X. Gonze Comput. Mat. Science 42, 337, (2008).
- Comment: PAW calculations. Strong suggestion to cite this paper.
- DOI and bibtex: see https://docs.abinit.org/theory/bibliography/#torrent2008
-
- [2] Libxc: A library of exchange and correlation functionals for density functional theory.
- M.A.L. Marques, M.J.T. Oliveira, T. Burnus, Computer Physics Communications 183, 2227 (2012).
- Comment: to be cited when LibXC is used (negative value of ixc)
- Strong suggestion to cite this paper.
- DOI and bibtex: see https://docs.abinit.org/theory/bibliography/#marques2012
-
- [3] The Abinit project: Impact, environment and recent developments.
- Computer Phys. Comm. 248, 107042 (2020).
- X.Gonze, B. Amadon, G. Antonius, F.Arnardi, L.Baguet, J.-M.Beuken,
- J.Bieder, F.Bottin, J.Bouchet, E.Bousquet, N.Brouwer, F.Bruneval,
- G.Brunin, T.Cavignac, J.-B. Charraud, Wei Chen, M.Cote, S.Cottenier,
- J.Denier, G.Geneste, Ph.Ghosez, M.Giantomassi, Y.Gillet, O.Gingras,
- D.R.Hamann, G.Hautier, Xu He, N.Helbig, N.Holzwarth, Y.Jia, F.Jollet,
- W.Lafargue-Dit-Hauret, K.Lejaeghere, M.A.L.Marques, A.Martin, C.Martins,
- H.P.C. Miranda, F.Naccarato, K. Persson, G.Petretto, V.Planes, Y.Pouillon,
- S.Prokhorenko, F.Ricci, G.-M.Rignanese, A.H.Romero, M.M.Schmitt, M.Torrent,
- M.J.van Setten, B.Van Troeye, M.J.Verstraete, G.Zerah and J.W.Zwanzig
- Comment: the fifth generic paper describing the ABINIT project.
- Note that a version of this paper, that is not formatted for Computer Phys. Comm. 
- is available at https://www.abinit.org/sites/default/files/ABINIT20.pdf .
- The licence allows the authors to put it on the Web.
- DOI and bibtex: see https://docs.abinit.org/theory/bibliography/#gonze2020
-
- [4] ABINIT: Overview, and focus on selected capabilities
- J. Chem. Phys. 152, 124102 (2020).
- A. Romero, D.C. Allan, B. Amadon, G. Antonius, T. Applencourt, L.Baguet,
- J.Bieder, F.Bottin, J.Bouchet, E.Bousquet, F.Bruneval,
- G.Brunin, D.Caliste, M.Cote,
- J.Denier, C. Dreyer, Ph.Ghosez, M.Giantomassi, Y.Gillet, O.Gingras,
- D.R.Hamann, G.Hautier, F.Jollet, G. Jomard,
- A.Martin, 
- H.P.C. Miranda, F.Naccarato, G.Petretto, N.A. Pike, V.Planes,
- S.Prokhorenko, T. Rangel, F.Ricci, G.-M.Rignanese, M.Royo, M.Stengel, M.Torrent,
- M.J.van Setten, B.Van Troeye, M.J.Verstraete, J.Wiktor, J.W.Zwanziger, and X.Gonze.
- Comment: a global overview of ABINIT, with focus on selected capabilities .
- Note that a version of this paper, that is not formatted for J. Chem. Phys 
- is available at https://www.abinit.org/sites/default/files/ABINIT20_JPC.pdf .
- The licence allows the authors to put it on the Web.
- DOI and bibtex: see https://docs.abinit.org/theory/bibliography/#romero2020
-
- [5] Recent developments in the ABINIT software package.
- Computer Phys. Comm. 205, 106 (2016).
- X.Gonze, F.Jollet, F.Abreu Araujo, D.Adams, B.Amadon, T.Applencourt,
- C.Audouze, J.-M.Beuken, J.Bieder, A.Bokhanchuk, E.Bousquet, F.Bruneval
- D.Caliste, M.Cote, F.Dahm, F.Da Pieve, M.Delaveau, M.Di Gennaro,
- B.Dorado, C.Espejo, G.Geneste, L.Genovese, A.Gerossier, M.Giantomassi,
- Y.Gillet, D.R.Hamann, L.He, G.Jomard, J.Laflamme Janssen, S.Le Roux,
- A.Levitt, A.Lherbier, F.Liu, I.Lukacevic, A.Martin, C.Martins,
- M.J.T.Oliveira, S.Ponce, Y.Pouillon, T.Rangel, G.-M.Rignanese,
- A.H.Romero, B.Rousseau, O.Rubel, A.A.Shukri, M.Stankovski, M.Torrent,
- M.J.Van Setten, B.Van Troeye, M.J.Verstraete, D.Waroquier, J.Wiktor,
- B.Xu, A.Zhou, J.W.Zwanziger.
- Comment: the fourth generic paper describing the ABINIT project.
- Note that a version of this paper, that is not formatted for Computer Phys. Comm. 
- is available at https://www.abinit.org/sites/default/files/ABINIT16.pdf .
- The licence allows the authors to put it on the Web.
- DOI and bibtex: see https://docs.abinit.org/theory/bibliography/#gonze2016
-
- Proc.   0 individual time (sec): cpu=       6833.8  wall=       6834.1

================================================================================

 Calculation completed.
.Delivered   0 WARNINGs and   1 COMMENTs to log file.
+Overall time at end (sec) : cpu=      41003.0  wall=      41004.0
