
.Version 9.2.2 of ABINIT 
.(MPI version, prepared for a x86_64_linux_gnu9.3 computer) 

.Copyright (C) 1998-2020 ABINIT group . 
 ABINIT comes with ABSOLUTELY NO WARRANTY.
 It is free software, and you are welcome to redistribute it
 under certain conditions (GNU General Public License,
 see ~abinit/COPYING or http://www.gnu.org/copyleft/gpl.txt).

 ABINIT is a project of the Universite Catholique de Louvain,
 Corning Inc. and other collaborators, see ~abinit/doc/developers/contributors.txt .
 Please read https://docs.abinit.org/theory/acknowledgments for suggested
 acknowledgments of the ABINIT effort.
 For more information, see https://www.abinit.org .

.Starting date : Mon  5 Sep 2022.
- ( at 17h53 )
  
- input  file    -> Cs2TiI6.in
- output file    -> Cs2TiI6.out
- root for input  files -> Cs2TiI6i
- root for output files -> Cs2TiI6o

- inpspheads : Reading pseudopotential header in XML form from 
-   ../../../Psps_for_tests/ATOMICDATA/Cs.GGA_PBE-JTH.xml
- inpspheads : Reading pseudopotential header in XML form from 
-   ../../../Psps_for_tests/ATOMICDATA/I.GGA_PBE-JTH.xml
- inpspheads : Reading pseudopotential header in XML form from 
-   ../../../Psps_for_tests/ATOMICDATA/Hf.GGA_PBE-JTH.xml

 Symmetries : space group Fm -3 m (#225); Bravais cF (face-center cubic)
================================================================================
 Values of the parameters that define the memory need of the present run
     intxc =       0    ionmov =       2      iscf =      17    lmnmax =      18
     lnmax =       6     mgfft =      54  mpssoang =       3    mqgrid =    3475
     natom =       9  nloc_mem =       2    nspden =       1   nspinor =       1
    nsppol =       1      nsym =      48    n1xccc =       1    ntypat =       3
    occopt =       1   xclevel =       2
-    mband =          42        mffmem =           1         mkmem =           3
       mpw =        7243          nfft =      157464          nkpt =          10
Pmy_natom=         3
 PAW method is used; the additional fine FFT grid is defined by:
   mgfftf=        90    nfftf =    729000
================================================================================
P This job should need less than                     243.675 Mbytes of memory.
  Rough estimation (10% accuracy) of disk space for files :
_ WF disk file :     46.420 Mbytes ; DEN or POT disk file :      5.564 Mbytes.
================================================================================

--------------------------------------------------------------------------------
------------- Echo of variables that govern the present computation ------------
--------------------------------------------------------------------------------
-
- outvars: echo of selected default values                                      
-   iomode0 =  0 , fftalg0 =112 , wfoptalg0 = 10
-
- outvars: echo of global parameters not present in the input file              
-  max_nthreads =    0
-
 -outvars: echo values of preprocessed input variables --------
            acell      1.6045663836E+01  1.6045663836E+01  1.6045663836E+01 Bohr
              amu      1.32905430E+02  1.26904470E+02  1.78490000E+02
           diemac      1.20000000E+01
          dilatmx      1.15000000E+00
             ecut      1.60000000E+01 Hartree
           ecutsm      5.00000000E-01 Hartree
-          fftalg         112
           ionmov           2
              ixc     -101130
              kpt     -1.25000000E-01 -2.50000000E-01  0.00000000E+00
                      -1.25000000E-01  5.00000000E-01  0.00000000E+00
                      -2.50000000E-01 -3.75000000E-01  0.00000000E+00
                      -1.25000000E-01 -3.75000000E-01  1.25000000E-01
                      -1.25000000E-01  2.50000000E-01  0.00000000E+00
                      -2.50000000E-01  3.75000000E-01  0.00000000E+00
                      -3.75000000E-01  5.00000000E-01  0.00000000E+00
                      -2.50000000E-01  5.00000000E-01  1.25000000E-01
                      -1.25000000E-01  0.00000000E+00  0.00000000E+00
                      -3.75000000E-01  0.00000000E+00  0.00000000E+00
         kptrlatt        4   -4    4     -4    4    4     -4   -4    4
          kptrlen      7.35220651E+01
P           mkmem           3
            natom           9
            nband          42
            ngfft          54      54      54
          ngfftdg          90      90      90
             nkpt          10
            nstep        2500
             nsym          48
            ntime        1000
           ntypat           3
              occ      2.000000  2.000000  2.000000  2.000000  2.000000  2.000000
                       2.000000  2.000000  2.000000  2.000000  2.000000  2.000000
                       2.000000  2.000000  2.000000  2.000000  2.000000  2.000000
                       2.000000  2.000000  2.000000  2.000000  2.000000  2.000000
                       2.000000  2.000000  2.000000  2.000000  2.000000  2.000000
                       2.000000  2.000000  2.000000  2.000000  2.000000  2.000000
                       0.000000  0.000000  0.000000  0.000000  0.000000  0.000000
        optforces           1
        pawecutdg      4.00000000E+01 Hartree
            prtwf           0
            rprim      0.0000000000E+00  5.7275649276E-01  5.7275649276E-01
                       5.7275649276E-01  0.0000000000E+00  5.7275649276E-01
                       5.7275649276E-01  5.7275649276E-01  0.0000000000E+00
           shiftk      5.00000000E-01  5.00000000E-01  5.00000000E-01
          spgroup         225
           symrel      1  0  0   0  1  0   0  0  1      -1  0  0   0 -1  0   0  0 -1
                       0 -1  1   0 -1  0   1 -1  0       0  1 -1   0  1  0  -1  1  0
                      -1  0  0  -1  0  1  -1  1  0       1  0  0   1  0 -1   1 -1  0
                       0  1 -1   1  0 -1   0  0 -1       0 -1  1  -1  0  1   0  0  1
                      -1  0  0  -1  1  0  -1  0  1       1  0  0   1 -1  0   1  0 -1
                       0 -1  1   1 -1  0   0 -1  0       0  1 -1  -1  1  0   0  1  0
                       1  0  0   0  0  1   0  1  0      -1  0  0   0  0 -1   0 -1  0
                       0  1 -1   0  0 -1   1  0 -1       0 -1  1   0  0  1  -1  0  1
                      -1  0  1  -1  1  0  -1  0  0       1  0 -1   1 -1  0   1  0  0
                       0 -1  0   1 -1  0   0 -1  1       0  1  0  -1  1  0   0  1 -1
                       1  0 -1   0  0 -1   0  1 -1      -1  0  1   0  0  1   0 -1  1
                       0  1  0   0  0  1   1  0  0       0 -1  0   0  0 -1  -1  0  0
                       1  0 -1   0  1 -1   0  0 -1      -1  0  1   0 -1  1   0  0  1
                       0 -1  0   0 -1  1   1 -1  0       0  1  0   0  1 -1  -1  1  0
                      -1  0  1  -1  0  0  -1  1  0       1  0 -1   1  0  0   1 -1  0
                       0  1  0   1  0  0   0  0  1       0 -1  0  -1  0  0   0  0 -1
                       0  0 -1   0  1 -1   1  0 -1       0  0  1   0 -1  1  -1  0  1
                       1 -1  0   0 -1  1   0 -1  0      -1  1  0   0  1 -1   0  1  0
                       0  0  1   1  0  0   0  1  0       0  0 -1  -1  0  0   0 -1  0
                      -1  1  0  -1  0  0  -1  0  1       1 -1  0   1  0  0   1  0 -1
                       0  0  1   0  1  0   1  0  0       0  0 -1   0 -1  0  -1  0  0
                       1 -1  0   0 -1  0   0 -1  1      -1  1  0   0  1  0   0  1 -1
                       0  0 -1   1  0 -1   0  1 -1       0  0  1  -1  0  1   0 -1  1
                      -1  1  0  -1  0  1  -1  0  0       1 -1  0   1  0 -1   1  0  0
           toldff      1.00000000E-08
           tolmxf      1.00000000E-05
            typat      1  1  2  2  2  2  2  2  3
           useylm           1
              wtk        0.09375    0.09375    0.09375    0.18750    0.09375    0.09375
                         0.09375    0.18750    0.03125    0.03125
           xangst      2.4316375751E+00  2.4316375751E+00  2.4316375751E+00
                       7.2949127253E+00  7.2949127253E+00  7.2949127253E+00
                       4.8632751502E+00  7.4067833996E+00  4.8632751502E+00
                       4.8632751502E+00  4.8632751502E+00  2.3197669008E+00
                       4.8632751502E+00  4.8632751502E+00  7.4067833996E+00
                       4.8632751502E+00  2.3197669008E+00  4.8632751502E+00
                       7.4067833996E+00  4.8632751502E+00  4.8632751502E+00
                       2.3197669008E+00  4.8632751502E+00  4.8632751502E+00
                       0.0000000000E+00  0.0000000000E+00  0.0000000000E+00
            xcart      4.5951290714E+00  4.5951290714E+00  4.5951290714E+00
                       1.3785387214E+01  1.3785387214E+01  1.3785387214E+01
                       9.1902581428E+00  1.3996792151E+01  9.1902581428E+00
                       9.1902581428E+00  9.1902581428E+00  4.3837241346E+00
                       9.1902581428E+00  9.1902581428E+00  1.3996792151E+01
                       9.1902581428E+00  4.3837241346E+00  9.1902581428E+00
                       1.3996792151E+01  9.1902581428E+00  9.1902581428E+00
                       4.3837241346E+00  9.1902581428E+00  9.1902581428E+00
                       0.0000000000E+00  0.0000000000E+00  0.0000000000E+00
             xred      2.5000000000E-01  2.5000000000E-01  2.5000000000E-01
                       7.5000000000E-01  7.5000000000E-01  7.5000000000E-01
                       7.6150157773E-01  2.3849842227E-01  7.6150157773E-01
                       2.3849842227E-01  2.3849842227E-01  7.6150157773E-01
                       7.6150157773E-01  7.6150157773E-01  2.3849842227E-01
                       2.3849842227E-01  7.6150157773E-01  2.3849842227E-01
                       2.3849842227E-01  7.6150157773E-01  7.6150157773E-01
                       7.6150157773E-01  2.3849842227E-01  2.3849842227E-01
                       0.0000000000E+00  0.0000000000E+00  0.0000000000E+00
            znucl       55.00000   53.00000   72.00000

================================================================================

 chkinp: Checking input parameters for consistency.

================================================================================
== DATASET  1 ==================================================================
-   mpi_nproc: 4, omp_nthreads: -1 (-1 if OMP is not activated)


--- !DatasetInfo
iteration_state: {dtset: 1, }
dimensions: {natom: 9, nkpt: 10, mband: 42, nsppol: 1, nspinor: 1, nspden: 1, mpw: 7243, }
cutoff_energies: {ecut:  16.0, pawecutdg:  40.0, }
electrons: {nelect:   7.20000000E+01, charge:   0.00000000E+00, occopt:   1.00000000E+00, tsmear:   1.00000000E-02, }
meta: {optdriver: 0, ionmov: 2, optcell: 0, iscf: 17, paral_kgb: 0, }
...

 Real(R)+Recip(G) space primitive vectors, cartesian coordinates (Bohr,Bohr^-1):
 R(1)=  0.0000000  9.1902581  9.1902581  G(1)= -0.0544054  0.0544054  0.0544054
 R(2)=  9.1902581  0.0000000  9.1902581  G(2)=  0.0544054 -0.0544054  0.0544054
 R(3)=  9.1902581  9.1902581  0.0000000  G(3)=  0.0544054  0.0544054 -0.0544054
 Unit cell volume ucvol=  1.5524339E+03 bohr^3
 Angles (23,13,12)=  6.00000000E+01  6.00000000E+01  6.00000000E+01 degrees

 Coarse grid specifications (used for wave-functions):

 getcut: wavevector=  0.0000  0.0000  0.0000  ngfft=  54  54  54
         ecut(hartree)=     21.160   => boxcut(ratio)=   2.00714

 Fine grid specifications (used for densities):

 getcut: wavevector=  0.0000  0.0000  0.0000  ngfft=  90  90  90
         ecut(hartree)=     52.900   => boxcut(ratio)=   2.11524

--- Pseudopotential description ------------------------------------------------
- pspini: atom type   1  psp file is ../../../Psps_for_tests/ATOMICDATA/Cs.GGA_PBE-JTH.xml
- pspatm: opening atomic psp file    ../../../Psps_for_tests/ATOMICDATA/Cs.GGA_PBE-JTH.xml
- pspatm : Reading pseudopotential header in XML form from ../../../Psps_for_tests/ATOMICDATA/Cs.GGA_PBE-JTH.xml
 Pseudopotential format is: paw10
 basis_size (lnmax)=  6 (lmn_size= 18), orbitals=   0   0   1   1   2   2
 Spheres core radius: rc_sph= 2.20660278
 1 radial meshes are used:
  - mesh 1: r(i)=AA*[exp(BB*(i-1))-1], size=1500 , AA= 0.15922E-03 BB= 0.87573E-02
 Shapefunction is SIN type: shapef(r)=[sin(pi*r/rshp)/(pi*r/rshp)]**2
 Radius for shape functions =  2.00394208
 mmax= 1500
 Radial grid used for partial waves is grid 1
 Radial grid used for projectors is grid 1
 Radial grid used for (t)core density is grid 1
 Radial grid used for Vloc is grid 1
 Radial grid used for pseudo valence density is grid 1
 Mesh size for Vloc has been set to 1341 to avoid numerical noise.
 Compensation charge density is not taken into account in XC energy/potential
 pspatm: atomic psp has been read  and splines computed

- pspini: atom type   2  psp file is ../../../Psps_for_tests/ATOMICDATA/I.GGA_PBE-JTH.xml
- pspatm: opening atomic psp file    ../../../Psps_for_tests/ATOMICDATA/I.GGA_PBE-JTH.xml
- pspatm : Reading pseudopotential header in XML form from ../../../Psps_for_tests/ATOMICDATA/I.GGA_PBE-JTH.xml
 Pseudopotential format is: paw10
 basis_size (lnmax)=  4 (lmn_size=  8), orbitals=   0   0   1   1
 Spheres core radius: rc_sph= 2.30022271
 1 radial meshes are used:
  - mesh 1: r(i)=AA*[exp(BB*(i-1))-1], size=2000 , AA= 0.12610E-03 BB= 0.66836E-02
 Shapefunction is SIN type: shapef(r)=[sin(pi*r/rshp)/(pi*r/rshp)]**2
 Radius for shape functions =  2.10879093
 mmax= 2000
 Radial grid used for partial waves is grid 1
 Radial grid used for projectors is grid 1
 Radial grid used for (t)core density is grid 1
 Radial grid used for Vloc is grid 1
 Radial grid used for pseudo valence density is grid 1
 Mesh size for Vloc has been set to 1792 to avoid numerical noise.
 Compensation charge density is not taken into account in XC energy/potential
 pspatm: atomic psp has been read  and splines computed

- pspini: atom type   3  psp file is ../../../Psps_for_tests/ATOMICDATA/Hf.GGA_PBE-JTH.xml
- pspatm: opening atomic psp file    ../../../Psps_for_tests/ATOMICDATA/Hf.GGA_PBE-JTH.xml
- pspatm : Reading pseudopotential header in XML form from ../../../Psps_for_tests/ATOMICDATA/Hf.GGA_PBE-JTH.xml
 Pseudopotential format is: paw10
 basis_size (lnmax)=  6 (lmn_size= 18), orbitals=   0   0   1   1   2   2
 Spheres core radius: rc_sph= 2.41000000
 1 radial meshes are used:
  - mesh 1: r(i)=AA*[exp(BB*(i-1))-1], size= 972 , AA= 0.19796E-03 BB= 0.14253E-01
 Shapefunction is SIN type: shapef(r)=[sin(pi*r/rshp)/(pi*r/rshp)]**2
 Radius for shape functions =  2.41000000
 mmax=  972
 Radial grid used for partial waves is grid 1
 Radial grid used for projectors is grid 1
 Radial grid used for (t)core density is grid 1
 Radial grid used for Vloc is grid 1
 Radial grid used for pseudo valence density is grid 1
 Mesh size for Vloc has been set to  809 to avoid numerical noise.
 Compensation charge density is not taken into account in XC energy/potential
 pspatm: atomic psp has been read  and splines computed

   5.00972281E+04                                ecore*ucvol(ha*bohr**3)
--------------------------------------------------------------------------------

_setup2: Arith. and geom. avg. npw (full set) are    7217.219    7217.208

================================================================================

=== [ionmov= 2] Broyden-Fletcher-Goldfard-Shanno method (forces)            
================================================================================

--- Iteration: (   1/1000) Internal Cycle: (1/1)
--------------------------------------------------------------------------------

---SELF-CONSISTENT-FIELD CONVERGENCE--------------------------------------------

--- !BeginCycle
iteration_state: {dtset: 1, itime: 1, icycle: 1, }
solver: {iscf: 17, nstep: 2500, nline: 4, wfoptalg: 10, }
tolerances: {toldff: 1.00E-08, }
...

     iter   Etot(hartree)      deltaE(h)  residm     nres2    diffor    maxfor
 ETOT  1  -158.27724239277    -1.583E+02 4.836E+00 2.011E+01 7.757E-03 7.757E-03
 ETOT  2  -160.70041865897    -2.423E+00 3.914E-02 1.327E+01 3.057E-01 3.135E-01
 ETOT  3  -160.64623350456     5.419E-02 2.093E-02 2.795E+00 7.777E-02 2.357E-01
 ETOT  4  -160.64077039112     5.463E-03 4.535E-03 1.577E-01 3.326E-02 2.024E-01
 ETOT  5  -160.64224269606    -1.472E-03 3.222E-03 7.875E-02 2.842E-02 2.309E-01
 ETOT  6  -160.64200995266     2.327E-04 1.973E-03 6.617E-03 1.792E-02 2.129E-01
 ETOT  7  -160.64205471352    -4.476E-05 1.047E-03 7.837E-04 6.144E-03 2.191E-01
 ETOT  8  -160.64206440785    -9.694E-06 2.002E-03 8.247E-04 3.437E-03 2.156E-01
 ETOT  9  -160.64206607144    -1.664E-06 8.829E-04 3.422E-04 1.026E-03 2.167E-01
 ETOT 10  -160.64206494002     1.131E-06 1.206E-03 8.057E-05 2.030E-04 2.169E-01
 ETOT 11  -160.64206462902     3.110E-07 4.011E-04 7.260E-06 4.510E-04 2.173E-01
 ETOT 12  -160.64206464383    -1.481E-08 4.115E-04 6.051E-06 6.883E-05 2.173E-01
 ETOT 13  -160.64206462953     1.429E-08 1.874E-04 1.892E-06 6.205E-05 2.173E-01
 ETOT 14  -160.64206462247     7.061E-09 1.138E-04 1.190E-07 5.614E-05 2.174E-01
 ETOT 15  -160.64206462196     5.096E-10 8.165E-05 3.945E-07 3.152E-05 2.174E-01
 ETOT 16  -160.64206462210    -1.351E-10 3.016E-05 3.718E-09 3.019E-05 2.174E-01
 ETOT 17  -160.64206462214    -4.238E-11 3.474E-05 5.848E-10 3.516E-06 2.174E-01
 ETOT 18  -160.64206462217    -3.038E-11 8.066E-06 6.965E-10 1.553E-06 2.174E-01
 ETOT 19  -160.64206462214     3.584E-11 1.467E-05 5.282E-11 1.523E-06 2.174E-01
 ETOT 20  -160.64206462215    -1.234E-11 4.114E-06 4.806E-12 1.543E-07 2.174E-01
 ETOT 21  -160.64206462215     3.098E-12 6.194E-06 1.187E-12 1.226E-07 2.174E-01
 ETOT 22  -160.64206462213     1.350E-11 4.026E-06 6.609E-14 4.477E-08 2.174E-01
 ETOT 23  -160.64206462214    -5.002E-12 3.371E-06 2.716E-14 3.037E-09 2.174E-01
 ETOT 24  -160.64206462214    -7.532E-12 4.163E-06 1.467E-15 5.818E-09 2.174E-01

 At SCF step   24, forces are converged : 
  for the second time, max diff in force=  5.818E-09 < toldff=  1.000E-08

 Cartesian components of stress tensor (hartree/bohr^3)
  sigma(1 1)= -1.81987774E-03  sigma(3 2)=  0.00000000E+00
  sigma(2 2)= -1.81987774E-03  sigma(3 1)=  0.00000000E+00
  sigma(3 3)= -1.81987774E-03  sigma(2 1)=  0.00000000E+00


--- !ResultsGS
iteration_state: {dtset: 1, itime: 1, icycle: 1, }
comment   : Summary of ground state results
lattice_vectors:
- [  0.0000000,   9.1902581,   9.1902581, ]
- [  9.1902581,   0.0000000,   9.1902581, ]
- [  9.1902581,   9.1902581,   0.0000000, ]
lattice_lengths: [  12.99699,   12.99699,   12.99699, ]
lattice_angles: [ 60.000,  60.000,  60.000, ] # degrees, (23, 13, 12)
lattice_volume:   1.5524339E+03
convergence: {deltae: -7.532E-12, res2:  1.467E-15, residm:  4.163E-06, diffor:  5.818E-09, }
etotal    :  -1.60642065E+02
entropy   :   0.00000000E+00
fermie    :  -4.50589233E-02
cartesian_stress_tensor: # hartree/bohr^3
- [ -1.81987774E-03,   0.00000000E+00,   0.00000000E+00, ]
- [  0.00000000E+00,  -1.81987774E-03,   0.00000000E+00, ]
- [  0.00000000E+00,   0.00000000E+00,  -1.81987774E-03, ]
pressure_GPa:   5.3543E+01
xred      :
- [  2.5000E-01,   2.5000E-01,   2.5000E-01, Cs]
- [  7.5000E-01,   7.5000E-01,   7.5000E-01, Cs]
- [  7.6150E-01,   2.3850E-01,   7.6150E-01,  I]
- [  2.3850E-01,   2.3850E-01,   7.6150E-01,  I]
- [  7.6150E-01,   7.6150E-01,   2.3850E-01,  I]
- [  2.3850E-01,   7.6150E-01,   2.3850E-01,  I]
- [  2.3850E-01,   7.6150E-01,   7.6150E-01,  I]
- [  7.6150E-01,   2.3850E-01,   2.3850E-01,  I]
- [  0.0000E+00,   0.0000E+00,   0.0000E+00, Hf]
cartesian_forces: # hartree/bohr
- [ -5.72244285E-32,   5.72244285E-32,  -1.67304470E-20, ]
- [  6.08009553E-32,  -6.08009553E-32,  -1.67304470E-20, ]
- [  1.50574023E-19,  -2.17380505E-01,  -1.67304470E-19, ]
- [ -5.24148886E-18,   5.24148886E-18,   2.17380505E-01, ]
- [ -6.83894465E-18,   6.83894465E-18,  -2.17380505E-01, ]
- [ -1.50574023E-19,   2.17380505E-01,   1.33843576E-19, ]
- [ -2.17380505E-01,   5.04159036E-18,  -5.05832080E-18, ]
- [  2.17380505E-01,  -5.04159036E-18,   5.02485991E-18, ]
- [ -0.00000000E+00,  -0.00000000E+00,  -1.67304470E-20, ]
force_length_stats: {min:   1.67304470E-20, max:   2.17380505E-01, mean:   1.44920337E-01, }
...

 Integrated electronic density in atomic spheres:
 ------------------------------------------------
 Atom  Sphere_radius  Integrated_density
    1        2.20660          5.40753457
    2        2.20660          5.40753457
    3        2.30022          4.25519325
    4        2.30022          4.25519325
    5        2.30022          4.25519325
    6        2.30022          4.25519325
    7        2.30022          4.25519325
    8        2.30022          4.25519325
    9        2.41000         10.77013180

 PAW TEST:
 ==== Compensation charge inside spheres ============
 The following values must be close to each other ...
 Compensation charge over spherical meshes =     -0.614567838597078
 Compensation charge over fine fft grid    =     -0.614564211903813

 ==== Results concerning PAW augmentation regions ====

 Total pseudopotential strength Dij (hartree):
 Atom #  1
   0.43613  -0.14442   0.00000   0.00000   0.00000   0.00000   0.00000   0.00000   0.00000   0.00000   0.00000   0.00000 ...
  -0.14442   0.04348   0.00000   0.00000   0.00000   0.00000   0.00000   0.00000   0.00000   0.00000   0.00000   0.00000 ...
   0.00000   0.00000  -0.09287   0.00000   0.00000  -0.16718   0.00000   0.00000   0.00000   0.00000   0.00000  -0.00000 ...
   0.00000   0.00000   0.00000  -0.09287   0.00000   0.00000  -0.16718   0.00000  -0.00000   0.00000   0.00000   0.00000 ...
   0.00000   0.00000   0.00000   0.00000  -0.09287   0.00000   0.00000  -0.16718   0.00000  -0.00000   0.00000   0.00000 ...
   0.00000   0.00000  -0.16718   0.00000   0.00000   0.40317   0.00000   0.00000   0.00000   0.00000   0.00000   0.00000 ...
   0.00000   0.00000   0.00000  -0.16718   0.00000   0.00000   0.40317   0.00000   0.00000   0.00000   0.00000   0.00000 ...
   0.00000   0.00000   0.00000   0.00000  -0.16718   0.00000   0.00000   0.40317   0.00000   0.00000   0.00000   0.00000 ...
   0.00000   0.00000   0.00000  -0.00000   0.00000   0.00000   0.00000   0.00000   0.00532   0.00000   0.00000   0.00000 ...
   0.00000   0.00000   0.00000   0.00000  -0.00000   0.00000   0.00000   0.00000   0.00000   0.00532   0.00000   0.00000 ...
   0.00000   0.00000   0.00000   0.00000   0.00000   0.00000   0.00000   0.00000   0.00000   0.00000   0.00532   0.00000 ...
   0.00000   0.00000  -0.00000   0.00000   0.00000   0.00000   0.00000   0.00000   0.00000   0.00000   0.00000   0.00532 ...
   ...  only 12  components have been written...
 Atom #  9
  -3.47790   0.41359   0.00000   0.00000   0.00000   0.00000   0.00000   0.00000   0.00000   0.00000   0.00000   0.00000 ...
   0.41359   0.00646   0.00000   0.00000   0.00000   0.00000   0.00000   0.00000   0.00000   0.00000   0.00000   0.00000 ...
   0.00000   0.00000  -1.39826   0.00000   0.00000   0.11111   0.00000   0.00000   0.00000   0.00000   0.00000   0.00000 ...
   0.00000   0.00000   0.00000  -1.39826   0.00000   0.00000   0.11111   0.00000   0.00000   0.00000   0.00000   0.00000 ...
   0.00000   0.00000   0.00000   0.00000  -1.39826   0.00000   0.00000   0.11111   0.00000   0.00000   0.00000   0.00000 ...
   0.00000   0.00000   0.11111   0.00000   0.00000   0.01573   0.00000   0.00000   0.00000   0.00000   0.00000   0.00000 ...
   0.00000   0.00000   0.00000   0.11111   0.00000   0.00000   0.01573   0.00000   0.00000   0.00000   0.00000   0.00000 ...
   0.00000   0.00000   0.00000   0.00000   0.11111   0.00000   0.00000   0.01573   0.00000   0.00000   0.00000   0.00000 ...
   0.00000   0.00000   0.00000   0.00000   0.00000   0.00000   0.00000   0.00000  -0.38218   0.00000   0.00000   0.00000 ...
   0.00000   0.00000   0.00000   0.00000   0.00000   0.00000   0.00000   0.00000   0.00000  -0.38218   0.00000   0.00000 ...
   0.00000   0.00000   0.00000   0.00000   0.00000   0.00000   0.00000   0.00000   0.00000   0.00000  -0.38236   0.00000 ...
   0.00000   0.00000   0.00000   0.00000   0.00000   0.00000   0.00000   0.00000   0.00000   0.00000   0.00000  -0.38218 ...
   ...  only 12  components have been written...


 Augmentation waves occupancies Rhoij:
 Atom #  1
   2.00336   0.00397   0.00000   0.00000   0.00000   0.00000   0.00000   0.00000   0.00000   0.00000   0.00000   0.00000 ...
   0.00397   0.46391   0.00000   0.00000   0.00000   0.00000   0.00000   0.00000   0.00000   0.00000   0.00000   0.00000 ...
   0.00000   0.00000   2.00208   0.00000   0.00000  -0.00444   0.00000   0.00000   0.00000   0.00000   0.00000  -0.01158 ...
   0.00000   0.00000   0.00000   2.00208   0.00000   0.00000  -0.00444   0.00000  -0.01158   0.00000   0.00000   0.00000 ...
   0.00000   0.00000   0.00000   0.00000   2.00208   0.00000   0.00000  -0.00444   0.00000  -0.01158   0.00000   0.00000 ...
   0.00000   0.00000  -0.00444   0.00000   0.00000   0.00040   0.00000   0.00000   0.00000   0.00000   0.00000   0.00034 ...
   0.00000   0.00000   0.00000  -0.00444   0.00000   0.00000   0.00040   0.00000   0.00034   0.00000   0.00000   0.00000 ...
   0.00000   0.00000   0.00000   0.00000  -0.00444   0.00000   0.00000   0.00040   0.00000   0.00034   0.00000   0.00000 ...
   0.00000   0.00000   0.00000  -0.01158   0.00000   0.00000   0.00034   0.00000   0.23532   0.00000   0.00000   0.00000 ...
   0.00000   0.00000   0.00000   0.00000  -0.01158   0.00000   0.00000   0.00034   0.00000   0.23532   0.00000   0.00000 ...
   0.00000   0.00000   0.00000   0.00000   0.00000   0.00000   0.00000   0.00000   0.00000   0.00000   0.19107   0.00000 ...
   0.00000   0.00000  -0.01158   0.00000   0.00000   0.00034   0.00000   0.00000   0.00000   0.00000   0.00000   0.23532 ...
   ...  only 12  components have been written...
 Atom #  9
   2.00275   0.02883   0.00000   0.00000   0.00000   0.00000   0.00000   0.00000   0.00000   0.00000   0.00000   0.00000 ...
   0.02883   1.59172   0.00000   0.00000   0.00000   0.00000   0.00000   0.00000   0.00000   0.00000   0.00000   0.00000 ...
   0.00000   0.00000   2.02344   0.00000   0.00000   0.18178   0.00000   0.00000   0.00000   0.00000   0.00000   0.00000 ...
   0.00000   0.00000   0.00000   2.02344   0.00000   0.00000   0.18178   0.00000   0.00000   0.00000   0.00000   0.00000 ...
   0.00000   0.00000   0.00000   0.00000   2.02344   0.00000   0.00000   0.18178   0.00000   0.00000   0.00000   0.00000 ...
   0.00000   0.00000   0.18178   0.00000   0.00000   3.12240   0.00000   0.00000   0.00000   0.00000   0.00000   0.00000 ...
   0.00000   0.00000   0.00000   0.18178   0.00000   0.00000   3.12240   0.00000   0.00000   0.00000   0.00000   0.00000 ...
   0.00000   0.00000   0.00000   0.00000   0.18178   0.00000   0.00000   3.12240   0.00000   0.00000   0.00000   0.00000 ...
   0.00000   0.00000   0.00000   0.00000   0.00000   0.00000   0.00000   0.00000   1.66762   0.00000   0.00000   0.00000 ...
   0.00000   0.00000   0.00000   0.00000   0.00000   0.00000   0.00000   0.00000   0.00000   1.66762   0.00000   0.00000 ...
   0.00000   0.00000   0.00000   0.00000   0.00000   0.00000   0.00000   0.00000   0.00000   0.00000   4.01723   0.00000 ...
   0.00000   0.00000   0.00000   0.00000   0.00000   0.00000   0.00000   0.00000   0.00000   0.00000   0.00000   1.66762 ...
   ...  only 12  components have been written...



---OUTPUT-----------------------------------------------------------------------

 Cartesian coordinates (xcart) [bohr]
  4.59512907138795E+00  4.59512907138795E+00  4.59512907138795E+00
  1.37853872141639E+01  1.37853872141639E+01  1.37853872141639E+01
  9.19025814277590E+00  1.39967921509397E+01  9.19025814277590E+00
  9.19025814277590E+00  9.19025814277590E+00  4.38372413461215E+00
  9.19025814277590E+00  9.19025814277590E+00  1.39967921509397E+01
  9.19025814277590E+00  4.38372413461215E+00  9.19025814277590E+00
  1.39967921509397E+01  9.19025814277590E+00  9.19025814277590E+00
  4.38372413461215E+00  9.19025814277590E+00  9.19025814277590E+00
  0.00000000000000E+00  0.00000000000000E+00  0.00000000000000E+00
 Reduced coordinates (xred)
  2.50000000000000E-01  2.50000000000000E-01  2.50000000000000E-01
  7.50000000000000E-01  7.50000000000000E-01  7.50000000000000E-01
  7.61501577730000E-01  2.38498422270000E-01  7.61501577730000E-01
  2.38498422270000E-01  2.38498422270000E-01  7.61501577730000E-01
  7.61501577730000E-01  7.61501577730000E-01  2.38498422270000E-01
  2.38498422270000E-01  7.61501577730000E-01  2.38498422270000E-01
  2.38498422270000E-01  7.61501577730000E-01  7.61501577730000E-01
  7.61501577730000E-01  2.38498422270000E-01  2.38498422270000E-01
  0.00000000000000E+00  0.00000000000000E+00  0.00000000000000E+00
 Cartesian forces (fcart) [Ha/bohr]; max,rms= 2.17381E-01 1.02474E-01 (free atoms)
 -5.72244285173574E-32  5.72244285173574E-32 -1.67304470437983E-20
  6.08009552996922E-32 -6.08009552996922E-32 -1.67304470437947E-20
  1.50574023394700E-19 -2.17380505479475E-01 -1.67304470438555E-19
 -5.24148886059021E-18  5.24148886059021E-18  2.17380505479474E-01
 -6.83894465256262E-18  6.83894465256262E-18 -2.17380505479474E-01
 -1.50574023394700E-19  2.17380505479475E-01  1.33843576350844E-19
 -2.17380505479474E-01  5.04159035790098E-18 -5.05832080494484E-18
  2.17380505479474E-01 -5.04159035790098E-18  5.02485991085713E-18
 -0.00000000000000E+00 -0.00000000000000E+00 -1.67304470438555E-20
 Reduced forces (fred)
  1.53757127176022E-19  1.53757127177074E-19 -1.15198382002084E-47
  1.53757127177074E-19  1.53757127175957E-19  4.10107224966478E-47
  1.99778296056348E+00  1.53757127177074E-19  1.99778296056348E+00
 -1.99778296056348E+00 -1.99778296056348E+00 -9.58722366704190E-34
  1.99778296056348E+00  1.99778296056348E+00 -5.56245755642309E-34
 -1.99778296056348E+00  1.53757127177074E-19 -1.99778296056348E+00
  1.53757127177075E-19  1.99778296056348E+00  1.99778296056348E+00
  1.53757127177079E-19 -1.99778296056348E+00 -1.99778296056348E+00
  1.53757127177074E-19  1.53757127177074E-19  0.00000000000000E+00
 Total energy (etotal) [Ha]= -1.60642064622145E+02

--- Iteration: (   2/1000) Internal Cycle: (1/1)
--------------------------------------------------------------------------------

---SELF-CONSISTENT-FIELD CONVERGENCE--------------------------------------------

--- !BeginCycle
iteration_state: {dtset: 1, itime: 2, icycle: 1, }
solver: {iscf: 17, nstep: 2500, nline: 4, wfoptalg: 10, }
tolerances: {toldff: 1.00E-08, }
...

     iter   Etot(hartree)      deltaE(h)  residm     nres2    diffor    maxfor
 ETOT  1  -161.47217608227    -1.615E+02 7.949E-03 1.028E+02 8.488E-01 1.066E+00
 ETOT  2  -160.87349602015     5.987E-01 1.322E-03 5.752E+00 9.392E-01 1.270E-01
 ETOT  3  -160.85479436636     1.870E-02 1.403E-03 5.384E-01 4.770E-02 1.747E-01
 ETOT  4  -160.85437097949     4.234E-04 4.579E-04 5.009E-02 6.065E-02 1.140E-01
 ETOT  5  -160.85471370792    -3.427E-04 2.757E-04 1.241E-02 9.309E-04 1.149E-01
 ETOT  6  -160.85472193395    -8.226E-06 1.933E-04 2.108E-03 1.238E-03 1.137E-01
 ETOT  7  -160.85472464178    -2.708E-06 1.320E-04 9.544E-05 8.939E-05 1.136E-01
 ETOT  8  -160.85472542961    -7.878E-07 9.743E-05 1.175E-05 4.834E-04 1.131E-01
 ETOT  9  -160.85472548114    -5.153E-08 6.575E-05 1.281E-06 1.165E-04 1.132E-01
 ETOT 10  -160.85472553101    -4.988E-08 4.917E-05 3.782E-08 3.926E-05 1.132E-01
 ETOT 11  -160.85472554361    -1.260E-08 3.308E-05 9.009E-09 1.071E-05 1.132E-01
 ETOT 12  -160.85472555792    -1.431E-08 2.511E-05 3.721E-10 8.078E-07 1.132E-01
 ETOT 13  -160.85472556362    -5.702E-09 1.665E-05 1.110E-10 1.443E-06 1.132E-01
 ETOT 14  -160.85472556932    -5.698E-09 1.324E-05 2.273E-11 1.440E-07 1.132E-01
 ETOT 15  -160.85472557349    -4.166E-09 8.377E-06 7.290E-12 5.105E-08 1.132E-01
 ETOT 16  -160.85472557601    -2.528E-09 6.971E-06 2.774E-12 2.130E-08 1.132E-01
 ETOT 17  -160.85472557834    -2.325E-09 4.213E-06 6.086E-13 6.510E-09 1.132E-01
 ETOT 18  -160.85472558011    -1.772E-09 3.668E-06 2.633E-14 3.465E-09 1.132E-01

 At SCF step   18, forces are converged : 
  for the second time, max diff in force=  3.465E-09 < toldff=  1.000E-08

 Cartesian components of stress tensor (hartree/bohr^3)
  sigma(1 1)= -1.44158810E-03  sigma(3 2)=  0.00000000E+00
  sigma(2 2)= -1.44158810E-03  sigma(3 1)=  0.00000000E+00
  sigma(3 3)= -1.44158810E-03  sigma(2 1)=  0.00000000E+00


--- !ResultsGS
iteration_state: {dtset: 1, itime: 2, icycle: 1, }
comment   : Summary of ground state results
lattice_vectors:
- [  0.0000000,   9.1902581,   9.1902581, ]
- [  9.1902581,   0.0000000,   9.1902581, ]
- [  9.1902581,   9.1902581,   0.0000000, ]
lattice_lengths: [  12.99699,   12.99699,   12.99699, ]
lattice_angles: [ 60.000,  60.000,  60.000, ] # degrees, (23, 13, 12)
lattice_volume:   1.5524339E+03
convergence: {deltae: -1.772E-09, res2:  2.633E-14, residm:  3.668E-06, diffor:  3.465E-09, }
etotal    :  -1.60854726E+02
entropy   :   0.00000000E+00
fermie    :  -4.79998841E-02
cartesian_stress_tensor: # hartree/bohr^3
- [ -1.44158810E-03,   0.00000000E+00,   0.00000000E+00, ]
- [  0.00000000E+00,  -1.44158810E-03,   0.00000000E+00, ]
- [  0.00000000E+00,   0.00000000E+00,  -1.44158810E-03, ]
pressure_GPa:   4.2413E+01
xred      :
- [  2.5000E-01,   2.5000E-01,   2.5000E-01, Cs]
- [  7.5000E-01,   7.5000E-01,   7.5000E-01, Cs]
- [  7.4967E-01,   2.5033E-01,   7.4967E-01,  I]
- [  2.5033E-01,   2.5033E-01,   7.4967E-01,  I]
- [  7.4967E-01,   7.4967E-01,   2.5033E-01,  I]
- [  2.5033E-01,   7.4967E-01,   2.5033E-01,  I]
- [  2.5033E-01,   7.4967E-01,   7.4967E-01,  I]
- [  7.4967E-01,   2.5033E-01,   2.5033E-01,  I]
- [ -2.9261E-19,   2.9120E-19,   7.0795E-22, Hf]
cartesian_forces: # hartree/bohr
- [  1.54197657E-18,  -1.54197639E-18,   3.16185728E-18, ]
- [  1.54197633E-18,  -1.54197627E-18,   3.16185716E-18, ]
- [  8.40835744E-19,  -1.13204964E-01,   3.86299805E-18, ]
- [  4.43554433E-18,  -4.43554433E-18,   1.13204964E-01, ]
- [  3.78994812E-18,  -3.78994812E-18,  -1.13204964E-01, ]
- [  2.24311710E-18,   1.13204964E-01,   2.46071669E-18, ]
- [ -1.13204964E-01,  -2.24311710E-18,   3.86299805E-18, ]
- [  1.13204964E-01,   1.30369521E-17,  -1.14170711E-17, ]
- [  1.54197642E-18,  -1.54197642E-18,   3.16185737E-18, ]
force_length_stats: {min:   3.84092730E-18, max:   1.13204964E-01, mean:   7.54699757E-02, }
...

 Integrated electronic density in atomic spheres:
 ------------------------------------------------
 Atom  Sphere_radius  Integrated_density
    1        2.20660          5.41086868
    2        2.20660          5.41086868
    3        2.30022          4.19711534
    4        2.30022          4.19711534
    5        2.30022          4.19711534
    6        2.30022          4.19711534
    7        2.30022          4.19711534
    8        2.30022          4.19711534
    9        2.41000         10.27276854

 PAW TEST:
 ==== Compensation charge inside spheres ============
 The following values must be close to each other ...
 Compensation charge over spherical meshes =     -0.625535903663983
 Compensation charge over fine fft grid    =     -0.625532129621844

 ==== Results concerning PAW augmentation regions ====

 Total pseudopotential strength Dij (hartree):
 Atom #  1
   0.43508  -0.14408   0.00000   0.00000   0.00000   0.00000   0.00000   0.00000   0.00000   0.00000   0.00000   0.00000 ...
  -0.14408   0.04337   0.00000   0.00000   0.00000   0.00000   0.00000   0.00000   0.00000   0.00000   0.00000   0.00000 ...
   0.00000   0.00000  -0.09273   0.00000   0.00000  -0.16727   0.00000   0.00000   0.00000   0.00000   0.00000  -0.00000 ...
   0.00000   0.00000   0.00000  -0.09273   0.00000   0.00000  -0.16727   0.00000  -0.00000   0.00000   0.00000   0.00000 ...
   0.00000   0.00000   0.00000   0.00000  -0.09273   0.00000   0.00000  -0.16727   0.00000  -0.00000   0.00000   0.00000 ...
   0.00000   0.00000  -0.16727   0.00000   0.00000   0.40288   0.00000   0.00000   0.00000   0.00000   0.00000   0.00000 ...
   0.00000   0.00000   0.00000  -0.16727   0.00000   0.00000   0.40288   0.00000   0.00000   0.00000   0.00000   0.00000 ...
   0.00000   0.00000   0.00000   0.00000  -0.16727   0.00000   0.00000   0.40288   0.00000   0.00000   0.00000   0.00000 ...
   0.00000   0.00000   0.00000  -0.00000   0.00000   0.00000   0.00000   0.00000   0.00534   0.00000   0.00000   0.00000 ...
   0.00000   0.00000   0.00000   0.00000  -0.00000   0.00000   0.00000   0.00000   0.00000   0.00534   0.00000   0.00000 ...
   0.00000   0.00000   0.00000   0.00000   0.00000   0.00000   0.00000   0.00000   0.00000   0.00000   0.00534   0.00000 ...
   0.00000   0.00000  -0.00000   0.00000   0.00000   0.00000   0.00000   0.00000   0.00000   0.00000   0.00000   0.00534 ...
   ...  only 12  components have been written...
 Atom #  9
  -3.48359   0.41561   0.00000   0.00000   0.00000   0.00000   0.00000   0.00000   0.00000   0.00000   0.00000   0.00000 ...
   0.41561   0.00588   0.00000   0.00000   0.00000   0.00000   0.00000   0.00000   0.00000   0.00000   0.00000   0.00000 ...
   0.00000   0.00000  -1.40416   0.00000   0.00000   0.11254   0.00000   0.00000   0.00000   0.00000   0.00000   0.00000 ...
   0.00000   0.00000   0.00000  -1.40416   0.00000   0.00000   0.11254   0.00000   0.00000   0.00000   0.00000   0.00000 ...
   0.00000   0.00000   0.00000   0.00000  -1.40416   0.00000   0.00000   0.11254   0.00000   0.00000   0.00000   0.00000 ...
   0.00000   0.00000   0.11254   0.00000   0.00000   0.01540   0.00000   0.00000   0.00000   0.00000   0.00000   0.00000 ...
   0.00000   0.00000   0.00000   0.11254   0.00000   0.00000   0.01540   0.00000   0.00000   0.00000   0.00000   0.00000 ...
   0.00000   0.00000   0.00000   0.00000   0.11254   0.00000   0.00000   0.01540   0.00000   0.00000   0.00000   0.00000 ...
   0.00000   0.00000   0.00000   0.00000   0.00000   0.00000   0.00000   0.00000  -0.38354   0.00000   0.00000   0.00000 ...
   0.00000   0.00000   0.00000   0.00000   0.00000   0.00000   0.00000   0.00000   0.00000  -0.38354   0.00000   0.00000 ...
   0.00000   0.00000   0.00000   0.00000   0.00000   0.00000   0.00000   0.00000   0.00000   0.00000  -0.38338   0.00000 ...
   0.00000   0.00000   0.00000   0.00000   0.00000   0.00000   0.00000   0.00000   0.00000   0.00000   0.00000  -0.38354 ...
   ...  only 12  components have been written...


 Augmentation waves occupancies Rhoij:
 Atom #  1
   2.00411   0.00582   0.00000   0.00000   0.00000   0.00000   0.00000   0.00000   0.00000   0.00000   0.00000   0.00000 ...
   0.00582   0.46178   0.00000   0.00000   0.00000   0.00000   0.00000   0.00000   0.00000   0.00000   0.00000   0.00000 ...
   0.00000   0.00000   2.00389   0.00000   0.00000  -0.00440   0.00000   0.00000   0.00000   0.00000   0.00000  -0.00483 ...
   0.00000   0.00000   0.00000   2.00389   0.00000   0.00000  -0.00440   0.00000  -0.00483   0.00000   0.00000   0.00000 ...
   0.00000   0.00000   0.00000   0.00000   2.00389   0.00000   0.00000  -0.00440   0.00000  -0.00483   0.00000   0.00000 ...
   0.00000   0.00000  -0.00440   0.00000   0.00000   0.00041   0.00000   0.00000   0.00000   0.00000   0.00000   0.00028 ...
   0.00000   0.00000   0.00000  -0.00440   0.00000   0.00000   0.00041   0.00000   0.00028   0.00000   0.00000   0.00000 ...
   0.00000   0.00000   0.00000   0.00000  -0.00440   0.00000   0.00000   0.00041   0.00000   0.00028   0.00000   0.00000 ...
   0.00000   0.00000   0.00000  -0.00483   0.00000   0.00000   0.00028   0.00000   0.23757   0.00000   0.00000   0.00000 ...
   0.00000   0.00000   0.00000   0.00000  -0.00483   0.00000   0.00000   0.00028   0.00000   0.23757   0.00000   0.00000 ...
   0.00000   0.00000   0.00000   0.00000   0.00000   0.00000   0.00000   0.00000   0.00000   0.00000   0.19054   0.00000 ...
   0.00000   0.00000  -0.00483   0.00000   0.00000   0.00028   0.00000   0.00000   0.00000   0.00000   0.00000   0.23757 ...
   ...  only 12  components have been written...
 Atom #  9
   2.00105   0.01178   0.00000   0.00000   0.00000   0.00000   0.00000   0.00000   0.00000   0.00000   0.00000   0.00000 ...
   0.01178   1.37822   0.00000   0.00000   0.00000   0.00000   0.00000   0.00000   0.00000   0.00000   0.00000   0.00000 ...
   0.00000   0.00000   2.01287   0.00000   0.00000   0.10111   0.00000   0.00000   0.00000   0.00000   0.00000   0.00000 ...
   0.00000   0.00000   0.00000   2.01287   0.00000   0.00000   0.10111   0.00000   0.00000   0.00000   0.00000   0.00000 ...
   0.00000   0.00000   0.00000   0.00000   2.01287   0.00000   0.00000   0.10111   0.00000   0.00000   0.00000   0.00000 ...
   0.00000   0.00000   0.10111   0.00000   0.00000   2.45459   0.00000   0.00000   0.00000   0.00000   0.00000   0.00000 ...
   0.00000   0.00000   0.00000   0.10111   0.00000   0.00000   2.45459   0.00000   0.00000   0.00000   0.00000   0.00000 ...
   0.00000   0.00000   0.00000   0.00000   0.10111   0.00000   0.00000   2.45459   0.00000   0.00000   0.00000   0.00000 ...
   0.00000   0.00000   0.00000   0.00000   0.00000   0.00000   0.00000   0.00000   1.25472   0.00000   0.00000   0.00000 ...
   0.00000   0.00000   0.00000   0.00000   0.00000   0.00000   0.00000   0.00000   0.00000   1.25472   0.00000   0.00000 ...
   0.00000   0.00000   0.00000   0.00000   0.00000   0.00000   0.00000   0.00000   0.00000   0.00000   3.11484   0.00000 ...
   0.00000   0.00000   0.00000   0.00000   0.00000   0.00000   0.00000   0.00000   0.00000   0.00000   0.00000   1.25472 ...
   ...  only 12  components have been written...



---OUTPUT-----------------------------------------------------------------------

 Cartesian coordinates (xcart) [bohr]
  4.59512907138795E+00  4.59512907138795E+00  4.59512907138795E+00
  1.37853872141639E+01  1.37853872141639E+01  1.37853872141639E+01
  9.19025814277590E+00  1.37794116454602E+01  9.19025814277590E+00
  9.19025814277590E+00  9.19025814277590E+00  4.60110464009162E+00
  9.19025814277590E+00  9.19025814277590E+00  1.37794116454602E+01
  9.19025814277590E+00  4.60110464009162E+00  9.19025814277590E+00
  1.37794116454602E+01  9.19025814277590E+00  9.19025814277590E+00
  4.60110464009162E+00  9.19025814277590E+00  9.19025814277590E+00
  2.68268184214020E-18 -2.68268184214020E-18 -1.30125699229988E-20
 Reduced coordinates (xred)
  2.50000000000000E-01  2.50000000000000E-01  2.50000000000000E-01
  7.50000000000000E-01  7.50000000000000E-01  7.50000000000000E-01
  7.49674896580116E-01  2.50325103419884E-01  7.49674896580116E-01
  2.50325103419884E-01  2.50325103419884E-01  7.49674896580116E-01
  7.49674896580116E-01  7.49674896580116E-01  2.50325103419884E-01
  2.50325103419884E-01  7.49674896580116E-01  2.50325103419884E-01
  2.50325103419884E-01  7.49674896580116E-01  7.49674896580116E-01
  7.49674896580116E-01  2.50325103419884E-01  2.50325103419884E-01
 -2.92612904373699E-19  2.91196995296844E-19  7.07954538427605E-22
 Cartesian forces (fcart) [Ha/bohr]; max,rms= 1.13205E-01 5.33653E-02 (free atoms)
  1.54197657310090E-18 -1.54197639308841E-18  3.16185727608955E-18
  1.54197633308425E-18 -1.54197627308009E-18  3.16185715608123E-18
  8.40835743857235E-19 -1.13204963520005E-01  3.86299804532906E-18
  4.43554433318050E-18 -4.43554433318050E-18  1.13204963520005E-01
  3.78994812224608E-18 -3.78994812224608E-18 -1.13204963520005E-01
  2.24311710232376E-18  1.13204963520005E-01  2.46071668686254E-18
 -1.13204963520005E-01 -2.24311710232376E-18  3.86299804532906E-18
  1.13204963520005E-01  1.30369520639572E-17 -1.14170711209519E-17
  1.54197642309050E-18 -1.54197642309050E-18  3.16185736609580E-18
 Reduced forces (fred)
 -1.48871234753282E-17 -4.32294473347875E-17 -1.65436122590755E-24
 -1.48871234753282E-17 -4.32294440260651E-17 -5.51453741160239E-25
  1.04038283779237E+00 -4.32294467833338E-17  1.04038283779237E+00
 -1.04038283779237E+00 -1.04038283779237E+00 -6.96987984513415E-34
  1.04038283779237E+00  1.04038283779237E+00 -2.37770475039517E-33
 -1.04038283779237E+00 -4.32294467833338E-17 -1.04038283779237E+00
 -1.48871240267820E-17  1.04038283779237E+00  1.04038283779237E+00
 -1.48871240267820E-17 -1.04038283779237E+00 -1.04038283779237E+00
 -1.48871240267820E-17 -4.32294467833338E-17  7.86657482392033E-34
 Total energy (etotal) [Ha]= -1.60854725580111E+02

 Difference of energy with previous step (new-old):
           Absolute (Ha)=-2.12661E-01
           Relative     =-1.32294E-03

--- Iteration: (   3/1000) Internal Cycle: (1/1)
--------------------------------------------------------------------------------

---SELF-CONSISTENT-FIELD CONVERGENCE--------------------------------------------

--- !BeginCycle
iteration_state: {dtset: 1, itime: 3, icycle: 1, }
solver: {iscf: 17, nstep: 2500, nline: 4, wfoptalg: 10, }
tolerances: {toldff: 1.00E-08, }
...

     iter   Etot(hartree)      deltaE(h)  residm     nres2    diffor    maxfor
 ETOT  1  -161.68515292787    -1.617E+02 2.869E-03 1.174E+02 9.357E-01 1.049E+00
 ETOT  2  -160.96941681351     7.157E-01 1.454E-03 6.570E+00 1.027E+00 2.157E-02
 ETOT  3  -160.95007816237     1.934E-02 1.279E-03 7.773E-01 7.784E-02 9.941E-02
 ETOT  4  -160.94873439980     1.344E-03 2.792E-04 6.634E-02 8.287E-02 1.654E-02
 ETOT  5  -160.94908587013    -3.515E-04 2.363E-05 1.223E-02 9.335E-03 2.588E-02
 ETOT  6  -160.94910201402    -1.614E-05 3.276E-05 1.743E-03 3.475E-03 2.240E-02
 ETOT  7  -160.94910320898    -1.195E-06 1.386E-05 8.155E-05 7.333E-04 2.313E-02
 ETOT  8  -160.94910371895    -5.100E-07 1.783E-05 5.696E-06 5.718E-04 2.256E-02
 ETOT  9  -160.94910380310    -8.416E-08 1.387E-05 4.727E-07 9.300E-05 2.266E-02
 ETOT 10  -160.94910387014    -6.703E-08 1.660E-05 3.095E-08 3.037E-05 2.263E-02
 ETOT 11  -160.94910389621    -2.607E-08 3.084E-05 2.089E-09 8.469E-06 2.263E-02
 ETOT 12  -160.94910391811    -2.190E-08 2.919E-05 2.289E-10 1.221E-06 2.264E-02
 ETOT 13  -160.94910392701    -8.899E-09 6.692E-05 7.013E-11 4.777E-07 2.263E-02
 ETOT 14  -160.94910393791    -1.090E-08 4.580E-05 1.935E-11 9.998E-08 2.263E-02
 ETOT 15  -160.94910394336    -5.457E-09 1.647E-04 8.040E-12 6.150E-08 2.263E-02
 ETOT 16  -160.94910394935    -5.984E-09 1.544E-04 1.596E-12 2.435E-08 2.263E-02
 ETOT 17  -160.94910395325    -3.904E-09 2.730E-04 7.831E-14 1.564E-09 2.263E-02
 ETOT 18  -160.94910395400    -7.452E-10 1.814E-04 4.997E-15 5.947E-10 2.263E-02

 At SCF step   18, forces are converged : 
  for the second time, max diff in force=  5.947E-10 < toldff=  1.000E-08

 Cartesian components of stress tensor (hartree/bohr^3)
  sigma(1 1)= -1.20181164E-03  sigma(3 2)=  0.00000000E+00
  sigma(2 2)= -1.20181164E-03  sigma(3 1)=  0.00000000E+00
  sigma(3 3)= -1.20181164E-03  sigma(2 1)=  0.00000000E+00


--- !ResultsGS
iteration_state: {dtset: 1, itime: 3, icycle: 1, }
comment   : Summary of ground state results
lattice_vectors:
- [  0.0000000,   9.1902581,   9.1902581, ]
- [  9.1902581,   0.0000000,   9.1902581, ]
- [  9.1902581,   9.1902581,   0.0000000, ]
lattice_lengths: [  12.99699,   12.99699,   12.99699, ]
lattice_angles: [ 60.000,  60.000,  60.000, ] # degrees, (23, 13, 12)
lattice_volume:   1.5524339E+03
convergence: {deltae: -7.452E-10, res2:  4.997E-15, residm:  1.814E-04, diffor:  5.947E-10, }
etotal    :  -1.60949104E+02
entropy   :   0.00000000E+00
fermie    :  -4.69576382E-02
cartesian_stress_tensor: # hartree/bohr^3
- [ -1.20181164E-03,   0.00000000E+00,   0.00000000E+00, ]
- [  0.00000000E+00,  -1.20181164E-03,   0.00000000E+00, ]
- [  0.00000000E+00,   0.00000000E+00,  -1.20181164E-03, ]
pressure_GPa:   3.5359E+01
xred      :
- [  2.5000E-01,   2.5000E-01,   2.5000E-01, Cs]
- [  7.5000E-01,   7.5000E-01,   7.5000E-01, Cs]
- [  7.3682E-01,   2.6318E-01,   7.3682E-01,  I]
- [  2.6318E-01,   2.6318E-01,   7.3682E-01,  I]
- [  7.3682E-01,   7.3682E-01,   2.6318E-01,  I]
- [  2.6318E-01,   7.3682E-01,   2.6318E-01,  I]
- [  2.6318E-01,   7.3682E-01,   7.3682E-01,  I]
- [  7.3682E-01,   2.6318E-01,   2.6318E-01,  I]
- [ -4.1285E-20,   1.2467E-18,  -6.0270E-19, Hf]
cartesian_forces: # hartree/bohr
- [ -1.20008325E-25,   3.85494136E-19,   5.57833659E-19, ]
- [ -3.00020812E-26,   3.85494166E-19,   5.57833569E-19, ]
- [  2.14306134E-18,  -2.26347786E-02,  -1.58522780E-18, ]
- [ -4.27708467E-19,   8.13202573E-19,   2.26347786E-02, ]
- [ -1.30701501E-18,   1.69250911E-18,  -2.26347786E-02, ]
- [ -1.91839205E-18,   2.26347786E-02,   2.47622559E-18, ]
- [ -2.26347786E-02,   1.82454925E-19,   7.60872720E-19, ]
- [  2.26347786E-02,   5.88533286E-19,   3.54794359E-19, ]
- [ -0.00000000E+00,   3.85494106E-19,   5.57833539E-19, ]
force_length_stats: {min:   6.78073715E-19, max:   2.26347786E-02, mean:   1.50898524E-02, }
...

 Integrated electronic density in atomic spheres:
 ------------------------------------------------
 Atom  Sphere_radius  Integrated_density
    1        2.20660          5.41237194
    2        2.20660          5.41237194
    3        2.30022          4.17338304
    4        2.30022          4.17338304
    5        2.30022          4.17338304
    6        2.30022          4.17338304
    7        2.30022          4.17338304
    8        2.30022          4.17338304
    9        2.41000          9.88166205

 PAW TEST:
 ==== Compensation charge inside spheres ============
 The following values must be close to each other ...
 Compensation charge over spherical meshes =     -0.654565362789597
 Compensation charge over fine fft grid    =     -0.654567440823964

 ==== Results concerning PAW augmentation regions ====

 Total pseudopotential strength Dij (hartree):
 Atom #  1
   0.43410  -0.14376   0.00000   0.00000   0.00000   0.00000   0.00000   0.00000   0.00000   0.00000   0.00000   0.00000 ...
  -0.14376   0.04327   0.00000   0.00000   0.00000   0.00000   0.00000   0.00000   0.00000   0.00000   0.00000   0.00000 ...
   0.00000   0.00000  -0.09260   0.00000   0.00000  -0.16735   0.00000   0.00000   0.00000   0.00000   0.00000   0.00000 ...
   0.00000   0.00000   0.00000  -0.09260   0.00000   0.00000  -0.16735   0.00000   0.00000   0.00000   0.00000   0.00000 ...
   0.00000   0.00000   0.00000   0.00000  -0.09260   0.00000   0.00000  -0.16735   0.00000   0.00000   0.00000   0.00000 ...
   0.00000   0.00000  -0.16735   0.00000   0.00000   0.40259   0.00000   0.00000   0.00000   0.00000   0.00000  -0.00000 ...
   0.00000   0.00000   0.00000  -0.16735   0.00000   0.00000   0.40259   0.00000  -0.00000   0.00000   0.00000   0.00000 ...
   0.00000   0.00000   0.00000   0.00000  -0.16735   0.00000   0.00000   0.40259   0.00000  -0.00000   0.00000   0.00000 ...
   0.00000   0.00000   0.00000   0.00000   0.00000   0.00000  -0.00000   0.00000   0.00536   0.00000   0.00000   0.00000 ...
   0.00000   0.00000   0.00000   0.00000   0.00000   0.00000   0.00000  -0.00000   0.00000   0.00536   0.00000   0.00000 ...
   0.00000   0.00000   0.00000   0.00000   0.00000   0.00000   0.00000   0.00000   0.00000   0.00000   0.00536   0.00000 ...
   0.00000   0.00000   0.00000   0.00000   0.00000  -0.00000   0.00000   0.00000   0.00000   0.00000   0.00000   0.00536 ...
   ...  only 12  components have been written...
 Atom #  9
  -3.49052   0.41806   0.00000   0.00000   0.00000   0.00000   0.00000   0.00000   0.00000   0.00000   0.00000   0.00000 ...
   0.41806   0.00523   0.00000   0.00000   0.00000   0.00000   0.00000   0.00000   0.00000   0.00000   0.00000   0.00000 ...
   0.00000   0.00000  -1.41283   0.00000   0.00000   0.11445   0.00000   0.00000   0.00000   0.00000   0.00000   0.00000 ...
   0.00000   0.00000   0.00000  -1.41283   0.00000   0.00000   0.11445   0.00000   0.00000   0.00000   0.00000   0.00000 ...
   0.00000   0.00000   0.00000   0.00000  -1.41283   0.00000   0.00000   0.11445   0.00000   0.00000   0.00000   0.00000 ...
   0.00000   0.00000   0.11445   0.00000   0.00000   0.01501   0.00000   0.00000   0.00000   0.00000   0.00000   0.00000 ...
   0.00000   0.00000   0.00000   0.11445   0.00000   0.00000   0.01501   0.00000   0.00000   0.00000   0.00000   0.00000 ...
   0.00000   0.00000   0.00000   0.00000   0.11445   0.00000   0.00000   0.01501   0.00000   0.00000   0.00000   0.00000 ...
   0.00000   0.00000   0.00000   0.00000   0.00000   0.00000   0.00000   0.00000  -0.38539   0.00000   0.00000   0.00000 ...
   0.00000   0.00000   0.00000   0.00000   0.00000   0.00000   0.00000   0.00000   0.00000  -0.38539   0.00000   0.00000 ...
   0.00000   0.00000   0.00000   0.00000   0.00000   0.00000   0.00000   0.00000   0.00000   0.00000  -0.38505   0.00000 ...
   0.00000   0.00000   0.00000   0.00000   0.00000   0.00000   0.00000   0.00000   0.00000   0.00000   0.00000  -0.38539 ...
   ...  only 12  components have been written...


 Augmentation waves occupancies Rhoij:
 Atom #  1
   2.00450   0.00676   0.00000   0.00000   0.00000   0.00000   0.00000   0.00000   0.00000   0.00000   0.00000   0.00000 ...
   0.00676   0.46631   0.00000   0.00000   0.00000   0.00000   0.00000   0.00000   0.00000   0.00000   0.00000   0.00000 ...
   0.00000   0.00000   2.00467   0.00000   0.00000  -0.00438   0.00000   0.00000   0.00000   0.00000   0.00000   0.00123 ...
   0.00000   0.00000   0.00000   2.00467   0.00000   0.00000  -0.00438   0.00000   0.00123   0.00000   0.00000   0.00000 ...
   0.00000   0.00000   0.00000   0.00000   2.00467   0.00000   0.00000  -0.00438   0.00000   0.00123   0.00000   0.00000 ...
   0.00000   0.00000  -0.00438   0.00000   0.00000   0.00041   0.00000   0.00000   0.00000   0.00000   0.00000   0.00024 ...
   0.00000   0.00000   0.00000  -0.00438   0.00000   0.00000   0.00041   0.00000   0.00024   0.00000   0.00000   0.00000 ...
   0.00000   0.00000   0.00000   0.00000  -0.00438   0.00000   0.00000   0.00041   0.00000   0.00024   0.00000   0.00000 ...
   0.00000   0.00000   0.00000   0.00123   0.00000   0.00000   0.00024   0.00000   0.23877   0.00000   0.00000   0.00000 ...
   0.00000   0.00000   0.00000   0.00000   0.00123   0.00000   0.00000   0.00024   0.00000   0.23877   0.00000   0.00000 ...
   0.00000   0.00000   0.00000   0.00000   0.00000   0.00000   0.00000   0.00000   0.00000   0.00000   0.18898   0.00000 ...
   0.00000   0.00000   0.00123   0.00000   0.00000   0.00024   0.00000   0.00000   0.00000   0.00000   0.00000   0.23877 ...
   ...  only 12  components have been written...
 Atom #  9
   1.99980  -0.00085   0.00000   0.00000   0.00000   0.00000   0.00000   0.00000   0.00000   0.00000   0.00000   0.00000 ...
  -0.00085   1.20800   0.00000   0.00000   0.00000   0.00000   0.00000   0.00000   0.00000   0.00000   0.00000   0.00000 ...
   0.00000   0.00000   2.00487   0.00000   0.00000   0.03914   0.00000   0.00000   0.00000   0.00000   0.00000   0.00000 ...
   0.00000   0.00000   0.00000   2.00487   0.00000   0.00000   0.03914   0.00000   0.00000   0.00000   0.00000   0.00000 ...
   0.00000   0.00000   0.00000   0.00000   2.00487   0.00000   0.00000   0.03914   0.00000   0.00000   0.00000   0.00000 ...
   0.00000   0.00000   0.03914   0.00000   0.00000   1.90503   0.00000   0.00000   0.00000   0.00000   0.00000   0.00000 ...
   0.00000   0.00000   0.00000   0.03914   0.00000   0.00000   1.90503   0.00000   0.00000   0.00000   0.00000   0.00000 ...
   0.00000   0.00000   0.00000   0.00000   0.03914   0.00000   0.00000   1.90503   0.00000   0.00000   0.00000   0.00000 ...
   0.00000   0.00000   0.00000   0.00000   0.00000   0.00000   0.00000   0.00000   0.95377   0.00000   0.00000   0.00000 ...
   0.00000   0.00000   0.00000   0.00000   0.00000   0.00000   0.00000   0.00000   0.00000   0.95377   0.00000   0.00000 ...
   0.00000   0.00000   0.00000   0.00000   0.00000   0.00000   0.00000   0.00000   0.00000   0.00000   2.37436   0.00000 ...
   0.00000   0.00000   0.00000   0.00000   0.00000   0.00000   0.00000   0.00000   0.00000   0.00000   0.00000   0.95377 ...
   ...  only 12  components have been written...



---OUTPUT-----------------------------------------------------------------------

 Cartesian coordinates (xcart) [bohr]
  4.59512907138795E+00  4.59512907138795E+00  4.59512907138795E+00
  1.37853872141639E+01  1.37853872141639E+01  1.37853872141639E+01
  9.19025814277591E+00  1.35431896711859E+01  9.19025814277591E+00
  9.19025814277591E+00  9.19025814277591E+00  4.83732661436595E+00
  9.19025814277591E+00  9.19025814277591E+00  1.35431896711859E+01
  9.19025814277591E+00  4.83732661436596E+00  9.19025814277591E+00
  1.35431896711859E+01  9.19025814277591E+00  9.19025814277591E+00
  4.83732661436596E+00  9.19025814277591E+00  9.19025814277591E+00
  5.91834797030992E-18 -5.91834797030992E-18  1.10778613031258E-17
 Reduced coordinates (xred)
  2.50000000000000E-01  2.50000000000000E-01  2.50000000000000E-01
  7.50000000000000E-01  7.50000000000000E-01  7.50000000000000E-01
  7.36823137108049E-01  2.63176862891952E-01  7.36823137108049E-01
  2.63176862891952E-01  2.63176862891952E-01  7.36823137108049E-01
  7.36823137108049E-01  7.36823137108049E-01  2.63176862891952E-01
  2.63176862891952E-01  7.36823137108049E-01  2.63176862891952E-01
  2.63176862891952E-01  7.36823137108049E-01  7.36823137108049E-01
  7.36823137108049E-01  2.63176862891952E-01  2.63176862891952E-01
 -4.12847292048312E-20  1.24667647457530E-18 -6.02695872685236E-19
 Cartesian forces (fcart) [Ha/bohr]; max,rms= 2.26348E-02 1.06701E-02 (free atoms)
 -1.20008324714033E-25  3.85494135774705E-19  5.57833659269258E-19
 -3.00020811785083E-26  3.85494165776786E-19  5.57833569263014E-19
  2.14306133739154E-18 -2.26347786420834E-02 -1.58522779813060E-18
 -4.27708467231261E-19  8.13202573003885E-19  2.26347786420834E-02
 -1.30701500874555E-18  1.69250911451817E-18 -2.26347786420834E-02
 -1.91839205055883E-18  2.26347786420833E-02  2.47622558981976E-18
 -2.26347786420834E-02  1.82454925374067E-19  7.60872719659490E-19
  2.26347786420834E-02  5.88533286171181E-19  3.54794358862376E-19
 -0.00000000000000E+00  3.85494105772624E-19  5.57833539260933E-19
 Reduced forces (fred)
 -8.66942594970962E-18 -5.12663422650629E-18 -3.54278951738836E-18
 -8.66942539825588E-18 -5.12663422650629E-18 -3.54279062029584E-18
  2.08019458725337E-01 -5.12663422650629E-18  2.08019458725337E-01
 -2.08019458725337E-01 -2.08019458725337E-01 -3.54279034456897E-18
  2.08019458725337E-01  2.08019458725337E-01 -3.54279034456897E-18
 -2.08019458725337E-01 -5.12663422650629E-18 -2.08019458725337E-01
 -8.66942457107526E-18  2.08019458725337E-01  2.08019458725337E-01
 -8.66942457107526E-18 -2.08019458725337E-01 -2.08019458725337E-01
 -8.66942457107526E-18 -5.12663422650629E-18 -3.54279034456897E-18
 Total energy (etotal) [Ha]= -1.60949103953998E+02

 Difference of energy with previous step (new-old):
           Absolute (Ha)=-9.43784E-02
           Relative     =-5.86558E-04

--- Iteration: (   4/1000) Internal Cycle: (1/1)
--------------------------------------------------------------------------------

---SELF-CONSISTENT-FIELD CONVERGENCE--------------------------------------------

--- !BeginCycle
iteration_state: {dtset: 1, itime: 4, icycle: 1, }
solver: {iscf: 17, nstep: 2500, nline: 4, wfoptalg: 10, }
tolerances: {toldff: 1.00E-08, }
...

     iter   Etot(hartree)      deltaE(h)  residm     nres2    diffor    maxfor
 ETOT  1  -161.00012997686    -1.610E+02 1.192E-04 7.675E+00 2.438E-01 2.664E-01
 ETOT  2  -160.95682379539     4.331E-02 8.138E-04 9.489E-01 2.838E-01 1.741E-02
 ETOT  3  -160.95331823972     3.506E-03 7.030E-04 6.413E-02 4.540E-02 2.799E-02
 ETOT  4  -160.95341176285    -9.352E-05 3.599E-04 6.052E-03 2.893E-02 9.411E-04
 ETOT  5  -160.95343861183    -2.685E-05 1.617E-04 1.959E-03 3.731E-03 2.790E-03
 ETOT  6  -160.95344006095    -1.449E-06 1.773E-04 8.188E-05 9.167E-04 1.873E-03
 ETOT  7  -160.95344008354    -2.259E-08 8.491E-05 2.427E-05 3.403E-05 1.907E-03
 ETOT  8  -160.95344028168    -1.981E-07 9.375E-05 3.613E-07 3.305E-06 1.910E-03
 ETOT  9  -160.95344031202    -3.034E-08 4.518E-05 1.099E-07 2.929E-05 1.940E-03
 ETOT 10  -160.95344033680    -2.478E-08 4.966E-05 1.173E-08 6.499E-06 1.933E-03
 ETOT 11  -160.95344035864    -2.184E-08 2.371E-05 4.440E-10 5.449E-07 1.933E-03
 ETOT 12  -160.95344036931    -1.067E-08 2.612E-05 7.344E-11 4.201E-07 1.933E-03
 ETOT 13  -160.95344037643    -7.111E-09 1.235E-05 1.687E-11 2.765E-07 1.933E-03
 ETOT 14  -160.95344038152    -5.093E-09 1.369E-05 6.109E-12 6.825E-08 1.933E-03
 ETOT 15  -160.95344038521    -3.688E-09 6.410E-06 1.960E-12 4.725E-08 1.933E-03
 ETOT 16  -160.95344038788    -2.674E-09 7.165E-06 5.650E-13 3.617E-09 1.933E-03
 ETOT 17  -160.95344039034    -2.460E-09 3.325E-06 3.678E-14 1.850E-09 1.933E-03

 At SCF step   17, forces are converged : 
  for the second time, max diff in force=  1.850E-09 < toldff=  1.000E-08

 Cartesian components of stress tensor (hartree/bohr^3)
  sigma(1 1)= -1.16757944E-03  sigma(3 2)=  0.00000000E+00
  sigma(2 2)= -1.16757944E-03  sigma(3 1)=  0.00000000E+00
  sigma(3 3)= -1.16757944E-03  sigma(2 1)=  0.00000000E+00


--- !ResultsGS
iteration_state: {dtset: 1, itime: 4, icycle: 1, }
comment   : Summary of ground state results
lattice_vectors:
- [  0.0000000,   9.1902581,   9.1902581, ]
- [  9.1902581,   0.0000000,   9.1902581, ]
- [  9.1902581,   9.1902581,   0.0000000, ]
lattice_lengths: [  12.99699,   12.99699,   12.99699, ]
lattice_angles: [ 60.000,  60.000,  60.000, ] # degrees, (23, 13, 12)
lattice_volume:   1.5524339E+03
convergence: {deltae: -2.460E-09, res2:  3.678E-14, residm:  3.325E-06, diffor:  1.850E-09, }
etotal    :  -1.60953440E+02
entropy   :   0.00000000E+00
fermie    :  -4.60935640E-02
cartesian_stress_tensor: # hartree/bohr^3
- [ -1.16757944E-03,   0.00000000E+00,   0.00000000E+00, ]
- [  0.00000000E+00,  -1.16757944E-03,   0.00000000E+00, ]
- [  0.00000000E+00,   0.00000000E+00,  -1.16757944E-03, ]
pressure_GPa:   3.4351E+01
xred      :
- [  2.5000E-01,   2.5000E-01,   2.5000E-01, Cs]
- [  7.5000E-01,   7.5000E-01,   7.5000E-01, Cs]
- [  7.3361E-01,   2.6639E-01,   7.3361E-01,  I]
- [  2.6639E-01,   2.6639E-01,   7.3361E-01,  I]
- [  7.3361E-01,   7.3361E-01,   2.6639E-01,  I]
- [  2.6639E-01,   7.3361E-01,   2.6639E-01,  I]
- [  2.6639E-01,   7.3361E-01,   7.3361E-01,  I]
- [  7.3361E-01,   2.6639E-01,   2.6639E-01,  I]
- [  4.2436E-21,   1.4114E-18,  -6.6170E-19, Hf]
cartesian_forces: # hartree/bohr
- [  7.22805049E-20,  -7.22803848E-20,  -2.27737563E-20, ]
- [  7.22800248E-20,  -7.22799048E-20,  -2.27738763E-20, ]
- [  6.04029769E-20,  -1.93269791E-03,  -1.08965283E-20, ]
- [ -5.01934911E-19,   5.09799777E-19,   1.93269791E-03, ]
- [  2.40897993E-19,  -2.48762858E-19,  -1.93269791E-03, ]
- [ -1.32683122E-19,   1.93269791E-03,   1.82189570E-19, ]
- [ -1.93269791E-03,  -5.60736520E-20,  -3.89801892E-20, ]
- [  1.93269791E-03,  -8.84866377E-20,  -6.56720341E-21, ]
- [  7.22801448E-20,  -7.22801448E-20,  -2.27736963E-20, ]
force_length_stats: {min:   1.04725527E-19, max:   1.93269791E-03, mean:   1.28846527E-03, }
...

 Integrated electronic density in atomic spheres:
 ------------------------------------------------
 Atom  Sphere_radius  Integrated_density
    1        2.20660          5.41242658
    2        2.20660          5.41242658
    3        2.30022          4.18066726
    4        2.30022          4.18066726
    5        2.30022          4.18066726
    6        2.30022          4.18066726
    7        2.30022          4.18066726
    8        2.30022          4.18066726
    9        2.41000          9.80411081

 PAW TEST:
 ==== Compensation charge inside spheres ============
 The following values must be close to each other ...
 Compensation charge over spherical meshes =     -0.664567513413947
 Compensation charge over fine fft grid    =     -0.664579021596544

 ==== Results concerning PAW augmentation regions ====

 Total pseudopotential strength Dij (hartree):
 Atom #  1
   0.43388  -0.14369   0.00000   0.00000   0.00000   0.00000   0.00000   0.00000   0.00000   0.00000   0.00000   0.00000 ...
  -0.14369   0.04325   0.00000   0.00000   0.00000   0.00000   0.00000   0.00000   0.00000   0.00000   0.00000   0.00000 ...
   0.00000   0.00000  -0.09257   0.00000   0.00000  -0.16737   0.00000   0.00000   0.00000   0.00000   0.00000   0.00000 ...
   0.00000   0.00000   0.00000  -0.09257   0.00000   0.00000  -0.16737   0.00000   0.00000   0.00000   0.00000   0.00000 ...
   0.00000   0.00000   0.00000   0.00000  -0.09257   0.00000   0.00000  -0.16737   0.00000   0.00000   0.00000   0.00000 ...
   0.00000   0.00000  -0.16737   0.00000   0.00000   0.40252   0.00000   0.00000   0.00000   0.00000   0.00000  -0.00000 ...
   0.00000   0.00000   0.00000  -0.16737   0.00000   0.00000   0.40252   0.00000  -0.00000   0.00000   0.00000   0.00000 ...
   0.00000   0.00000   0.00000   0.00000  -0.16737   0.00000   0.00000   0.40252   0.00000  -0.00000   0.00000   0.00000 ...
   0.00000   0.00000   0.00000   0.00000   0.00000   0.00000  -0.00000   0.00000   0.00536   0.00000   0.00000   0.00000 ...
   0.00000   0.00000   0.00000   0.00000   0.00000   0.00000   0.00000  -0.00000   0.00000   0.00536   0.00000   0.00000 ...
   0.00000   0.00000   0.00000   0.00000   0.00000   0.00000   0.00000   0.00000   0.00000   0.00000   0.00536   0.00000 ...
   0.00000   0.00000   0.00000   0.00000   0.00000  -0.00000   0.00000   0.00000   0.00000   0.00000   0.00000   0.00536 ...
   ...  only 12  components have been written...
 Atom #  9
  -3.49220   0.41865   0.00000   0.00000   0.00000   0.00000   0.00000   0.00000   0.00000   0.00000   0.00000   0.00000 ...
   0.41865   0.00507   0.00000   0.00000   0.00000   0.00000   0.00000   0.00000   0.00000   0.00000   0.00000   0.00000 ...
   0.00000   0.00000  -1.41504   0.00000   0.00000   0.11493   0.00000   0.00000   0.00000   0.00000   0.00000   0.00000 ...
   0.00000   0.00000   0.00000  -1.41504   0.00000   0.00000   0.11493   0.00000   0.00000   0.00000   0.00000   0.00000 ...
   0.00000   0.00000   0.00000   0.00000  -1.41504   0.00000   0.00000   0.11493   0.00000   0.00000   0.00000   0.00000 ...
   0.00000   0.00000   0.11493   0.00000   0.00000   0.01491   0.00000   0.00000   0.00000   0.00000   0.00000   0.00000 ...
   0.00000   0.00000   0.00000   0.11493   0.00000   0.00000   0.01491   0.00000   0.00000   0.00000   0.00000   0.00000 ...
   0.00000   0.00000   0.00000   0.00000   0.11493   0.00000   0.00000   0.01491   0.00000   0.00000   0.00000   0.00000 ...
   0.00000   0.00000   0.00000   0.00000   0.00000   0.00000   0.00000   0.00000  -0.38586   0.00000   0.00000   0.00000 ...
   0.00000   0.00000   0.00000   0.00000   0.00000   0.00000   0.00000   0.00000   0.00000  -0.38586   0.00000   0.00000 ...
   0.00000   0.00000   0.00000   0.00000   0.00000   0.00000   0.00000   0.00000   0.00000   0.00000  -0.38549   0.00000 ...
   0.00000   0.00000   0.00000   0.00000   0.00000   0.00000   0.00000   0.00000   0.00000   0.00000   0.00000  -0.38586 ...
   ...  only 12  components have been written...


 Augmentation waves occupancies Rhoij:
 Atom #  1
   2.00453   0.00683   0.00000   0.00000   0.00000   0.00000   0.00000   0.00000   0.00000   0.00000   0.00000   0.00000 ...
   0.00683   0.46827   0.00000   0.00000   0.00000   0.00000   0.00000   0.00000   0.00000   0.00000   0.00000   0.00000 ...
   0.00000   0.00000   2.00469   0.00000   0.00000  -0.00437   0.00000   0.00000   0.00000   0.00000   0.00000   0.00261 ...
   0.00000   0.00000   0.00000   2.00469   0.00000   0.00000  -0.00437   0.00000   0.00261   0.00000   0.00000   0.00000 ...
   0.00000   0.00000   0.00000   0.00000   2.00469   0.00000   0.00000  -0.00437   0.00000   0.00261   0.00000   0.00000 ...
   0.00000   0.00000  -0.00437   0.00000   0.00000   0.00042   0.00000   0.00000   0.00000   0.00000   0.00000   0.00024 ...
   0.00000   0.00000   0.00000  -0.00437   0.00000   0.00000   0.00042   0.00000   0.00024   0.00000   0.00000   0.00000 ...
   0.00000   0.00000   0.00000   0.00000  -0.00437   0.00000   0.00000   0.00042   0.00000   0.00024   0.00000   0.00000 ...
   0.00000   0.00000   0.00000   0.00261   0.00000   0.00000   0.00024   0.00000   0.23895   0.00000   0.00000   0.00000 ...
   0.00000   0.00000   0.00000   0.00000   0.00261   0.00000   0.00000   0.00024   0.00000   0.23895   0.00000   0.00000 ...
   0.00000   0.00000   0.00000   0.00000   0.00000   0.00000   0.00000   0.00000   0.00000   0.00000   0.18837   0.00000 ...
   0.00000   0.00000   0.00261   0.00000   0.00000   0.00024   0.00000   0.00000   0.00000   0.00000   0.00000   0.23895 ...
   ...  only 12  components have been written...
 Atom #  9
   1.99956  -0.00323   0.00000   0.00000   0.00000   0.00000   0.00000   0.00000   0.00000   0.00000   0.00000   0.00000 ...
  -0.00323   1.17380   0.00000   0.00000   0.00000   0.00000   0.00000   0.00000   0.00000   0.00000   0.00000   0.00000 ...
   0.00000   0.00000   2.00333   0.00000   0.00000   0.02708   0.00000   0.00000   0.00000   0.00000   0.00000   0.00000 ...
   0.00000   0.00000   0.00000   2.00333   0.00000   0.00000   0.02708   0.00000   0.00000   0.00000   0.00000   0.00000 ...
   0.00000   0.00000   0.00000   0.00000   2.00333   0.00000   0.00000   0.02708   0.00000   0.00000   0.00000   0.00000 ...
   0.00000   0.00000   0.02708   0.00000   0.00000   1.79035   0.00000   0.00000   0.00000   0.00000   0.00000   0.00000 ...
   0.00000   0.00000   0.00000   0.02708   0.00000   0.00000   1.79035   0.00000   0.00000   0.00000   0.00000   0.00000 ...
   0.00000   0.00000   0.00000   0.00000   0.02708   0.00000   0.00000   1.79035   0.00000   0.00000   0.00000   0.00000 ...
   0.00000   0.00000   0.00000   0.00000   0.00000   0.00000   0.00000   0.00000   0.89712   0.00000   0.00000   0.00000 ...
   0.00000   0.00000   0.00000   0.00000   0.00000   0.00000   0.00000   0.00000   0.00000   0.89712   0.00000   0.00000 ...
   0.00000   0.00000   0.00000   0.00000   0.00000   0.00000   0.00000   0.00000   0.00000   0.00000   2.22141   0.00000 ...
   0.00000   0.00000   0.00000   0.00000   0.00000   0.00000   0.00000   0.00000   0.00000   0.00000   0.00000   0.89712 ...
   ...  only 12  components have been written...



---OUTPUT-----------------------------------------------------------------------

 Cartesian coordinates (xcart) [bohr]
  4.59512907138795E+00  4.59512907138795E+00  4.59512907138795E+00
  1.37853872141639E+01  1.37853872141639E+01  1.37853872141639E+01
  9.19025814277591E+00  1.34841544367398E+01  9.19025814277591E+00
  9.19025814277591E+00  9.19025814277591E+00  4.89636184881206E+00
  9.19025814277591E+00  9.19025814277591E+00  1.34841544367398E+01
  9.19025814277591E+00  4.89636184881206E+00  9.19025814277591E+00
  1.34841544367398E+01  9.19025814277591E+00  9.19025814277591E+00
  4.89636184881206E+00  9.19025814277591E+00  9.19025814277591E+00
  6.88990132544005E-18 -6.04217321126931E-18  1.30100747287275E-17
 Reduced coordinates (xred)
  2.50000000000000E-01  2.50000000000000E-01  2.50000000000000E-01
  7.50000000000000E-01  7.50000000000000E-01  7.50000000000000E-01
  7.33611299446421E-01  2.66388700553580E-01  7.33611299446421E-01
  2.66388700553580E-01  2.66388700553580E-01  7.33611299446420E-01
  7.33611299446421E-01  7.33611299446421E-01  2.66388700553580E-01
  2.66388700553580E-01  7.33611299446420E-01  2.66388700553580E-01
  2.66388700553580E-01  7.33611299446421E-01  7.33611299446421E-01
  7.33611299446420E-01  2.66388700553580E-01  2.66388700553580E-01
  4.24363444455943E-21  1.41139393814683E-18 -6.61697768746415E-19
 Cartesian forces (fcart) [Ha/bohr]; max,rms= 1.93270E-03 9.11083E-04 (free atoms)
  7.22805048573411E-20 -7.22803848490164E-20 -2.27737562838734E-20
  7.22800248240422E-20 -7.22799048157175E-20 -2.27738762921981E-20
  6.04029768526653E-20 -1.93269791203555E-03 -1.08965283000094E-20
 -5.01934911292144E-19  5.09799776860603E-19  1.93269791203555E-03
  2.40897992816764E-19 -2.48762858385223E-19 -1.93269791203555E-03
 -1.32683121685032E-19  1.93269791203555E-03  1.82189570237688E-19
 -1.93269791203555E-03 -5.60736519579805E-20 -3.89801891540974E-20
  1.93269791203555E-03 -8.84866377067534E-20 -6.56720340532462E-21
  7.22801448323670E-20 -7.22801448323670E-20 -2.27736962797110E-20
 Reduced forces (fred)
  8.73572094551110E-19 -4.54979799199671E-19 -1.10290748343094E-24
  8.73568785828660E-19 -4.54974284662254E-19 -1.10290748338393E-24
  1.77619927236107E-02 -4.54977041930963E-19  1.77619927236107E-02
 -1.77619927236107E-02 -1.77619927236107E-02 -7.22801448323678E-20
  1.77619927236107E-02  1.77619927236107E-02  7.22801448323669E-20
 -1.77619927236107E-02 -4.54977041930962E-19 -1.77619927236107E-02
  8.73569337282402E-19  1.77619927236107E-02  1.77619927236107E-02
  8.73569337282402E-19 -1.77619927236107E-02 -1.77619927236107E-02
  8.73569337282402E-19 -4.54977041930963E-19  3.68745694871265E-35
 Total energy (etotal) [Ha]= -1.60953440390340E+02

 Difference of energy with previous step (new-old):
           Absolute (Ha)=-4.33644E-03
           Relative     =-2.69425E-05

--- Iteration: (   5/1000) Internal Cycle: (1/1)
--------------------------------------------------------------------------------

---SELF-CONSISTENT-FIELD CONVERGENCE--------------------------------------------

--- !BeginCycle
iteration_state: {dtset: 1, itime: 5, icycle: 1, }
solver: {iscf: 17, nstep: 2500, nline: 4, wfoptalg: 10, }
tolerances: {toldff: 1.00E-08, }
...

     iter   Etot(hartree)      deltaE(h)  residm     nres2    diffor    maxfor
 ETOT  1  -160.95388114859    -1.610E+02 4.550E-06 6.791E-02 2.283E-02 2.476E-02
 ETOT  2  -160.95351038107     3.708E-04 4.724E-06 1.010E-02 2.699E-02 2.228E-03
 ETOT  3  -160.95347046216     3.992E-05 4.495E-06 5.340E-04 4.572E-03 2.344E-03
 ETOT  4  -160.95347222068    -1.759E-06 9.711E-07 5.779E-05 2.625E-03 2.812E-04
 ETOT  5  -160.95347246851    -2.478E-07 3.763E-07 1.875E-05 3.784E-04 9.728E-05
 ETOT  6  -160.95347255435    -8.583E-08 2.728E-07 6.828E-07 7.800E-05 1.928E-05
 ETOT  7  -160.95347255405     2.939E-10 1.874E-07 2.084E-07 6.279E-06 1.300E-05
 ETOT  8  -160.95347256800    -1.395E-08 1.302E-07 4.072E-09 2.612E-06 1.561E-05
 ETOT  9  -160.95347257016    -2.163E-09 9.403E-08 6.999E-10 3.385E-06 1.899E-05
 ETOT 10  -160.95347257159    -1.430E-09 6.651E-08 8.503E-11 2.449E-07 1.875E-05
 ETOT 11  -160.95347257285    -1.252E-09 4.845E-08 3.377E-12 1.687E-07 1.858E-05
 ETOT 12  -160.95347257330    -4.579E-10 3.440E-08 8.825E-13 9.183E-08 1.867E-05
 ETOT 13  -160.95347257378    -4.715E-10 2.513E-08 9.013E-14 5.238E-08 1.862E-05
 ETOT 14  -160.95347257396    -1.829E-10 1.788E-08 3.279E-14 7.409E-09 1.863E-05
 ETOT 15  -160.95347257417    -2.124E-10 1.309E-08 1.018E-14 2.746E-09 1.863E-05

 At SCF step   15, forces are converged : 
  for the second time, max diff in force=  2.746E-09 < toldff=  1.000E-08

 Cartesian components of stress tensor (hartree/bohr^3)
  sigma(1 1)= -1.16487814E-03  sigma(3 2)=  0.00000000E+00
  sigma(2 2)= -1.16487814E-03  sigma(3 1)=  0.00000000E+00
  sigma(3 3)= -1.16487814E-03  sigma(2 1)=  0.00000000E+00


--- !ResultsGS
iteration_state: {dtset: 1, itime: 5, icycle: 1, }
comment   : Summary of ground state results
lattice_vectors:
- [  0.0000000,   9.1902581,   9.1902581, ]
- [  9.1902581,   0.0000000,   9.1902581, ]
- [  9.1902581,   9.1902581,   0.0000000, ]
lattice_lengths: [  12.99699,   12.99699,   12.99699, ]
lattice_angles: [ 60.000,  60.000,  60.000, ] # degrees, (23, 13, 12)
lattice_volume:   1.5524339E+03
convergence: {deltae: -2.124E-10, res2:  1.018E-14, residm:  1.309E-08, diffor:  2.746E-09, }
etotal    :  -1.60953473E+02
entropy   :   0.00000000E+00
fermie    :  -4.60000027E-02
cartesian_stress_tensor: # hartree/bohr^3
- [ -1.16487814E-03,   0.00000000E+00,   0.00000000E+00, ]
- [  0.00000000E+00,  -1.16487814E-03,   0.00000000E+00, ]
- [  0.00000000E+00,   0.00000000E+00,  -1.16487814E-03, ]
pressure_GPa:   3.4272E+01
xred      :
- [  2.5000E-01,   2.5000E-01,   2.5000E-01, Cs]
- [  7.5000E-01,   7.5000E-01,   7.5000E-01, Cs]
- [  7.3331E-01,   2.6669E-01,   7.3331E-01,  I]
- [  2.6669E-01,   2.6669E-01,   7.3331E-01,  I]
- [  7.3331E-01,   7.3331E-01,   2.6669E-01,  I]
- [  2.6669E-01,   7.3331E-01,   2.6669E-01,  I]
- [  2.6669E-01,   7.3331E-01,   7.3331E-01,  I]
- [  7.3331E-01,   2.6669E-01,   2.6669E-01,  I]
- [ -6.7402E-22,   1.4333E-18,  -6.6934E-19, Hf]
cartesian_forces: # hartree/bohr
- [ -7.52888173E-22,   4.00747259E-22,   3.93376450E-24, ]
- [ -7.52948177E-22,   4.00927272E-22,   3.51373537E-24, ]
- [  2.38229626E-21,  -1.86252639E-05,  -3.13149069E-21, ]
- [  1.12703757E-21,  -1.47911848E-21,   1.86252639E-05, ]
- [ -9.38808026E-22,   5.86727117E-22,  -1.86252639E-05, ]
- [ -3.88813261E-21,   1.86252639E-05,   3.13893819E-21, ]
- [ -1.86252639E-05,  -2.90887285E-22,   6.95448301E-22, ]
- [  1.86252639E-05,   8.73158216E-22,  -4.68597200E-22, ]
- [ -7.52918175E-22,   4.00837265E-22,   3.72374993E-24, ]
force_length_stats: {min:   8.52909398E-22, max:   1.86252639E-05, mean:   1.24168426E-05, }
...

 Integrated electronic density in atomic spheres:
 ------------------------------------------------
 Atom  Sphere_radius  Integrated_density
    1        2.20660          5.41242565
    2        2.20660          5.41242565
    3        2.30022          4.18843228
    4        2.30022          4.18843228
    5        2.30022          4.18843228
    6        2.30022          4.18843228
    7        2.30022          4.18843228
    8        2.30022          4.18843228
    9        2.41000          9.79723870

 PAW TEST:
 ==== Compensation charge inside spheres ============
 The following values must be close to each other ...
 Compensation charge over spherical meshes =     -0.665559027476774
 Compensation charge over fine fft grid    =     -0.665570472541902

 ==== Results concerning PAW augmentation regions ====

 Total pseudopotential strength Dij (hartree):
 Atom #  1
   0.43386  -0.14368   0.00000   0.00000   0.00000   0.00000   0.00000   0.00000   0.00000   0.00000   0.00000   0.00000 ...
  -0.14368   0.04324   0.00000   0.00000   0.00000   0.00000   0.00000   0.00000   0.00000   0.00000   0.00000   0.00000 ...
   0.00000   0.00000  -0.09257   0.00000   0.00000  -0.16737   0.00000   0.00000   0.00000   0.00000   0.00000   0.00000 ...
   0.00000   0.00000   0.00000  -0.09257   0.00000   0.00000  -0.16737   0.00000   0.00000   0.00000   0.00000   0.00000 ...
   0.00000   0.00000   0.00000   0.00000  -0.09257   0.00000   0.00000  -0.16737   0.00000   0.00000   0.00000   0.00000 ...
   0.00000   0.00000  -0.16737   0.00000   0.00000   0.40252   0.00000   0.00000   0.00000   0.00000   0.00000  -0.00000 ...
   0.00000   0.00000   0.00000  -0.16737   0.00000   0.00000   0.40252   0.00000  -0.00000   0.00000   0.00000   0.00000 ...
   0.00000   0.00000   0.00000   0.00000  -0.16737   0.00000   0.00000   0.40252   0.00000  -0.00000   0.00000   0.00000 ...
   0.00000   0.00000   0.00000   0.00000   0.00000   0.00000  -0.00000   0.00000   0.00536   0.00000   0.00000   0.00000 ...
   0.00000   0.00000   0.00000   0.00000   0.00000   0.00000   0.00000  -0.00000   0.00000   0.00536   0.00000   0.00000 ...
   0.00000   0.00000   0.00000   0.00000   0.00000   0.00000   0.00000   0.00000   0.00000   0.00000   0.00536   0.00000 ...
   0.00000   0.00000   0.00000   0.00000   0.00000  -0.00000   0.00000   0.00000   0.00000   0.00000   0.00000   0.00536 ...
   ...  only 12  components have been written...
 Atom #  9
  -3.49236   0.41871   0.00000   0.00000   0.00000   0.00000   0.00000   0.00000   0.00000   0.00000   0.00000   0.00000 ...
   0.41871   0.00506   0.00000   0.00000   0.00000   0.00000   0.00000   0.00000   0.00000   0.00000   0.00000   0.00000 ...
   0.00000   0.00000  -1.41525   0.00000   0.00000   0.11497   0.00000   0.00000   0.00000   0.00000   0.00000   0.00000 ...
   0.00000   0.00000   0.00000  -1.41525   0.00000   0.00000   0.11497   0.00000   0.00000   0.00000   0.00000   0.00000 ...
   0.00000   0.00000   0.00000   0.00000  -1.41525   0.00000   0.00000   0.11497   0.00000   0.00000   0.00000   0.00000 ...
   0.00000   0.00000   0.11497   0.00000   0.00000   0.01490   0.00000   0.00000   0.00000   0.00000   0.00000   0.00000 ...
   0.00000   0.00000   0.00000   0.11497   0.00000   0.00000   0.01490   0.00000   0.00000   0.00000   0.00000   0.00000 ...
[...]
       0.250000000000      0.250000000000      0.250000000000
       0.750000000000      0.750000000000      0.750000000000
       0.733308532036      0.266691467964      0.733308532036
       0.266691467964      0.266691467964      0.733308532036
       0.733308532036      0.733308532036      0.266691467964
       0.266691467964      0.733308532036      0.266691467964
       0.266691467964      0.733308532036      0.733308532036
       0.733308532036      0.266691467964      0.266691467964
      -0.000000000000      0.000000000000     -0.000000000000
 rms dE/dt=  3.5598E-07; max dE/dt=  5.3397E-07; dE/dt below (all hartree)
    1      -0.000000000000     -0.000000000000      0.000000000000
    2       0.000000000000      0.000000000000      0.000000000000
    3      -0.000000533974      0.000000000000     -0.000000533974
    4       0.000000533974      0.000000533974      0.000000000000
    5      -0.000000533974     -0.000000533974      0.000000000000
    6       0.000000533974      0.000000000000      0.000000533974
    7      -0.000000000000     -0.000000533974     -0.000000533974
    8       0.000000000000      0.000000533974      0.000000533974
    9       0.000000000000      0.000000000000      0.000000000000

 cartesian coordinates (angstrom) at end:
    1      2.43163757510784     2.43163757510784     2.43163757510784
    2      7.29491272532351     7.29491272532351     7.29491272532351
    3      4.86327515021567     7.13256232258507     4.86327515021567
    4      4.86327515021567     4.86327515021567     2.59398797784627
    5      4.86327515021567     4.86327515021567     7.13256232258507
    6      4.86327515021567     2.59398797784627     4.86327515021567
    7      7.13256232258507     4.86327515021567     4.86327515021567
    8      2.59398797784627     4.86327515021567     4.86327515021567
    9      0.00000000000000    -0.00000000000000     0.00000000000000

 cartesian forces (hartree/bohr) at end:
    1     -0.00000000000000     0.00000000000000     0.00000000000000
    2     -0.00000000000000     0.00000000000000     0.00000000000000
    3     -0.00000000000000     0.00000005810215     0.00000000000000
    4      0.00000000000000    -0.00000000000000    -0.00000005810215
    5      0.00000000000000    -0.00000000000000     0.00000005810215
    6      0.00000000000000    -0.00000005810215    -0.00000000000000
    7      0.00000005810215     0.00000000000000     0.00000000000000
    8     -0.00000005810215     0.00000000000000    -0.00000000000000
    9     -0.00000000000000     0.00000000000000     0.00000000000000
 frms,max,avg= 2.7389614E-08 5.8102146E-08   0.000E+00  0.000E+00  0.000E+00 h/b

 cartesian forces (eV/Angstrom) at end:
    1     -0.00000000000000     0.00000000000000     0.00000000000000
    2     -0.00000000000000     0.00000000000000     0.00000000000000
    3     -0.00000000000000     0.00000298773220     0.00000000000000
    4      0.00000000000000    -0.00000000000000    -0.00000298773220
    5      0.00000000000000    -0.00000000000000     0.00000298773220
    6      0.00000000000000    -0.00000298773220    -0.00000000000000
    7      0.00000298773220     0.00000000000000     0.00000000000000
    8     -0.00000298773220     0.00000000000000    -0.00000000000000
    9     -0.00000000000000     0.00000000000000     0.00000000000000
 frms,max,avg= 1.4084305E-06 2.9877322E-06   0.000E+00  0.000E+00  0.000E+00 e/A
 length scales= 16.045663836000 16.045663836000 16.045663836000 bohr
              =  8.490999598708  8.490999598708  8.490999598708 angstroms
 prteigrs : about to open file Cs2TiI6o_EIG
 Fermi (or HOMO) energy (hartree) =  -0.04600   Average Vxc (hartree)=  -0.39205
 Eigenvalues (hartree) for nkpt=  10  k points:
 kpt#   1, nband= 42, wtk=  0.09375, kpt= -0.1250 -0.2500  0.0000 (reduced coord)
  -2.32425   -1.18083   -1.18083   -1.18083   -0.82432   -0.82149   -0.58961   -0.54052
  -0.53077   -0.53010   -0.50756   -0.50470   -0.37572   -0.37176   -0.36666   -0.35980
  -0.35876   -0.35225   -0.30363   -0.23475   -0.21583   -0.21558   -0.20952   -0.18854
  -0.18834   -0.15333   -0.14752   -0.14073   -0.13581   -0.12779   -0.09106   -0.07154
  -0.07122   -0.05960   -0.05701   -0.05028   -0.00769    0.01606    0.01624    0.07116
   0.07682    0.08816
 prteigrs : prtvol=0 or 1, do not print more k-points.


--- !EnergyTerms
iteration_state     : {dtset: 1, itime: 6, icycle: 1, }
comment             : Components of total free energy in Hartree
kinetic             :  3.85503920575475E+01
hartree             :  1.93155873221489E+01
xc                  : -5.97990564980832E+01
Ewald energy        : -1.47385379361083E+02
psp_core            :  3.22701192558195E+01
local_psp           : -3.29038766144866E+01
spherical_terms     : -1.10012587383281E+01
total_energy        : -1.60953472576465E+02
total_energy_eV     : -4.37976672587818E+03
...


--- !EnergyTermsDC
iteration_state     : {dtset: 1, itime: 6, icycle: 1, }
comment             : '"Double-counting" decomposition of free energy'
band_energy         : -3.14186675206047E+01
Ewald energy        : -1.47385379361083E+02
psp_core            :  3.22701192558195E+01
xc_dc               : -4.09906158480605E+01
spherical_terms     :  2.65710708974811E+01
total_energy_dc     : -1.60953472576448E+02
total_energy_dc_eV  : -4.37976672587771E+03
...

 rms coord change=  2.3020E-02   atom, delta coord (reduced):
     1        0.000000000000      0.000000000000      0.000000000000
     2        0.000000000000      0.000000000000      0.000000000000
     3       -0.028193045694      0.028193045694     -0.028193045694
     4        0.028193045694      0.028193045694     -0.028193045694
     5       -0.028193045694     -0.028193045694      0.028193045694
     6        0.028193045694     -0.028193045694      0.028193045694
     7        0.028193045694     -0.028193045694     -0.028193045694
     8       -0.028193045694      0.028193045694      0.028193045694
     9       -0.000000000000      0.000000000000     -0.000000000000

 Cartesian components of stress tensor (hartree/bohr^3)
  sigma(1 1)= -1.16485240E-03  sigma(3 2)=  0.00000000E+00
  sigma(2 2)= -1.16485240E-03  sigma(3 1)=  0.00000000E+00
  sigma(3 3)= -1.16485240E-03  sigma(2 1)=  0.00000000E+00

-Cartesian components of stress tensor (GPa)         [Pressure=  3.4271E+01 GPa]
- sigma(1 1)= -3.42711350E+01  sigma(3 2)=  0.00000000E+00
- sigma(2 2)= -3.42711350E+01  sigma(3 1)=  0.00000000E+00
- sigma(3 3)= -3.42711350E+01  sigma(2 1)=  0.00000000E+00

== END DATASET(S) ==============================================================
================================================================================
  
 -outvars: echo values of variables after computation  --------
            acell      1.6045663836E+01  1.6045663836E+01  1.6045663836E+01 Bohr
              amu      1.32905430E+02  1.26904470E+02  1.78490000E+02
           diemac      1.20000000E+01
          dilatmx      1.15000000E+00
             ecut      1.60000000E+01 Hartree
           ecutsm      5.00000000E-01 Hartree
           etotal     -1.6095347258E+02
            fcart     -7.3620922064E-25  1.4658554860E-24  2.1631762415E-24
                      -7.3808435071E-25  1.4714808762E-24  2.1538005912E-24
                      -2.9245653069E-25  5.8102145634E-08  1.7137981614E-24
                       3.8733112337E-24 -3.1380395781E-24 -5.8102145634E-08
                       3.7252674916E-24 -2.9899958360E-24  5.8102145634E-08
                       5.4393581199E-24 -5.8102145634E-08 -4.0180164893E-24
                       5.8102145634E-08  1.9133584361E-24  1.7137981614E-24
                      -5.8102145634E-08  7.6451730867E-24 -4.0180164893E-24
                      -7.3527165560E-25  1.4705433112E-24  2.1566132863E-24
-          fftalg         112
           ionmov           2
              ixc     -101130
              kpt     -1.25000000E-01 -2.50000000E-01  0.00000000E+00
                      -1.25000000E-01  5.00000000E-01  0.00000000E+00
                      -2.50000000E-01 -3.75000000E-01  0.00000000E+00
                      -1.25000000E-01 -3.75000000E-01  1.25000000E-01
                      -1.25000000E-01  2.50000000E-01  0.00000000E+00
                      -2.50000000E-01  3.75000000E-01  0.00000000E+00
                      -3.75000000E-01  5.00000000E-01  0.00000000E+00
                      -2.50000000E-01  5.00000000E-01  1.25000000E-01
                      -1.25000000E-01  0.00000000E+00  0.00000000E+00
                      -3.75000000E-01  0.00000000E+00  0.00000000E+00
         kptrlatt        4   -4    4     -4    4    4     -4   -4    4
          kptrlen      7.35220651E+01
P           mkmem           3
            natom           9
            nband          42
            ngfft          54      54      54
          ngfftdg          90      90      90
             nkpt          10
            nstep        2500
             nsym          48
            ntime        1000
           ntypat           3
              occ      2.000000  2.000000  2.000000  2.000000  2.000000  2.000000
                       2.000000  2.000000  2.000000  2.000000  2.000000  2.000000
                       2.000000  2.000000  2.000000  2.000000  2.000000  2.000000
                       2.000000  2.000000  2.000000  2.000000  2.000000  2.000000
                       2.000000  2.000000  2.000000  2.000000  2.000000  2.000000
                       2.000000  2.000000  2.000000  2.000000  2.000000  2.000000
                       0.000000  0.000000  0.000000  0.000000  0.000000  0.000000
        optforces           1
        pawecutdg      4.00000000E+01 Hartree
            prtwf           0
            rprim      0.0000000000E+00  5.7275649276E-01  5.7275649276E-01
                       5.7275649276E-01  0.0000000000E+00  5.7275649276E-01
                       5.7275649276E-01  5.7275649276E-01  0.0000000000E+00
           shiftk      5.00000000E-01  5.00000000E-01  5.00000000E-01
          spgroup         225
           strten     -1.1648523977E-03 -1.1648523977E-03 -1.1648523977E-03
                       0.0000000000E+00  0.0000000000E+00  0.0000000000E+00
           symrel      1  0  0   0  1  0   0  0  1      -1  0  0   0 -1  0   0  0 -1
                       0 -1  1   0 -1  0   1 -1  0       0  1 -1   0  1  0  -1  1  0
                      -1  0  0  -1  0  1  -1  1  0       1  0  0   1  0 -1   1 -1  0
                       0  1 -1   1  0 -1   0  0 -1       0 -1  1  -1  0  1   0  0  1
                      -1  0  0  -1  1  0  -1  0  1       1  0  0   1 -1  0   1  0 -1
                       0 -1  1   1 -1  0   0 -1  0       0  1 -1  -1  1  0   0  1  0
                       1  0  0   0  0  1   0  1  0      -1  0  0   0  0 -1   0 -1  0
                       0  1 -1   0  0 -1   1  0 -1       0 -1  1   0  0  1  -1  0  1
                      -1  0  1  -1  1  0  -1  0  0       1  0 -1   1 -1  0   1  0  0
                       0 -1  0   1 -1  0   0 -1  1       0  1  0  -1  1  0   0  1 -1
                       1  0 -1   0  0 -1   0  1 -1      -1  0  1   0  0  1   0 -1  1
                       0  1  0   0  0  1   1  0  0       0 -1  0   0  0 -1  -1  0  0
                       1  0 -1   0  1 -1   0  0 -1      -1  0  1   0 -1  1   0  0  1
                       0 -1  0   0 -1  1   1 -1  0       0  1  0   0  1 -1  -1  1  0
                      -1  0  1  -1  0  0  -1  1  0       1  0 -1   1  0  0   1 -1  0
                       0  1  0   1  0  0   0  0  1       0 -1  0  -1  0  0   0  0 -1
                       0  0 -1   0  1 -1   1  0 -1       0  0  1   0 -1  1  -1  0  1
                       1 -1  0   0 -1  1   0 -1  0      -1  1  0   0  1 -1   0  1  0
                       0  0  1   1  0  0   0  1  0       0  0 -1  -1  0  0   0 -1  0
                      -1  1  0  -1  0  0  -1  0  1       1 -1  0   1  0  0   1  0 -1
                       0  0  1   0  1  0   1  0  0       0  0 -1   0 -1  0  -1  0  0
                       1 -1  0   0 -1  0   0 -1  1      -1  1  0   0  1  0   0  1 -1
                       0  0 -1   1  0 -1   0  1 -1       0  0  1  -1  0  1   0 -1  1
                      -1  1  0  -1  0  1  -1  0  0       1 -1  0   1  0 -1   1  0  0
           toldff      1.00000000E-08
           tolmxf      1.00000000E-05
            typat      1  1  2  2  2  2  2  2  3
           useylm           1
              wtk        0.09375    0.09375    0.09375    0.18750    0.09375    0.09375
                         0.09375    0.18750    0.03125    0.03125
           xangst      2.4316375751E+00  2.4316375751E+00  2.4316375751E+00
                       7.2949127253E+00  7.2949127253E+00  7.2949127253E+00
                       4.8632751502E+00  7.1325623226E+00  4.8632751502E+00
                       4.8632751502E+00  4.8632751502E+00  2.5939879778E+00
                       4.8632751502E+00  4.8632751502E+00  7.1325623226E+00
                       4.8632751502E+00  2.5939879778E+00  4.8632751502E+00
                       7.1325623226E+00  4.8632751502E+00  4.8632751502E+00
                       2.5939879778E+00  4.8632751502E+00  4.8632751502E+00
                       3.7151996814E-18 -3.2584884048E-18  6.9680302722E-18
            xcart      4.5951290714E+00  4.5951290714E+00  4.5951290714E+00
                       1.3785387214E+01  1.3785387214E+01  1.3785387214E+01
                       9.1902581428E+00  1.3478589415E+01  9.1902581428E+00
                       9.1902581428E+00  9.1902581428E+00  4.9019268701E+00
                       9.1902581428E+00  9.1902581428E+00  1.3478589415E+01
                       9.1902581428E+00  4.9019268701E+00  9.1902581428E+00
                       1.3478589415E+01  9.1902581428E+00  9.1902581428E+00
                       4.9019268701E+00  9.1902581428E+00  9.1902581428E+00
                       7.0207099268E-18 -6.1576506922E-18  1.3167668900E-17
             xred      2.5000000000E-01  2.5000000000E-01  2.5000000000E-01
                       7.5000000000E-01  7.5000000000E-01  7.5000000000E-01
                       7.3330853204E-01  2.6669146796E-01  7.3330853204E-01
                       2.6669146796E-01  2.6669146796E-01  7.3330853204E-01
                       7.3330853204E-01  7.3330853204E-01  2.6669146796E-01
                       2.6669146796E-01  7.3330853204E-01  2.6669146796E-01
                       2.6669146796E-01  7.3330853204E-01  7.3330853204E-01
                       7.3330853204E-01  2.6669146796E-01  2.6669146796E-01
                      -5.8168762519E-22  1.4333672194E-18 -6.6943765204E-19
            znucl       55.00000   53.00000   72.00000

================================================================================


- Timing analysis has been suppressed with timopt=0



================================================================================

 Suggested references for the acknowledgment of ABINIT usage.

 The users of ABINIT have little formal obligations with respect to the ABINIT group
 (those specified in the GNU General Public License, http://www.gnu.org/copyleft/gpl.txt).
 However, it is common practice in the scientific literature,
 to acknowledge the efforts of people that have made the research possible.
 In this spirit, please find below suggested citations of work written by ABINIT developers,
 corresponding to implementations inside of ABINIT that you have used in the present run.
 Note also that it will be of great value to readers of publications presenting these results,
 to read papers enabling them to understand the theoretical formalism and details
 of the ABINIT implementation.
 For information on why they are suggested, see also https://docs.abinit.org/theory/acknowledgments.
-
- [1] Implementation of the Projector Augmented-Wave Method in the ABINIT code.
- M. Torrent, F. Jollet, F. Bottin, G. Zerah, and X. Gonze Comput. Mat. Science 42, 337, (2008).
- Comment: PAW calculations. Strong suggestion to cite this paper.
- DOI and bibtex: see https://docs.abinit.org/theory/bibliography/#torrent2008
-
- [2] Libxc: A library of exchange and correlation functionals for density functional theory.
- M.A.L. Marques, M.J.T. Oliveira, T. Burnus, Computer Physics Communications 183, 2227 (2012).
- Comment: to be cited when LibXC is used (negative value of ixc)
- Strong suggestion to cite this paper.
- DOI and bibtex: see https://docs.abinit.org/theory/bibliography/#marques2012
-
- [3] The Abinit project: Impact, environment and recent developments.
- Computer Phys. Comm. 248, 107042 (2020).
- X.Gonze, B. Amadon, G. Antonius, F.Arnardi, L.Baguet, J.-M.Beuken,
- J.Bieder, F.Bottin, J.Bouchet, E.Bousquet, N.Brouwer, F.Bruneval,
- G.Brunin, T.Cavignac, J.-B. Charraud, Wei Chen, M.Cote, S.Cottenier,
- J.Denier, G.Geneste, Ph.Ghosez, M.Giantomassi, Y.Gillet, O.Gingras,
- D.R.Hamann, G.Hautier, Xu He, N.Helbig, N.Holzwarth, Y.Jia, F.Jollet,
- W.Lafargue-Dit-Hauret, K.Lejaeghere, M.A.L.Marques, A.Martin, C.Martins,
- H.P.C. Miranda, F.Naccarato, K. Persson, G.Petretto, V.Planes, Y.Pouillon,
- S.Prokhorenko, F.Ricci, G.-M.Rignanese, A.H.Romero, M.M.Schmitt, M.Torrent,
- M.J.van Setten, B.Van Troeye, M.J.Verstraete, G.Zerah and J.W.Zwanzig
- Comment: the fifth generic paper describing the ABINIT project.
- Note that a version of this paper, that is not formatted for Computer Phys. Comm. 
- is available at https://www.abinit.org/sites/default/files/ABINIT20.pdf .
- The licence allows the authors to put it on the Web.
- DOI and bibtex: see https://docs.abinit.org/theory/bibliography/#gonze2020
-
- [4] ABINIT: Overview, and focus on selected capabilities
- J. Chem. Phys. 152, 124102 (2020).
- A. Romero, D.C. Allan, B. Amadon, G. Antonius, T. Applencourt, L.Baguet,
- J.Bieder, F.Bottin, J.Bouchet, E.Bousquet, F.Bruneval,
- G.Brunin, D.Caliste, M.Cote,
- J.Denier, C. Dreyer, Ph.Ghosez, M.Giantomassi, Y.Gillet, O.Gingras,
- D.R.Hamann, G.Hautier, F.Jollet, G. Jomard,
- A.Martin, 
- H.P.C. Miranda, F.Naccarato, G.Petretto, N.A. Pike, V.Planes,
- S.Prokhorenko, T. Rangel, F.Ricci, G.-M.Rignanese, M.Royo, M.Stengel, M.Torrent,
- M.J.van Setten, B.Van Troeye, M.J.Verstraete, J.Wiktor, J.W.Zwanziger, and X.Gonze.
- Comment: a global overview of ABINIT, with focus on selected capabilities .
- Note that a version of this paper, that is not formatted for J. Chem. Phys 
- is available at https://www.abinit.org/sites/default/files/ABINIT20_JPC.pdf .
- The licence allows the authors to put it on the Web.
- DOI and bibtex: see https://docs.abinit.org/theory/bibliography/#romero2020
-
- [5] Recent developments in the ABINIT software package.
- Computer Phys. Comm. 205, 106 (2016).
- X.Gonze, F.Jollet, F.Abreu Araujo, D.Adams, B.Amadon, T.Applencourt,
- C.Audouze, J.-M.Beuken, J.Bieder, A.Bokhanchuk, E.Bousquet, F.Bruneval
- D.Caliste, M.Cote, F.Dahm, F.Da Pieve, M.Delaveau, M.Di Gennaro,
- B.Dorado, C.Espejo, G.Geneste, L.Genovese, A.Gerossier, M.Giantomassi,
- Y.Gillet, D.R.Hamann, L.He, G.Jomard, J.Laflamme Janssen, S.Le Roux,
- A.Levitt, A.Lherbier, F.Liu, I.Lukacevic, A.Martin, C.Martins,
- M.J.T.Oliveira, S.Ponce, Y.Pouillon, T.Rangel, G.-M.Rignanese,
- A.H.Romero, B.Rousseau, O.Rubel, A.A.Shukri, M.Stankovski, M.Torrent,
- M.J.Van Setten, B.Van Troeye, M.J.Verstraete, D.Waroquier, J.Wiktor,
- B.Xu, A.Zhou, J.W.Zwanziger.
- Comment: the fourth generic paper describing the ABINIT project.
- Note that a version of this paper, that is not formatted for Computer Phys. Comm. 
- is available at https://www.abinit.org/sites/default/files/ABINIT16.pdf .
- The licence allows the authors to put it on the Web.
- DOI and bibtex: see https://docs.abinit.org/theory/bibliography/#gonze2016
-
- Proc.   0 individual time (sec): cpu=        591.9  wall=        591.9

================================================================================

 Calculation completed.
.Delivered   0 WARNINGs and   6 COMMENTs to log file.
+Overall time at end (sec) : cpu=       2367.2  wall=       2367.7
