
.Version 9.2.2 of ABINIT 
.(MPI version, prepared for a x86_64_linux_gnu9.3 computer) 

.Copyright (C) 1998-2020 ABINIT group . 
 ABINIT comes with ABSOLUTELY NO WARRANTY.
 It is free software, and you are welcome to redistribute it
 under certain conditions (GNU General Public License,
 see ~abinit/COPYING or http://www.gnu.org/copyleft/gpl.txt).

 ABINIT is a project of the Universite Catholique de Louvain,
 Corning Inc. and other collaborators, see ~abinit/doc/developers/contributors.txt .
 Please read https://docs.abinit.org/theory/acknowledgments for suggested
 acknowledgments of the ABINIT effort.
 For more information, see https://www.abinit.org .

.Starting date : Thu 15 Dec 2022.
- ( at 14h10 )
  
- The starting date is more than 2 years after the initial release
- of this version of ABINIT, namely Nov 2020.
- Note that the use beyond 3 years after the release will not be supported.
- Action: please, switch to a more recent version of ABINIT.

- input  file    -> Cs2TiI6.in
- output file    -> Cs2TiI6.out
- root for input  files -> Cs2TiI6i
- root for output files -> Cs2TiI6o

- inpspheads : Reading pseudopotential header in XML form from 
-   ../../../Psps_for_tests/ATOMICDATA/Cs.GGA_PBE-JTH.xml
- inpspheads : Reading pseudopotential header in XML form from 
-   ../../../Psps_for_tests/ATOMICDATA/I.GGA_PBE-JTH.xml
- inpspheads : Reading pseudopotential header in XML form from 
-   ../../../Psps_for_tests/ATOMICDATA/Zr.GGA_PBE-JTH.xml
- inpspheads : Reading pseudopotential header in XML form from 
-   ../../../Psps_for_tests/ATOMICDATA/Cl.GGA_PBE-JTH.xml

 DATASET    1 : space group I4 m m (#107); Bravais tI (body-center tetrag.)
================================================================================
 Values of the parameters that define the memory need for DATASET  1.
     intxc =       0    ionmov =       0      iscf =      17    lmnmax =      18
     lnmax =       6     mgfft =      54  mpssoang =       3    mqgrid =    3198
     natom =       9  nloc_mem =       2    nspden =       1   nspinor =       1
    nsppol =       1      nsym =       8    n1xccc =       1    ntypat =       4
    occopt =       1   xclevel =       2
-    mband =          42        mffmem =           1         mkmem =          41
       mpw =        5660          nfft =      157464          nkpt =         163
Pmy_natom=         3
 PAW method is used; the additional fine FFT grid is defined by:
   mgfftf=        80    nfftf =    512000
================================================================================
P This job should need less than                     319.535 Mbytes of memory.
  Rough estimation (10% accuracy) of disk space for files :
_ WF disk file :    591.255 Mbytes ; DEN or POT disk file :      3.908 Mbytes.
================================================================================


 DATASET    2 : space group I4 m m (#107); Bravais tI (body-center tetrag.)
================================================================================
 Values of the parameters that define the memory need for DATASET  2.
     intxc =       0    ionmov =       0      iscf =      17    lmnmax =      18
     lnmax =       6     mgfft =      54  mpssoang =       3    mqgrid =    3195
     natom =       9  nloc_mem =       2    nspden =       1   nspinor =       1
    nsppol =       1      nsym =       8    n1xccc =       1    ntypat =       4
    occopt =       1   xclevel =       2
-    mband =          42        mffmem =           1         mkmem =          41
       mpw =        5640          nfft =      157464          nkpt =         163
Pmy_natom=         3
 PAW method is used; the additional fine FFT grid is defined by:
   mgfftf=        80    nfftf =    512000
================================================================================
P This job should need less than                     318.956 Mbytes of memory.
  Rough estimation (10% accuracy) of disk space for files :
_ WF disk file :    589.166 Mbytes ; DEN or POT disk file :      3.908 Mbytes.
================================================================================


 DATASET    3 : space group I4 m m (#107); Bravais tI (body-center tetrag.)
================================================================================
 Values of the parameters that define the memory need for DATASET  3.
     intxc =       0    ionmov =       0      iscf =      17    lmnmax =      18
     lnmax =       6     mgfft =      54  mpssoang =       3    mqgrid =    3192
     natom =       9  nloc_mem =       2    nspden =       1   nspinor =       1
    nsppol =       1      nsym =       8    n1xccc =       1    ntypat =       4
    occopt =       1   xclevel =       2
-    mband =          42        mffmem =           1         mkmem =          41
       mpw =        5629          nfft =      157464          nkpt =         163
Pmy_natom=         3
 PAW method is used; the additional fine FFT grid is defined by:
   mgfftf=        80    nfftf =    512000
================================================================================
P This job should need less than                     318.644 Mbytes of memory.
  Rough estimation (10% accuracy) of disk space for files :
_ WF disk file :    588.017 Mbytes ; DEN or POT disk file :      3.908 Mbytes.
================================================================================


 DATASET    4 : space group I4 m m (#107); Bravais tI (body-center tetrag.)
================================================================================
 Values of the parameters that define the memory need for DATASET  4.
     intxc =       0    ionmov =       0      iscf =      17    lmnmax =      18
     lnmax =       6     mgfft =      54  mpssoang =       3    mqgrid =    3189
     natom =       9  nloc_mem =       2    nspden =       1   nspinor =       1
    nsppol =       1      nsym =       8    n1xccc =       1    ntypat =       4
    occopt =       1   xclevel =       2
-    mband =          42        mffmem =           1         mkmem =          41
       mpw =        5609          nfft =      157464          nkpt =         163
Pmy_natom=         3
 PAW method is used; the additional fine FFT grid is defined by:
   mgfftf=        80    nfftf =    512000
================================================================================
P This job should need less than                     318.065 Mbytes of memory.
  Rough estimation (10% accuracy) of disk space for files :
_ WF disk file :    585.928 Mbytes ; DEN or POT disk file :      3.908 Mbytes.
================================================================================


 DATASET    5 : space group I4 m m (#107); Bravais tI (body-center tetrag.)
================================================================================
 Values of the parameters that define the memory need for DATASET  5.
     intxc =       0    ionmov =       0      iscf =      17    lmnmax =      18
     lnmax =       6     mgfft =      54  mpssoang =       3    mqgrid =    3185
     natom =       9  nloc_mem =       2    nspden =       1   nspinor =       1
    nsppol =       1      nsym =       8    n1xccc =       1    ntypat =       4
    occopt =       1   xclevel =       2
-    mband =          42        mffmem =           1         mkmem =          41
       mpw =        5596          nfft =      157464          nkpt =         163
Pmy_natom=         3
 PAW method is used; the additional fine FFT grid is defined by:
   mgfftf=        80    nfftf =    512000
================================================================================
P This job should need less than                     317.694 Mbytes of memory.
  Rough estimation (10% accuracy) of disk space for files :
_ WF disk file :    584.570 Mbytes ; DEN or POT disk file :      3.908 Mbytes.
================================================================================


 DATASET    6 : space group I4 m m (#107); Bravais tI (body-center tetrag.)
================================================================================
 Values of the parameters that define the memory need for DATASET  6.
     intxc =       0    ionmov =       0      iscf =      17    lmnmax =      18
     lnmax =       6     mgfft =      50  mpssoang =       3    mqgrid =    3182
     natom =       9  nloc_mem =       2    nspden =       1   nspinor =       1
    nsppol =       1      nsym =       8    n1xccc =       1    ntypat =       4
    occopt =       1   xclevel =       2
-    mband =          42        mffmem =           1         mkmem =          41
       mpw =        5580          nfft =      125000          nkpt =         163
Pmy_natom=         3
 PAW method is used; the additional fine FFT grid is defined by:
   mgfftf=        80    nfftf =    512000
================================================================================
P This job should need less than                     312.401 Mbytes of memory.
  Rough estimation (10% accuracy) of disk space for files :
_ WF disk file :    582.898 Mbytes ; DEN or POT disk file :      3.908 Mbytes.
================================================================================


 DATASET    7 : space group I4 m m (#107); Bravais tI (body-center tetrag.)
================================================================================
 Values of the parameters that define the memory need for DATASET  7.
     intxc =       0    ionmov =       0      iscf =      17    lmnmax =      18
     lnmax =       6     mgfft =      50  mpssoang =       3    mqgrid =    3179
     natom =       9  nloc_mem =       2    nspden =       1   nspinor =       1
    nsppol =       1      nsym =       8    n1xccc =       1    ntypat =       4
    occopt =       1   xclevel =       2
-    mband =          42        mffmem =           1         mkmem =          41
       mpw =        5563          nfft =      125000          nkpt =         163
Pmy_natom=         3
 PAW method is used; the additional fine FFT grid is defined by:
   mgfftf=        80    nfftf =    512000
================================================================================
P This job should need less than                     311.911 Mbytes of memory.
  Rough estimation (10% accuracy) of disk space for files :
_ WF disk file :    581.122 Mbytes ; DEN or POT disk file :      3.908 Mbytes.
================================================================================


 DATASET    8 : space group I4 m m (#107); Bravais tI (body-center tetrag.)
================================================================================
 Values of the parameters that define the memory need for DATASET  8.
     intxc =       0    ionmov =       0      iscf =      17    lmnmax =      18
     lnmax =       6     mgfft =      50  mpssoang =       3    mqgrid =    3176
     natom =       9  nloc_mem =       2    nspden =       1   nspinor =       1
    nsppol =       1      nsym =       8    n1xccc =       1    ntypat =       4
    occopt =       1   xclevel =       2
-    mband =          42        mffmem =           1         mkmem =          41
       mpw =        5542          nfft =      125000          nkpt =         163
Pmy_natom=         3
 PAW method is used; the additional fine FFT grid is defined by:
   mgfftf=        80    nfftf =    512000
================================================================================
P This job should need less than                     311.304 Mbytes of memory.
  Rough estimation (10% accuracy) of disk space for files :
_ WF disk file :    578.929 Mbytes ; DEN or POT disk file :      3.908 Mbytes.
================================================================================


 DATASET    9 : space group I4 m m (#107); Bravais tI (body-center tetrag.)
================================================================================
 Values of the parameters that define the memory need for DATASET  9.
     intxc =       0    ionmov =       0      iscf =      17    lmnmax =      18
     lnmax =       6     mgfft =      50  mpssoang =       3    mqgrid =    3173
     natom =       9  nloc_mem =       2    nspden =       1   nspinor =       1
    nsppol =       1      nsym =       8    n1xccc =       1    ntypat =       4
    occopt =       1   xclevel =       2
-    mband =          42        mffmem =           1         mkmem =          41
       mpw =        5529          nfft =      125000          nkpt =         163
Pmy_natom=         3
 PAW method is used; the additional fine FFT grid is defined by:
   mgfftf=        80    nfftf =    512000
================================================================================
P This job should need less than                     310.933 Mbytes of memory.
  Rough estimation (10% accuracy) of disk space for files :
_ WF disk file :    577.571 Mbytes ; DEN or POT disk file :      3.908 Mbytes.
================================================================================


 DATASET   10 : space group I4 m m (#107); Bravais tI (body-center tetrag.)
================================================================================
 Values of the parameters that define the memory need for DATASET 10.
     intxc =       0    ionmov =       0      iscf =      17    lmnmax =      18
     lnmax =       6     mgfft =      50  mpssoang =       3    mqgrid =    3169
     natom =       9  nloc_mem =       2    nspden =       1   nspinor =       1
    nsppol =       1      nsym =       8    n1xccc =       1    ntypat =       4
    occopt =       1   xclevel =       2
-    mband =          42        mffmem =           1         mkmem =          41
       mpw =        5521          nfft =      125000          nkpt =         163
Pmy_natom=         3
 PAW method is used; the additional fine FFT grid is defined by:
   mgfftf=        80    nfftf =    512000
================================================================================
P This job should need less than                     310.709 Mbytes of memory.
  Rough estimation (10% accuracy) of disk space for files :
_ WF disk file :    576.735 Mbytes ; DEN or POT disk file :      3.908 Mbytes.
================================================================================

--------------------------------------------------------------------------------
------------- Echo of variables that govern the present computation ------------
--------------------------------------------------------------------------------
-
- outvars: echo of selected default values                                      
-   iomode0 =  0 , fftalg0 =112 , wfoptalg0 = 10
-
- outvars: echo of global parameters not present in the input file              
-  max_nthreads =    0
-
 -outvars: echo values of preprocessed input variables --------
            acell1     1.3674972193E+01  1.3674972193E+01  1.3946557491E+01 Bohr
            acell2     1.3661227073E+01  1.3661227073E+01  1.3932727896E+01 Bohr
            acell3     1.3647507417E+01  1.3647507417E+01  1.3918839260E+01 Bohr
            acell4     1.3633799378E+01  1.3633799378E+01  1.3904923682E+01 Bohr
            acell5     1.3620012417E+01  1.3620012417E+01  1.3891191170E+01 Bohr
            acell6     1.3606267608E+01  1.3606267608E+01  1.3877360906E+01 Bohr
            acell7     1.3592629100E+01  1.3592629100E+01  1.3863284041E+01 Bohr
            acell8     1.3578899383E+01  1.3578899383E+01  1.3849418766E+01 Bohr
            acell9     1.3565339857E+01  1.3565339857E+01  1.3835158704E+01 Bohr
            acell10    1.3551704680E+01  1.3551704680E+01  1.3821074147E+01 Bohr
              amu      1.32905430E+02  1.26904470E+02  9.12240000E+01
                       3.54527000E+01
           diemac      1.20000000E+01
             ecut      1.60000000E+01 Hartree
-          fftalg         112
           istwfk        2    0    0    0    0    0    3    0    0    0
                         0    0    0    0    0    0    0    0    0    0
                         0    0    0    0    0    0    0    0    0    0
                         0    0    0    0    0    0    0    0    0    0
                         0    0    7    0    0    0    0    0    0    0
                       outvar_i_n : Printing only first  50 k-points.
              ixc     -101130
           jdtset        1    2    3    4    5    6    7    8    9   10
              kpt      0.00000000E+00  0.00000000E+00  0.00000000E+00
                       8.33333333E-02  0.00000000E+00  0.00000000E+00
                       1.66666667E-01  0.00000000E+00  0.00000000E+00
                       2.50000000E-01  0.00000000E+00  0.00000000E+00
                       3.33333333E-01  0.00000000E+00  0.00000000E+00
                       4.16666667E-01  0.00000000E+00  0.00000000E+00
                       5.00000000E-01  0.00000000E+00  0.00000000E+00
                       8.33333333E-02  8.33333333E-02  0.00000000E+00
                       1.66666667E-01  8.33333333E-02  0.00000000E+00
                       2.50000000E-01  8.33333333E-02  0.00000000E+00
                       3.33333333E-01  8.33333333E-02  0.00000000E+00
                       4.16666667E-01  8.33333333E-02  0.00000000E+00
                       5.00000000E-01  8.33333333E-02  0.00000000E+00
                      -4.16666667E-01  8.33333333E-02  0.00000000E+00
                      -3.33333333E-01  8.33333333E-02  0.00000000E+00
                      -2.50000000E-01  8.33333333E-02  0.00000000E+00
                      -1.66666667E-01  8.33333333E-02  0.00000000E+00
                      -8.33333333E-02  8.33333333E-02  0.00000000E+00
                       1.66666667E-01  1.66666667E-01  0.00000000E+00
                       2.50000000E-01  1.66666667E-01  0.00000000E+00
                       3.33333333E-01  1.66666667E-01  0.00000000E+00
                       4.16666667E-01  1.66666667E-01  0.00000000E+00
                       5.00000000E-01  1.66666667E-01  0.00000000E+00
                      -4.16666667E-01  1.66666667E-01  0.00000000E+00
                      -3.33333333E-01  1.66666667E-01  0.00000000E+00
                      -2.50000000E-01  1.66666667E-01  0.00000000E+00
                      -1.66666667E-01  1.66666667E-01  0.00000000E+00
                       2.50000000E-01  2.50000000E-01  0.00000000E+00
                       3.33333333E-01  2.50000000E-01  0.00000000E+00
                       4.16666667E-01  2.50000000E-01  0.00000000E+00
                       5.00000000E-01  2.50000000E-01  0.00000000E+00
                      -4.16666667E-01  2.50000000E-01  0.00000000E+00
                      -3.33333333E-01  2.50000000E-01  0.00000000E+00
                      -2.50000000E-01  2.50000000E-01  0.00000000E+00
                       3.33333333E-01  3.33333333E-01  0.00000000E+00
                       4.16666667E-01  3.33333333E-01  0.00000000E+00
                       5.00000000E-01  3.33333333E-01  0.00000000E+00
                      -4.16666667E-01  3.33333333E-01  0.00000000E+00
                      -3.33333333E-01  3.33333333E-01  0.00000000E+00
                       4.16666667E-01  4.16666667E-01  0.00000000E+00
                       5.00000000E-01  4.16666667E-01  0.00000000E+00
                      -4.16666667E-01  4.16666667E-01  0.00000000E+00
                       5.00000000E-01  5.00000000E-01  0.00000000E+00
                       8.33333333E-02  0.00000000E+00  8.33333333E-02
                       1.66666667E-01  0.00000000E+00  8.33333333E-02
                       2.50000000E-01  0.00000000E+00  8.33333333E-02
                       3.33333333E-01  0.00000000E+00  8.33333333E-02
                       4.16666667E-01  0.00000000E+00  8.33333333E-02
                       5.00000000E-01  0.00000000E+00  8.33333333E-02
                      -4.16666667E-01  0.00000000E+00  8.33333333E-02
                       outvar_i_n : Printing only first  50 k-points.
         kptrlatt       12    0    0      0   12    0      0    0   12
          kptrlen1     1.64099666E+02
          kptrlen2     1.63934725E+02
          kptrlen3     1.63770089E+02
          kptrlen4     1.63605593E+02
          kptrlen5     1.63440149E+02
          kptrlen6     1.63275211E+02
          kptrlen7     1.63111549E+02
          kptrlen8     1.62946793E+02
          kptrlen9     1.62784078E+02
          kptrlen10    1.62620456E+02
P           mkmem          41
            natom           9
            nband          42
           ndtset          10
            ngfft1         54      54      54
            ngfft2         54      54      54
            ngfft3         54      54      54
            ngfft4         54      54      54
            ngfft5         54      54      54
            ngfft6         50      50      50
            ngfft7         50      50      50
            ngfft8         50      50      50
            ngfft9         50      50      50
            ngfft10        50      50      50
          ngfftdg          80      80      80
             nkpt         163
            nstep        2500
             nsym           8
           ntypat           4
              occ      2.000000  2.000000  2.000000  2.000000  2.000000  2.000000
                       2.000000  2.000000  2.000000  2.000000  2.000000  2.000000
                       2.000000  2.000000  2.000000  2.000000  2.000000  2.000000
                       2.000000  2.000000  2.000000  2.000000  2.000000  2.000000
                       2.000000  2.000000  2.000000  2.000000  2.000000  2.000000
                       2.000000  2.000000  2.000000  2.000000  2.000000  2.000000
                       0.000000  0.000000  0.000000  0.000000  0.000000  0.000000
        pawecutdg      4.00000000E+01 Hartree
            prtwf           0
            rprim1     0.0000000000E+00  7.2114993994E-01  6.9277901536E-01
                       7.2114993994E-01  0.0000000000E+00  6.9277901536E-01
                       7.0710678119E-01  7.0710678119E-01  0.0000000000E+00
            rprim2     0.0000000000E+00  7.2115969691E-01  6.9276885868E-01
                       7.2115969691E-01  0.0000000000E+00  6.9276885868E-01
                       7.0710678119E-01  7.0710678119E-01  0.0000000000E+00
            rprim3     0.0000000000E+00  7.2116506891E-01  6.9276326648E-01
                       7.2116506891E-01  0.0000000000E+00  6.9276326648E-01
                       7.0710678119E-01  7.0710678119E-01  0.0000000000E+00
            rprim4     0.0000000000E+00  7.2116843988E-01  6.9275975729E-01
                       7.2116843988E-01  0.0000000000E+00  6.9275975729E-01
                       7.0710678119E-01  7.0710678119E-01  0.0000000000E+00
            rprim5     0.0000000000E+00  7.2118550075E-01  6.9274199635E-01
                       7.2118550075E-01  0.0000000000E+00  6.9274199635E-01
                       7.0710678119E-01  7.0710678119E-01  0.0000000000E+00
            rprim6     0.0000000000E+00  7.2119528179E-01  6.9273181356E-01
                       7.2119528179E-01  0.0000000000E+00  6.9273181356E-01
                       7.0710678119E-01  7.0710678119E-01  0.0000000000E+00
            rprim7     0.0000000000E+00  7.2118661391E-01  6.9274083749E-01
                       7.2118661391E-01  0.0000000000E+00  6.9274083749E-01
                       7.0710678119E-01  7.0710678119E-01  0.0000000000E+00
            rprim8     0.0000000000E+00  7.2119379113E-01  6.9273336547E-01
                       7.2119379113E-01  0.0000000000E+00  6.9273336547E-01
                       7.0710678119E-01  7.0710678119E-01  0.0000000000E+00
            rprim9     0.0000000000E+00  7.2117135596E-01  6.9275672162E-01
                       7.2117135596E-01  0.0000000000E+00  6.9275672162E-01
                       7.0710678119E-01  7.0710678119E-01  0.0000000000E+00
            rprim10    0.0000000000E+00  7.2116205921E-01  6.9276639956E-01
                       7.2116205921E-01  0.0000000000E+00  6.9276639956E-01
                       7.0710678119E-01  7.0710678119E-01  0.0000000000E+00
          spgroup         107
           symrel      1  0  0   0  1  0   0  0  1       1  0 -1   0  1 -1   0  0 -1
                       0  1 -1   1  0 -1   0  0 -1       0  1  0   1  0  0   0  0  1
                       1  0  0   1  0 -1   1 -1  0       0  1  0   0  1 -1  -1  1  0
                       0  1 -1   0  1  0  -1  1  0       1  0 -1   1  0  0   1 -1  0
           toldfe      1.00000000E-08 Hartree
            typat      1  1  2  4  4  4  4  4  3
           useylm           1
              wtk        0.00058    0.00463    0.00463    0.00463    0.00463    0.00463
                         0.00231    0.00116    0.00463    0.00463    0.00463    0.00463
                         0.00463    0.00463    0.00463    0.00463    0.00463    0.00231
                         0.00116    0.00463    0.00463    0.00463    0.00463    0.00463
                         0.00463    0.00463    0.00231    0.00116    0.00463    0.00463
                         0.00463    0.00463    0.00463    0.00231    0.00116    0.00463
                         0.00463    0.00463    0.00231    0.00116    0.00463    0.00231
                         0.00058    0.00231    0.00926    0.00926    0.00926    0.00926
                         0.00926    0.00926
                       outvars : Printing only first  50 k-points.
           xangst1     2.6092948614E+00  2.6092948614E+00  2.4516301577E+00
                       7.8278845841E+00  7.8278845841E+00  7.4649141496E+00
                       5.2185897228E+00  5.2185897228E+00  2.7633686052E+00
                       5.2185897227E+00  5.2185897227E+00  7.4849194732E+00
                       7.9745752157E+00  5.2185897228E+00  5.0069600676E+00
                       5.2185897228E+00  7.9745752157E+00  5.0069600676E+00
                       5.2185897227E+00  2.4626042299E+00  5.0069600676E+00
                       2.4626042299E+00  5.2185897227E+00  5.0069600676E+00
                       2.1850325334E-12  2.1850325334E-12 -8.6400721581E-02
           xangst2     2.6067074493E+00  2.6067074493E+00  2.4494543337E+00
                       7.8201223480E+00  7.8201223480E+00  7.4576259004E+00
                       5.2134148987E+00  5.2134148987E+00  2.7616384297E+00
                       5.2134148986E+00  5.2134148986E+00  7.4747033423E+00
                       7.9645923253E+00  5.2134148987E+00  5.0021575641E+00
                       5.2134148987E+00  7.9645923253E+00  5.0021575641E+00
                       5.2134148986E+00  2.4622374720E+00  5.0021575641E+00
                       2.4622374720E+00  5.2134148986E+00  5.0021575641E+00
                       1.6179694976E-12  1.6179694976E-12 -8.6679728767E-02
           xangst3     2.6041089912E+00  2.6041089912E+00  2.4475096907E+00
                       7.8123269735E+00  7.8123269735E+00  7.4506112794E+00
                       5.2082179823E+00  5.2082179823E+00  2.7599628194E+00
                       5.2082179823E+00  5.2082179823E+00  7.4644778122E+00
                       7.9546844288E+00  5.2082179823E+00  4.9973251596E+00
                       5.2082179823E+00  7.9546844288E+00  4.9973251596E+00
                       5.2082179823E+00  2.4617515358E+00  4.9973251596E+00
                       2.4617515358E+00  5.2082179823E+00  4.9973251596E+00
                       9.6244519004E-13  9.6244519004E-13 -8.7049531148E-02
           xangst4     2.6015054923E+00  2.6015054923E+00  2.4453763978E+00
                       7.8045164769E+00  7.8045164769E+00  7.4434273765E+00
                       5.2030109846E+00  5.2030109846E+00  2.7582918214E+00
                       5.2030109845E+00  5.2030109845E+00  7.4544086232E+00
                       7.9447229695E+00  5.2030109846E+00  4.9925631024E+00
                       5.2030109846E+00  7.9447229695E+00  4.9925631024E+00
                       5.2030109845E+00  2.4612989997E+00  4.9925631024E+00
                       2.4612989997E+00  5.2030109845E+00  4.9925631024E+00
                       1.8609684820E-12  1.8609684820E-12 -8.7348798609E-02
           xangst5     2.5989362438E+00  2.5989362438E+00  2.4431751528E+00
                       7.7968087313E+00  7.7968087313E+00  7.4360439224E+00
                       5.1978724876E+00  5.1978724876E+00  2.7566347046E+00
                       5.1978724876E+00  5.1978724876E+00  7.4440557760E+00
                       7.9348957046E+00  5.1978724875E+00  4.9876668391E+00
                       5.1978724875E+00  7.9348957046E+00  4.9876668391E+00
                       5.1978724876E+00  2.4608492705E+00  4.9876668391E+00
                       2.4608492705E+00  5.1978724876E+00  4.9876668391E+00
                      -2.8656416007E-13 -2.8656416007E-13 -8.7626754874E-02
           xangst6     2.5963487065E+00  2.5963487065E+00  2.4408588981E+00
                       7.7890461196E+00  7.7890461196E+00  7.4286157333E+00
                       5.1926974131E+00  5.1926974131E+00  2.7549922121E+00
                       5.1926974131E+00  5.1926974131E+00  7.4339603058E+00
                       7.9250029481E+00  5.1926974131E+00  4.9828677966E+00
                       5.1926974131E+00  7.9250029481E+00  4.9828677966E+00
                       5.1926974131E+00  2.4603918780E+00  4.9828677966E+00
                       2.4603918780E+00  5.1926974131E+00  4.9828677966E+00
                      -3.7777323879E-14 -3.7777323879E-14 -8.7843654061E-02
           xangst7     2.5937150321E+00  2.5937150321E+00  2.4386875465E+00
                       7.7811450963E+00  7.7811450963E+00  7.4215097145E+00
                       5.1874300642E+00  5.1874300642E+00  2.7533262310E+00
                       5.1874300642E+00  5.1874300642E+00  7.4242097150E+00
                       7.9149373939E+00  5.1874300642E+00  4.9782328721E+00
                       5.1874300642E+00  7.9149373939E+00  4.9782328721E+00
                       5.1874300642E+00  2.4599227345E+00  4.9782328721E+00
                       2.4599227345E+00  5.1874300642E+00  4.9782328721E+00
                       8.9187479964E-13  8.9187479964E-13 -8.8087350816E-02
           xangst8     2.5911209447E+00  2.5911209447E+00  2.4364554987E+00
                       7.7733628340E+00  7.7733628340E+00  7.4141908992E+00
                       5.1822418893E+00  5.1822418893E+00  2.7516313167E+00
                       5.1822418894E+00  5.1822418894E+00  7.4141897494E+00
                       7.9050213641E+00  5.1822418893E+00  4.9734341386E+00
                       5.1822418893E+00  7.9050213641E+00  4.9734341386E+00
                       5.1822418894E+00  2.4594624145E+00  4.9734341386E+00
                       2.4594624145E+00  5.1822418894E+00  4.9734341386E+00
                      -1.9714965207E-12 -1.9714965207E-12 -8.8320813970E-02
           xangst9     2.5884529955E+00  2.5884529955E+00  2.4343624271E+00
                       7.7653589864E+00  7.7653589864E+00  7.4072948554E+00
                       5.1769059909E+00  5.1769059909E+00  2.7499966453E+00
                       5.1769059910E+00  5.1769059910E+00  7.4046691761E+00
                       7.8947979499E+00  5.1769059909E+00  4.9689229038E+00
                       5.1769059909E+00  7.8947979499E+00  4.9689229038E+00
                       5.1769059910E+00  2.4590140320E+00  4.9689229038E+00
                       2.4590140320E+00  5.1769059910E+00  4.9689229038E+00
                      -1.3789704676E-12 -1.3789704676E-12 -8.8555291829E-02
           xangst10    2.5858178819E+00  2.5858178819E+00  2.4322567206E+00
                       7.7574536458E+00  7.7574536458E+00  7.4002600179E+00
                       5.1716357639E+00  5.1716357639E+00  2.7482906224E+00
                       5.1716357639E+00  5.1716357639E+00  7.3948563823E+00
                       7.8847230748E+00  5.1716357638E+00  4.9643034307E+00
                       5.1716357638E+00  7.8847230748E+00  4.9643034307E+00
                       5.1716357639E+00  2.4585484530E+00  4.9643034307E+00
                       2.4585484530E+00  5.1716357639E+00  4.9643034307E+00
                      -7.6233713869E-13 -7.6233713869E-13 -8.8851087774E-02
            xcart1     4.9308526880E+00  4.9308526880E+00  4.6329095772E+00
                       1.4792558064E+01  1.4792558064E+01  1.4106643348E+01
                       9.8617053760E+00  9.8617053760E+00  5.2220098681E+00
                       9.8617053758E+00  9.8617053758E+00  1.4144447931E+01
                       1.5069763184E+01  9.8617053760E+00  9.4617832861E+00
                       9.8617053760E+00  1.5069763184E+01  9.4617832861E+00
                       9.8617053758E+00  4.6536475681E+00  9.4617832861E+00
                       4.6536475681E+00  9.8617053758E+00  9.4617832861E+00
                       4.1291130796E-12  4.1291130796E-12 -1.6327370147E-01
            xcart2     4.9259631878E+00  4.9259631878E+00  4.6287978657E+00
                       1.4777889563E+01  1.4777889563E+01  1.4092870553E+01
                       9.8519263756E+00  9.8519263756E+00  5.2187403101E+00
                       9.8519263755E+00  9.8519263755E+00  1.4125142242E+01
                       1.5050898255E+01  9.8519263757E+00  9.4527078696E+00
                       9.8519263757E+00  1.5050898255E+01  9.4527078696E+00
                       9.8519263755E+00  4.6529544962E+00  9.4527078696E+00
                       4.6529544962E+00  9.8519263755E+00  9.4527078696E+00
                       3.0575192418E-12  3.0575192418E-12 -1.6380094864E-01
            xcart3     4.9210528135E+00  4.9210528135E+00  4.6251230231E+00
                       1.4763158440E+01  1.4763158440E+01  1.4079614841E+01
                       9.8421056270E+00  9.8421056270E+00  5.2155738656E+00
                       9.8421056269E+00  9.8421056269E+00  1.4105818790E+01
                       1.5032175044E+01  9.8421056270E+00  9.4435759487E+00
                       9.8421056270E+00  1.5032175044E+01  9.4435759487E+00
                       9.8421056269E+00  4.6520362100E+00  9.4435759487E+00
                       4.6520362100E+00  9.8421056269E+00  9.4435759487E+00
                       1.8187578271E-12  1.8187578271E-12 -1.6449977387E-01
            xcart4     4.9161329136E+00  4.9161329136E+00  4.6210916836E+00
                       1.4748398741E+01  1.4748398741E+01  1.4066039232E+01
                       9.8322658274E+00  9.8322658274E+00  5.2124161371E+00
                       9.8322658272E+00  9.8322658272E+00  1.4086790781E+01
                       1.5013350614E+01  9.8322658274E+00  9.4345769648E+00
                       9.8322658274E+00  1.5013350614E+01  9.4345769648E+00
                       9.8322658272E+00  4.6511810405E+00  9.4345769648E+00
                       4.6511810405E+00  9.8322658272E+00  9.4345769648E+00
                       3.5167207729E-12  3.5167207729E-12 -1.6506530741E-01
            xcart5     4.9112777376E+00  4.9112777376E+00  4.6169319334E+00
                       1.4733833213E+01  1.4733833213E+01  1.4052086526E+01
                       9.8225554751E+00  9.8225554751E+00  5.2092846401E+00
                       9.8225554752E+00  9.8225554752E+00  1.4067226735E+01
                       1.4994779775E+01  9.8225554751E+00  9.4253243679E+00
                       9.8225554751E+00  1.4994779775E+01  9.4253243679E+00
                       9.8225554752E+00  4.6503311756E+00  9.4253243679E+00
                       4.6503311756E+00  9.8225554752E+00  9.4253243679E+00
                      -5.4152778203E-13 -5.4152778203E-13 -1.6559056863E-01
            xcart6     4.9063880008E+00  4.9063880008E+00  4.6125548464E+00
                       1.4719164002E+01  1.4719164002E+01  1.4038049282E+01
                       9.8127760017E+00  9.8127760017E+00  5.2061807791E+00
                       9.8127760017E+00  9.8127760017E+00  1.4048149061E+01
                       1.4976085174E+01  9.8127760017E+00  9.4162554919E+00
                       9.8127760017E+00  1.4976085174E+01  9.4162554919E+00
                       9.8127760017E+00  4.6494668290E+00  9.4162554919E+00
                       4.6494668290E+00  9.8127760017E+00  9.4162554919E+00
                      -7.1388796164E-14 -7.1388796164E-14 -1.6600044869E-01
            xcart7     4.9014110774E+00  4.9014110774E+00  4.6084515865E+00
                       1.4704233232E+01  1.4704233232E+01  1.4024620853E+01
                       9.8028221549E+00  9.8028221549E+00  5.2030325310E+00
                       9.8028221548E+00  9.8028221548E+00  1.4029723114E+01
                       1.4957064033E+01  9.8028221549E+00  9.4074967539E+00
                       9.8028221549E+00  1.4957064033E+01  9.4074967539E+00
                       9.8028221548E+00  4.6485802763E+00  9.4074967539E+00
                       4.6485802763E+00  9.8028221548E+00  9.4074967539E+00
                       1.6853991161E-12  1.6853991161E-12 -1.6646096881E-01
            xcart8     4.8965089626E+00  4.8965089626E+00  4.6042336275E+00
                       1.4689526888E+01  1.4689526888E+01  1.4010790296E+01
                       9.7930179251E+00  9.7930179251E+00  5.1998296073E+00
                       9.7930179253E+00  9.7930179253E+00  1.4010788124E+01
                       1.4938325453E+01  9.7930179251E+00  9.3984284618E+00
                       9.7930179251E+00  1.4938325453E+01  9.3984284618E+00
                       9.7930179253E+00  4.6477103976E+00  9.3984284618E+00
                       4.6477103976E+00  9.7930179253E+00  9.3984284618E+00
                      -3.7255884960E-12 -3.7255884960E-12 -1.6690215024E-01
            xcart9     4.8914672693E+00  4.8914672693E+00  4.6002782953E+00
                       1.4674401808E+01  1.4674401808E+01  1.3997758662E+01
                       9.7829345385E+00  9.7829345385E+00  5.1967405260E+00
                       9.7829345387E+00  9.7829345387E+00  1.3992796847E+01
                       1.4919006000E+01  9.7829345385E+00  9.3899034636E+00
                       9.7829345385E+00  1.4919006000E+01  9.3899034636E+00
                       9.7829345387E+00  4.6468630774E+00  9.3899034636E+00
                       4.6468630774E+00  9.7829345387E+00  9.3899034636E+00
                      -2.6058765291E-12 -2.6058765291E-12 -1.6734524917E-01
            xcart10    4.8864876264E+00  4.8864876264E+00  4.5962990868E+00
                       1.4659462879E+01  1.4659462879E+01  1.3984464746E+01
                       9.7729752527E+00  9.7729752527E+00  5.1935166100E+00
                       9.7729752528E+00  9.7729752528E+00  1.3974253355E+01
                       1.4899967245E+01  9.7729752527E+00  9.3811739246E+00
                       9.7729752527E+00  1.4899967245E+01  9.3811739246E+00
                       9.7729752528E+00  4.6459832606E+00  9.3811739246E+00
                       4.6459832606E+00  9.7729752528E+00  9.3811739246E+00
                      -1.4406084131E-12 -1.4406084131E-12 -1.6790422250E-01
             xred1     2.4451339299E-01  2.4451339299E-01  2.5548660701E-01
                       7.4451339299E-01  7.4451339299E-01  7.5548660701E-01
                       2.7560463458E-01  2.7560463458E-01  7.2439536542E-01
                       7.4650862443E-01  7.4650862443E-01  2.5349137557E-01
                       2.3531465938E-01  7.6342390715E-01  7.6468534062E-01
                       7.6342390715E-01  2.3531465938E-01  7.6468534062E-01
                       2.3531465938E-01  7.6342390715E-01  2.3657609285E-01
                       7.6342390715E-01  2.3531465938E-01  2.3657609285E-01
                      -8.6171780535E-03 -8.6171780535E-03  8.6171780535E-03
             xred2     2.4454576896E-01  2.4454576896E-01  2.5545423104E-01
                       7.4454576896E-01  7.4454576896E-01  7.5545423104E-01
                       2.7571324114E-01  2.7571324114E-01  7.2428675886E-01
                       7.4625072672E-01  7.4625072672E-01  2.5374927328E-01
                       2.3554398155E-01  7.6325518047E-01  7.6445601845E-01
                       7.6325518047E-01  2.3554398155E-01  7.6445601845E-01
                       2.3554398155E-01  7.6325518047E-01  2.3674481953E-01
                       7.6325518047E-01  2.3554398155E-01  2.3674481953E-01
                      -8.6538298072E-03 -8.6538298072E-03  8.6538298072E-03
             xred3     2.4459923983E-01  2.4459923983E-01  2.5540076017E-01
                       7.4459923983E-01  7.4459923983E-01  7.5540076017E-01
                       2.7582518269E-01  2.7582518269E-01  7.2417481731E-01
                       7.4598503348E-01  7.4598503348E-01  2.5401496652E-01
                       2.3575609681E-01  7.6308933359E-01  7.6424390319E-01
                       7.6308933359E-01  2.3575609681E-01  7.6424390319E-01
                       2.3575609681E-01  7.6308933359E-01  2.3691066641E-01
                       7.6308933359E-01  2.3575609681E-01  2.3691066641E-01
                      -8.6995566256E-03 -8.6995566256E-03  8.6995566256E-03
             xred4     2.4463299876E-01  2.4463299876E-01  2.5536700124E-01
                       7.4463299876E-01  7.4463299876E-01  7.5536700124E-01
                       2.7593674346E-01  2.7593674346E-01  7.2406325654E-01
                       7.4573155165E-01  7.4573155165E-01  2.5426844835E-01
                       2.3597740653E-01  7.6292459020E-01  7.6402259347E-01
                       7.6292459020E-01  2.3597740653E-01  7.6402259347E-01
                       2.3597740653E-01  7.6292459020E-01  2.3707540980E-01
                       7.6292459020E-01  2.3597740653E-01  2.3707540980E-01
                      -8.7382860819E-03 -8.7382860819E-03  8.7382860819E-03
             xred5     2.4466646987E-01  2.4466646987E-01  2.5533353013E-01
                       7.4466646987E-01  7.4466646987E-01  7.5533353013E-01
                       2.7605719595E-01  2.7605719595E-01  7.2394280405E-01
                       7.4546879955E-01  7.4546879955E-01  2.5453120045E-01
                       2.3619603580E-01  7.6276209212E-01  7.6380396420E-01
                       7.6276209212E-01  2.3619603580E-01  7.6380396420E-01
                       2.3619603580E-01  7.6276209212E-01  2.3723790788E-01
                       7.6276209212E-01  2.3619603580E-01  2.3723790788E-01
                      -8.7751910692E-03 -8.7751910692E-03  8.7751910692E-03
             xred6     2.4468503365E-01  2.4468503365E-01  2.5531496635E-01
                       7.4468503365E-01  7.4468503365E-01  7.5531496635E-01
                       2.7617547358E-01  2.7617547358E-01  7.2382452642E-01
                       7.4522080281E-01  7.4522080281E-01  2.5477919719E-01
                       2.3641873960E-01  7.6260105251E-01  7.6358126040E-01
                       7.6260105251E-01  2.3641873960E-01  7.6358126040E-01
                       2.3641873960E-01  7.6260105251E-01  2.3739894749E-01
                       7.6260105251E-01  2.3641873960E-01  2.3739894749E-01
                      -8.8059278915E-03 -8.8059278915E-03  8.8059278915E-03
             xred7     2.4470947028E-01  2.4470947028E-01  2.5529052972E-01
                       7.4470947028E-01  7.4470947028E-01  7.5529052972E-01
                       2.7628180759E-01  2.7628180759E-01  7.2371819241E-01
                       7.4498040113E-01  7.4498040113E-01  2.5501959887E-01
                       2.3664367129E-01  7.6243530528E-01  7.6335632871E-01
                       7.6243530528E-01  2.3664367129E-01  7.6335632871E-01
                       2.3664367129E-01  7.6243530528E-01  2.3756469472E-01
                       7.6243530528E-01  2.3664367129E-01  2.3756469472E-01
                      -8.8391024048E-03 -8.8391024048E-03  8.8391024048E-03
             xred8     2.4473533672E-01  2.4473533672E-01  2.5526466328E-01
                       7.4473533672E-01  7.4473533672E-01  7.5526466328E-01
                       2.7639389153E-01  2.7639389153E-01  7.2360610847E-01
                       7.4473522122E-01  7.4473522122E-01  2.5526477878E-01
                       2.3686509535E-01  7.6227080449E-01  7.6313490465E-01
                       7.6227080449E-01  2.3686509535E-01  7.6313490465E-01
                       2.3686509535E-01  7.6227080449E-01  2.3772919551E-01
                       7.6227080449E-01  2.3686509535E-01  2.3772919551E-01
                      -8.8715858582E-03 -8.8715858582E-03  8.8715858582E-03
             xred9     2.4476126130E-01  2.4476126130E-01  2.5523873870E-01
                       7.4476126130E-01  7.4476126130E-01  7.5523873870E-01
                       2.7649648220E-01  2.7649648220E-01  7.2350351780E-01
                       7.4449726421E-01  7.4449726421E-01  2.5550273579E-01
                       2.3709528954E-01  7.6209844079E-01  7.6290471046E-01
                       7.6209844079E-01  2.3709528954E-01  7.6290471046E-01
                       2.3709528954E-01  7.6209844079E-01  2.3790155921E-01
                       7.6209844079E-01  2.3709528954E-01  2.3790155921E-01
                      -8.9037296509E-03 -8.9037296509E-03  8.9037296509E-03
             xred10    2.4479218059E-01  2.4479218059E-01  2.5520781941E-01
                       7.4479218059E-01  7.4479218059E-01  7.5520781941E-01
                       2.7659911417E-01  2.7659911417E-01  7.2340088583E-01
                       7.4424833679E-01  7.4424833679E-01  2.5575166321E-01
                       2.3732306812E-01  7.6193219273E-01  7.6267693188E-01
                       7.6193219273E-01  2.3732306812E-01  7.6267693188E-01
                       2.3732306812E-01  7.6193219273E-01  2.3806780727E-01
                       7.6193219273E-01  2.3732306812E-01  2.3806780727E-01
                      -8.9423338168E-03 -8.9423338168E-03  8.9423338168E-03
            znucl       55.00000   53.00000   40.00000   17.00000

================================================================================

 chkinp: Checking input parameters for consistency, jdtset=   1.

 chkinp: Checking input parameters for consistency, jdtset=   2.

 chkinp: Checking input parameters for consistency, jdtset=   3.

 chkinp: Checking input parameters for consistency, jdtset=   4.

 chkinp: Checking input parameters for consistency, jdtset=   5.

 chkinp: Checking input parameters for consistency, jdtset=   6.

 chkinp: Checking input parameters for consistency, jdtset=   7.

 chkinp: Checking input parameters for consistency, jdtset=   8.

 chkinp: Checking input parameters for consistency, jdtset=   9.

 chkinp: Checking input parameters for consistency, jdtset=  10.

================================================================================
== DATASET  1 ==================================================================
-   mpi_nproc: 4, omp_nthreads: -1 (-1 if OMP is not activated)


--- !DatasetInfo
iteration_state: {dtset: 1, }
dimensions: {natom: 9, nkpt: 163, mband: 42, nsppol: 1, nspinor: 1, nspden: 1, mpw: 5660, }
cutoff_energies: {ecut:  16.0, pawecutdg:  40.0, }
electrons: {nelect:   7.20000000E+01, charge:   0.00000000E+00, occopt:   1.00000000E+00, tsmear:   1.00000000E-02, }
meta: {optdriver: 0, ionmov: 0, optcell: 0, iscf: 17, paral_kgb: 0, }
...

 Real(R)+Recip(G) space primitive vectors, cartesian coordinates (Bohr,Bohr^-1):
 R(1)=  0.0000000  9.8617054  9.4737338  G(1)= -0.0507012  0.0507012  0.0527775
 R(2)=  9.8617054  0.0000000  9.4737338  G(2)=  0.0507012 -0.0507012  0.0527775
 R(3)=  9.8617054  9.8617054  0.0000000  G(3)=  0.0507012  0.0507012 -0.0527775
 Unit cell volume ucvol=  1.8427025E+03 bohr^3
 Angles (23,13,12)=  5.93408320E+01  5.93408320E+01  6.13183361E+01 degrees

 Coarse grid specifications (used for wave-functions):

 getcut: wavevector=  0.0000  0.0000  0.0000  ngfft=  54  54  54
         ecut(hartree)=     16.000   => boxcut(ratio)=   2.15111

 Fine grid specifications (used for densities):

 getcut: wavevector=  0.0000  0.0000  0.0000  ngfft=  80  80  80
         ecut(hartree)=     40.000   => boxcut(ratio)=   2.01478

--- Pseudopotential description ------------------------------------------------
- pspini: atom type   1  psp file is ../../../Psps_for_tests/ATOMICDATA/Cs.GGA_PBE-JTH.xml
- pspatm: opening atomic psp file    ../../../Psps_for_tests/ATOMICDATA/Cs.GGA_PBE-JTH.xml
- pspatm : Reading pseudopotential header in XML form from ../../../Psps_for_tests/ATOMICDATA/Cs.GGA_PBE-JTH.xml
 Pseudopotential format is: paw10
 basis_size (lnmax)=  6 (lmn_size= 18), orbitals=   0   0   1   1   2   2
 Spheres core radius: rc_sph= 2.20660278
 1 radial meshes are used:
  - mesh 1: r(i)=AA*[exp(BB*(i-1))-1], size=1500 , AA= 0.15922E-03 BB= 0.87573E-02
 Shapefunction is SIN type: shapef(r)=[sin(pi*r/rshp)/(pi*r/rshp)]**2
 Radius for shape functions =  2.00394208
 mmax= 1500
 Radial grid used for partial waves is grid 1
 Radial grid used for projectors is grid 1
 Radial grid used for (t)core density is grid 1
 Radial grid used for Vloc is grid 1
 Radial grid used for pseudo valence density is grid 1
 Mesh size for Vloc has been set to 1341 to avoid numerical noise.
 Compensation charge density is not taken into account in XC energy/potential
 pspatm: atomic psp has been read  and splines computed

- pspini: atom type   2  psp file is ../../../Psps_for_tests/ATOMICDATA/I.GGA_PBE-JTH.xml
- pspatm: opening atomic psp file    ../../../Psps_for_tests/ATOMICDATA/I.GGA_PBE-JTH.xml
- pspatm : Reading pseudopotential header in XML form from ../../../Psps_for_tests/ATOMICDATA/I.GGA_PBE-JTH.xml
 Pseudopotential format is: paw10
 basis_size (lnmax)=  4 (lmn_size=  8), orbitals=   0   0   1   1
 Spheres core radius: rc_sph= 2.30022271
 1 radial meshes are used:
  - mesh 1: r(i)=AA*[exp(BB*(i-1))-1], size=2000 , AA= 0.12610E-03 BB= 0.66836E-02
 Shapefunction is SIN type: shapef(r)=[sin(pi*r/rshp)/(pi*r/rshp)]**2
 Radius for shape functions =  2.10879093
 mmax= 2000
 Radial grid used for partial waves is grid 1
 Radial grid used for projectors is grid 1
 Radial grid used for (t)core density is grid 1
 Radial grid used for Vloc is grid 1
 Radial grid used for pseudo valence density is grid 1
 Mesh size for Vloc has been set to 1792 to avoid numerical noise.
 Compensation charge density is not taken into account in XC energy/potential
 pspatm: atomic psp has been read  and splines computed

- pspini: atom type   3  psp file is ../../../Psps_for_tests/ATOMICDATA/Zr.GGA_PBE-JTH.xml
- pspatm: opening atomic psp file    ../../../Psps_for_tests/ATOMICDATA/Zr.GGA_PBE-JTH.xml
- pspatm : Reading pseudopotential header in XML form from ../../../Psps_for_tests/ATOMICDATA/Zr.GGA_PBE-JTH.xml
 Pseudopotential format is: paw10
 basis_size (lnmax)=  6 (lmn_size= 18), orbitals=   0   0   1   1   2   2
 Spheres core radius: rc_sph= 2.21000000
 1 radial meshes are used:
  - mesh 1: r(i)=AA*[exp(BB*(i-1))-1], size= 941 , AA= 0.35256E-03 BB= 0.14102E-01
 Shapefunction is BESSEL type: shapef(r,l)=aa(1,l)*jl(q(1,l)*r)+aa(2,l)*jl(q(2,l)*r)
 Radius for shape functions =  2.21000000
 mmax=  941
 Radial grid used for partial waves is grid 1
 Radial grid used for projectors is grid 1
 Radial grid used for (t)core density is grid 1
 Radial grid used for Vloc is grid 1
 Radial grid used for pseudo valence density is grid 1
 Mesh size for Vloc has been set to  777 to avoid numerical noise.
 Compensation charge density is not taken into account in XC energy/potential
 pspatm: atomic psp has been read  and splines computed

- pspini: atom type   4  psp file is ../../../Psps_for_tests/ATOMICDATA/Cl.GGA_PBE-JTH.xml
- pspatm: opening atomic psp file    ../../../Psps_for_tests/ATOMICDATA/Cl.GGA_PBE-JTH.xml
- pspatm : Reading pseudopotential header in XML form from ../../../Psps_for_tests/ATOMICDATA/Cl.GGA_PBE-JTH.xml
 Pseudopotential format is: paw10
 basis_size (lnmax)=  4 (lmn_size=  8), orbitals=   0   0   1   1
 Spheres core radius: rc_sph= 1.80315674
 1 radial meshes are used:
  - mesh 1: r(i)=AA*[exp(BB*(i-1))-1], size=1400 , AA= 0.50355E-03 BB= 0.85603E-02
 Shapefunction is SIN type: shapef(r)=[sin(pi*r/rshp)/(pi*r/rshp)]**2
 Radius for shape functions =  1.61320365
 mmax= 1400
 Radial grid used for partial waves is grid 1
 Radial grid used for projectors is grid 1
 Radial grid used for (t)core density is grid 1
 Radial grid used for Vloc is grid 1
 Radial grid used for pseudo valence density is grid 1
 Mesh size for Vloc has been set to 1238 to avoid numerical noise.
 Compensation charge density is not taken into account in XC energy/potential
 pspatm: atomic psp has been read  and splines computed

   1.59901964E+04                                ecore*ucvol(ha*bohr**3)
--------------------------------------------------------------------------------

_setup2: Arith. and geom. avg. npw (full set) are    5633.001    5632.993

================================================================================

--- !BeginCycle
iteration_state: {dtset: 1, }
solver: {iscf: 17, nstep: 2500, nline: 4, wfoptalg: 10, }
tolerances: {toldfe: 1.00E-08, }
...

     iter   Etot(hartree)      deltaE(h)  residm     nres2
 ETOT  1  -176.13862501596    -1.761E+02 2.493E-01 1.922E+01
 ETOT  2  -176.30489545046    -1.663E-01 2.091E-02 3.941E+00
 ETOT  3  -176.30313024950     1.765E-03 5.065E-03 8.472E-01
 ETOT  4  -176.30383404696    -7.038E-04 3.612E-03 3.487E-02
 ETOT  5  -176.30371848999     1.156E-04 9.196E-04 4.195E-03
 ETOT  6  -176.30375611538    -3.763E-05 1.174E-03 2.235E-04
 ETOT  7  -176.30375830314    -2.188E-06 5.649E-04 5.485E-05
 ETOT  8  -176.30375923941    -9.363E-07 6.944E-04 9.775E-06
 ETOT  9  -176.30375930220    -6.278E-08 5.517E-04 2.012E-06
 ETOT 10  -176.30375931756    -1.536E-08 4.800E-04 3.377E-07
 ETOT 11  -176.30375931713     4.262E-10 2.546E-04 1.047E-07
 ETOT 12  -176.30375931777    -6.443E-10 2.228E-04 2.528E-08

 At SCF step   12, etot is converged : 
  for the second time, diff in etot=  6.443E-10 < toldfe=  1.000E-08

 Cartesian components of stress tensor (hartree/bohr^3)
  sigma(1 1)= -1.08271069E-04  sigma(3 2)=  1.16354406E-13
  sigma(2 2)= -1.08271069E-04  sigma(3 1)=  1.16354083E-13
  sigma(3 3)= -1.08412418E-04  sigma(2 1)= -2.23553572E-13


--- !ResultsGS
iteration_state: {dtset: 1, }
comment   : Summary of ground state results
lattice_vectors:
- [  0.0000000,   9.8617054,   9.4737338, ]
- [  9.8617054,   0.0000000,   9.4737338, ]
- [  9.8617054,   9.8617054,   0.0000000, ]
lattice_lengths: [  13.67497,   13.67497,   13.94656, ]
lattice_angles: [ 59.341,  59.341,  61.318, ] # degrees, (23, 13, 12)
lattice_volume:   1.8427025E+03
convergence: {deltae: -6.443E-10, res2:  2.528E-08, residm:  2.228E-04, diffor: null, }
etotal    :  -1.76303759E+02
entropy   :   0.00000000E+00
fermie    :   3.96401925E-02
cartesian_stress_tensor: # hartree/bohr^3
- [ -1.08271069E-04,  -2.23553572E-13,   1.16354083E-13, ]
- [ -2.23553572E-13,  -1.08271069E-04,   1.16354406E-13, ]
- [  1.16354083E-13,   1.16354406E-13,  -1.08412418E-04, ]
pressure_GPa:   3.1868E+00
xred      :
- [  2.4451E-01,   2.4451E-01,   2.5549E-01, Cs]
- [  7.4451E-01,   7.4451E-01,   7.5549E-01, Cs]
- [  2.7560E-01,   2.7560E-01,   7.2440E-01,  I]
- [  7.4651E-01,   7.4651E-01,   2.5349E-01, Cl]
- [  2.3531E-01,   7.6342E-01,   7.6469E-01, Cl]
- [  7.6342E-01,   2.3531E-01,   7.6469E-01, Cl]
- [  2.3531E-01,   7.6342E-01,   2.3658E-01, Cl]
- [  7.6342E-01,   2.3531E-01,   2.3658E-01, Cl]
- [ -8.6172E-03,  -8.6172E-03,   8.6172E-03, Zr]
cartesian_forces: # hartree/bohr
- [ -1.92594166E-22,  -3.27476502E-22,  -1.46560156E-05, ]
- [ -4.04352403E-22,  -1.15718265E-22,  -1.46560156E-05, ]
- [ -4.12947362E-22,  -1.07123306E-22,  -1.80317495E-05, ]
- [ -3.80160960E-22,  -1.39909708E-22,   6.94606802E-05, ]
- [ -2.74256360E-05,   6.66293356E-16,  -4.94631357E-07, ]
- [  6.66293041E-16,  -2.74256360E-05,  -4.94631357E-07, ]
- [ -6.66291128E-16,   2.74256360E-05,  -4.94631355E-07, ]
- [  2.74256360E-05,  -6.66295255E-16,  -4.94631355E-07, ]
- [ -4.75429546E-23,  -4.72527713E-22,  -2.01383741E-05, ]
force_length_stats: {min:   1.46560156E-05, max:   6.94606802E-05, mean:   2.74070244E-05, }
...

 Integrated electronic density in atomic spheres:
 ------------------------------------------------
 Atom  Sphere_radius  Integrated_density
    1        2.20660          5.36443936
    2        2.20660          5.36443936
    3        2.30022          4.04822139
    4        1.80316          4.38414347
    5        1.80316          4.37003824
    6        1.80316          4.37003824
    7        1.80316          4.37003824
    8        1.80316          4.37003824
    9        2.21000          8.84189169

 PAW TEST:
 ==== Compensation charge inside spheres ============
 The following values must be close to each other ...
 Compensation charge over spherical meshes =     -5.944508152036736
 Compensation charge over fine fft grid    =     -5.944497032846205

 ==== Results concerning PAW augmentation regions ====

 Total pseudopotential strength Dij (hartree):
 Atom #  1
   0.40318  -0.13372   0.00000   0.00001   0.00000   0.00000  -0.00002   0.00000  -0.00000   0.00000   0.00000   0.00000 ...
  -0.13372   0.04002   0.00000  -0.00000   0.00000   0.00000   0.00001   0.00000   0.00000   0.00000  -0.00000   0.00000 ...
   0.00000   0.00000  -0.08902   0.00000   0.00000  -0.16930   0.00000   0.00000   0.00000   0.00000   0.00000  -0.00000 ...
   0.00001  -0.00000   0.00000  -0.08902   0.00000   0.00000  -0.16930   0.00000  -0.00000   0.00000   0.00000   0.00000 ...
   0.00000   0.00000   0.00000   0.00000  -0.08902   0.00000   0.00000  -0.16930   0.00000  -0.00000   0.00000   0.00000 ...
   0.00000   0.00000  -0.16930   0.00000   0.00000   0.39280   0.00000  -0.00001   0.00000  -0.00000   0.00000   0.00000 ...
  -0.00002   0.00001   0.00000  -0.16930   0.00000   0.00000   0.39282   0.00000   0.00000   0.00000  -0.00000   0.00000 ...
   0.00000   0.00000   0.00000   0.00000  -0.16930  -0.00001   0.00000   0.39280   0.00000   0.00000   0.00000  -0.00000 ...
  -0.00000   0.00000   0.00000  -0.00000   0.00000   0.00000   0.00000   0.00000   0.00587   0.00000   0.00000   0.00000 ...
   0.00000   0.00000   0.00000   0.00000  -0.00000  -0.00000   0.00000   0.00000   0.00000   0.00587   0.00000  -0.00000 ...
   0.00000  -0.00000   0.00000   0.00000   0.00000   0.00000  -0.00000   0.00000   0.00000   0.00000   0.00587   0.00000 ...
   0.00000   0.00000  -0.00000   0.00000   0.00000   0.00000   0.00000  -0.00000   0.00000  -0.00000   0.00000   0.00587 ...
   ...  only 12  components have been written...
 Atom #  9
   3.03424  -0.88289   0.00000   0.00002   0.00000   0.00000   0.00000   0.00000   0.00000   0.00000  -0.00001   0.00000 ...
  -0.88289   0.26361   0.00000  -0.00001   0.00000   0.00000   0.00000   0.00000   0.00000   0.00000  -0.00000   0.00000 ...
   0.00000   0.00000   0.28406   0.00000   0.00000  -0.05828   0.00000   0.00000   0.00000  -0.00008   0.00000   0.00000 ...
   0.00002  -0.00001   0.00000   0.28400   0.00000   0.00000  -0.05828   0.00000   0.00000   0.00000  -0.00010   0.00000 ...
   0.00000   0.00000   0.00000   0.00000   0.28406   0.00000   0.00000  -0.05828   0.00000   0.00000   0.00000  -0.00008 ...
   0.00000   0.00000  -0.05828   0.00000   0.00000   0.01579   0.00000   0.00000   0.00000   0.00002   0.00000   0.00000 ...
   0.00000   0.00000   0.00000  -0.05828   0.00000   0.00000   0.01579   0.00000   0.00000   0.00000   0.00002   0.00000 ...
   0.00000   0.00000   0.00000   0.00000  -0.05828   0.00000   0.00000   0.01579   0.00000   0.00000   0.00000   0.00002 ...
   0.00000   0.00000   0.00000   0.00000   0.00000   0.00000   0.00000   0.00000   0.00234   0.00000   0.00000   0.00000 ...
   0.00000   0.00000  -0.00008   0.00000   0.00000   0.00002   0.00000   0.00000   0.00000   0.00236   0.00000   0.00000 ...
  -0.00001  -0.00000   0.00000  -0.00010   0.00000   0.00000   0.00002   0.00000   0.00000   0.00000   0.00245   0.00000 ...
   0.00000   0.00000   0.00000   0.00000  -0.00008   0.00000   0.00000   0.00002   0.00000   0.00000   0.00000   0.00236 ...
   ...  only 12  components have been written...


 Augmentation waves occupancies Rhoij:
 Atom #  1
   1.99962  -0.01041   0.00000  -0.00006   0.00000   0.00000   0.00006   0.00000  -0.00420   0.00000   0.00285   0.00000 ...
  -0.01041   0.18361   0.00000   0.00417   0.00000   0.00000  -0.00005   0.00000   0.04093   0.00000  -0.02249   0.00000 ...
   0.00000   0.00000   2.01222   0.00000   0.00321  -0.00497   0.00000  -0.00051   0.00000   0.00226   0.00000  -0.00269 ...
  -0.00006   0.00417   0.00000   2.00879   0.00000   0.00000  -0.00443   0.00000  -0.00226   0.00000   0.00369   0.00000 ...
   0.00000   0.00000   0.00321   0.00000   2.01222  -0.00051   0.00000  -0.00497   0.00000  -0.00269   0.00000   0.00226 ...
   0.00000   0.00000  -0.00497   0.00000  -0.00051   0.00016   0.00000   0.00004   0.00000   0.00004   0.00000   0.00003 ...
   0.00006  -0.00005   0.00000  -0.00443   0.00000   0.00000   0.00012   0.00000   0.00001   0.00000  -0.00017   0.00000 ...
   0.00000   0.00000  -0.00051   0.00000  -0.00497   0.00004   0.00000   0.00016   0.00000   0.00003   0.00000   0.00004 ...
  -0.00420   0.04093   0.00000  -0.00226   0.00000   0.00000   0.00001   0.00000   0.08847   0.00000  -0.02667   0.00000 ...
   0.00000   0.00000   0.00226   0.00000  -0.00269   0.00004   0.00000   0.00003   0.00000   0.05669   0.00000   0.00222 ...
   0.00285  -0.02249   0.00000   0.00369   0.00000   0.00000  -0.00017   0.00000  -0.02667   0.00000   0.04534   0.00000 ...
   0.00000   0.00000  -0.00269   0.00000   0.00226   0.00003   0.00000   0.00004   0.00000   0.00222   0.00000   0.05669 ...
   ...  only 12  components have been written...
 Atom #  9
   1.99336  -0.06909   0.00000  -0.00031   0.00000   0.00000  -0.00028   0.00000   0.00000   0.00000   0.00393   0.00000 ...
  -0.06909   1.08214   0.00000   0.00280   0.00000   0.00000  -0.01903   0.00000   0.00000   0.00000  -0.02110   0.00000 ...
   0.00000   0.00000   1.96648   0.00000   0.00000  -0.20788   0.00000   0.00000   0.00000  -0.00386   0.00000   0.00000 ...
  -0.00031   0.00280   0.00000   1.96744   0.00000   0.00000  -0.19808   0.00000   0.00000   0.00000   0.00189   0.00000 ...
   0.00000   0.00000   0.00000   0.00000   1.96648   0.00000   0.00000  -0.20788   0.00000   0.00000   0.00000  -0.00386 ...
   0.00000   0.00000  -0.20788   0.00000   0.00000   1.86594   0.00000   0.00000   0.00000   0.06569   0.00000   0.00000 ...
  -0.00028  -0.01903   0.00000  -0.19808   0.00000   0.00000   1.74592   0.00000   0.00000   0.00000  -0.14668   0.00000 ...
   0.00000   0.00000   0.00000   0.00000  -0.20788   0.00000   0.00000   1.86594   0.00000   0.00000   0.00000   0.06569 ...
   0.00000   0.00000   0.00000   0.00000   0.00000   0.00000   0.00000   0.00000   0.53860   0.00000   0.00000   0.00000 ...
   0.00000   0.00000  -0.00386   0.00000   0.00000   0.06569   0.00000   0.00000   0.00000   0.54162   0.00000   0.00000 ...
   0.00393  -0.02110   0.00000   0.00189   0.00000   0.00000  -0.14668   0.00000   0.00000   0.00000   1.55673   0.00000 ...
   0.00000   0.00000   0.00000   0.00000  -0.00386   0.00000   0.00000   0.06569   0.00000   0.00000   0.00000   0.54162 ...
   ...  only 12  components have been written...


================================================================================

 ----iterations are completed or convergence reached----

 Mean square residual over all n,k,spin=   78.004E-08; max=  22.282E-05
 reduced coordinates (array xred) for    9 atoms
       0.244513392990      0.244513392990      0.255486607010
       0.744513392990      0.744513392990      0.755486607010
       0.275604634580      0.275604634580      0.724395365420
       0.746508624430      0.746508624430      0.253491375570
       0.235314659380      0.763423907150      0.764685340620
       0.763423907150      0.235314659380      0.764685340620
       0.235314659380      0.763423907150      0.236576092850
       0.763423907150      0.235314659380      0.236576092850
      -0.008617178053     -0.008617178053      0.008617178053
 rms dE/dt=  2.8014E-04; max dE/dt=  2.7046E-04; dE/dt below (all hartree)
    1      -0.000020882309     -0.000020882309      0.000000000000
    2      -0.000020882309     -0.000020882309      0.000000000000
    3       0.000011098495      0.000011098495      0.000000000000
    4      -0.000817781492     -0.000817781492      0.000000000000
    5      -0.000155043494      0.000115420048      0.000270463542
    6       0.000115420048     -0.000155043494      0.000270463542
    7      -0.000425507035     -0.000155043494     -0.000270463542
    8      -0.000155043494     -0.000425507035     -0.000270463542
    9       0.000031056095      0.000031056095      0.000000000000

 cartesian coordinates (angstrom) at end:
    1      2.60929486137999     2.60929486137999     2.45163015773052
    2      7.82788458413718     7.82788458413718     7.46491414956238
    3      5.21858972281409     5.21858972281409     2.76336860522917
    4      5.21858972269468     5.21858972269468     7.48491947323868
    5      7.97457521566290     5.21858972282430     5.00696006760995
    6      5.21858972282430     7.97457521566290     5.00696006760995
    7      5.21858972269039     2.46260422985180     5.00696006760995
    8      2.46260422985180     5.21858972269039     5.00696006760995
    9      0.00000000000219     0.00000000000219    -0.08640072158075

 cartesian forces (hartree/bohr) at end:
    1     -0.00000000000000    -0.00000000000000    -0.00001465601562
    2     -0.00000000000000    -0.00000000000000    -0.00001465601562
    3     -0.00000000000000    -0.00000000000000    -0.00001803174952
    4     -0.00000000000000    -0.00000000000000     0.00006946068024
    5     -0.00002742563598     0.00000000000000    -0.00000049463136
    6      0.00000000000000    -0.00002742563598    -0.00000049463136
    7     -0.00000000000000     0.00002742563598    -0.00000049463136
    8      0.00002742563598    -0.00000000000000    -0.00000049463136
    9     -0.00000000000000    -0.00000000000000    -0.00002013837405
 frms,max,avg= 1.8252065E-05 6.9460680E-05   0.000E+00  0.000E+00  1.686E-05 h/b

 cartesian forces (eV/Angstrom) at end:
    1     -0.00000000000000    -0.00000000000000    -0.00075364256134
    2     -0.00000000000000    -0.00000000000000    -0.00075364256134
    3     -0.00000000000000    -0.00000000000000    -0.00092722976337
    4     -0.00000000000000    -0.00000000000000     0.00357181148850
    5     -0.00141028278628     0.00000000000003    -0.00002543496489
    6      0.00000000000003    -0.00141028278628    -0.00002543496489
    7     -0.00000000000003     0.00141028278628    -0.00002543496482
    8      0.00141028278628    -0.00000000000003    -0.00002543496482
    9     -0.00000000000000    -0.00000000000000    -0.00103555674304
 frms,max,avg= 9.3855883E-04 3.5718115E-03   0.000E+00  0.000E+00  8.670E-04 e/A
 length scales= 13.674972193000 13.674972193000 13.946557491000 bohr
              =  7.236483612638  7.236483612638  7.380200362527 angstroms
 prteigrs : about to open file Cs2TiI6o_DS1_EIG
 Fermi (or HOMO) energy (hartree) =   0.03964   Average Vxc (hartree)=  -0.31915
 Eigenvalues (hartree) for nkpt= 163  k points:
 kpt#   1, nband= 42, wtk=  0.00058, kpt=  0.0000  0.0000  0.0000 (reduced coord)
  -1.76828   -0.96150   -0.96150   -0.95990   -0.69171   -0.69072   -0.49269   -0.47825
  -0.47638   -0.47471   -0.47471   -0.36478   -0.21933   -0.21876   -0.21876   -0.21166
  -0.21166   -0.21006   -0.11838   -0.08302   -0.07298   -0.07171   -0.06994   -0.06994
  -0.06763   -0.06763   -0.05463   -0.03339   -0.02849   -0.02849   -0.01208   -0.01208
  -0.00992    0.02033    0.03964    0.03964    0.12470    0.12470    0.12967    0.22229
   0.22382    0.22469
 prteigrs : prtvol=0 or 1, do not print more k-points.


--- !EnergyTerms
iteration_state     : {dtset: 1, }
comment             : Components of total free energy in Hartree
kinetic             :  5.88798527993424E+01
hartree             :  3.79620952903754E+01
xc                  : -5.43406464169776E+01
Ewald energy        : -1.33110066334898E+02
psp_core            :  8.67757906302752E+00
local_psp           : -1.35625043782414E+02
spherical_terms     :  4.12524945590403E+01
total_energy        : -1.76303734822504E+02
total_energy_eV     : -4.79746860420681E+03
...


--- !EnergyTermsDC
iteration_state     : {dtset: 1, }
comment             : '"Double-counting" decomposition of free energy'
band_energy         : -2.17330587313399E+01
Ewald energy        : -1.33110066334898E+02
psp_core            :  8.67757906302752E+00
xc_dc               : -4.69418094562303E+01
spherical_terms     :  1.68035961416670E+01
total_energy_dc     : -1.76303759317774E+02
total_energy_dc_eV  : -4.79746927075700E+03
...


 Cartesian components of stress tensor (hartree/bohr^3)
  sigma(1 1)= -1.08271069E-04  sigma(3 2)=  1.16354406E-13
  sigma(2 2)= -1.08271069E-04  sigma(3 1)=  1.16354083E-13
  sigma(3 3)= -1.08412418E-04  sigma(2 1)= -2.23553572E-13

-Cartesian components of stress tensor (GPa)         [Pressure=  3.1868E+00 GPa]
- sigma(1 1)= -3.18544428E+00  sigma(3 2)=  3.42326425E-09
- sigma(2 2)= -3.18544428E+00  sigma(3 1)=  3.42325474E-09
- sigma(3 3)= -3.18960291E+00  sigma(2 1)= -6.57717207E-09

================================================================================
== DATASET  2 ==================================================================
-   mpi_nproc: 4, omp_nthreads: -1 (-1 if OMP is not activated)


--- !DatasetInfo
iteration_state: {dtset: 2, }
dimensions: {natom: 9, nkpt: 163, mband: 42, nsppol: 1, nspinor: 1, nspden: 1, mpw: 5640, }
cutoff_energies: {ecut:  16.0, pawecutdg:  40.0, }
electrons: {nelect:   7.20000000E+01, charge:   0.00000000E+00, occopt:   1.00000000E+00, tsmear:   1.00000000E-02, }
meta: {optdriver: 0, ionmov: 0, optcell: 0, iscf: 17, paral_kgb: 0, }
...

 Real(R)+Recip(G) space primitive vectors, cartesian coordinates (Bohr,Bohr^-1):
 R(1)=  0.0000000  9.8519264  9.4640727  G(1)= -0.0507515  0.0507515  0.0528314
 R(2)=  9.8519264  0.0000000  9.4640727  G(2)=  0.0507515 -0.0507515  0.0528314
 R(3)=  9.8519264  9.8519264  0.0000000  G(3)=  0.0507515  0.0507515 -0.0528314
 Unit cell volume ucvol=  1.8371744E+03 bohr^3
 Angles (23,13,12)=  5.93403724E+01  5.93403724E+01  6.13192551E+01 degrees

 Coarse grid specifications (used for wave-functions):

 getcut: wavevector=  0.0000  0.0000  0.0000  ngfft=  54  54  54
         ecut(hartree)=     16.000   => boxcut(ratio)=   2.15325

 Fine grid specifications (used for densities):

 getcut: wavevector=  0.0000  0.0000  0.0000  ngfft=  80  80  80
         ecut(hartree)=     40.000   => boxcut(ratio)=   2.01678

--- Pseudopotential description ------------------------------------------------
- pspini: atom type   1  psp file is ../../../Psps_for_tests/ATOMICDATA/Cs.GGA_PBE-JTH.xml
- pspatm: opening atomic psp file    ../../../Psps_for_tests/ATOMICDATA/Cs.GGA_PBE-JTH.xml
- pspatm : Reading pseudopotential header in XML form from ../../../Psps_for_tests/ATOMICDATA/Cs.GGA_PBE-JTH.xml
 Pseudopotential format is: paw10
 basis_size (lnmax)=  6 (lmn_size= 18), orbitals=   0   0   1   1   2   2
 Spheres core radius: rc_sph= 2.20660278
 1 radial meshes are used:
  - mesh 1: r(i)=AA*[exp(BB*(i-1))-1], size=1500 , AA= 0.15922E-03 BB= 0.87573E-02
 Shapefunction is SIN type: shapef(r)=[sin(pi*r/rshp)/(pi*r/rshp)]**2
 Radius for shape functions =  2.00394208
 mmax= 1500
 Radial grid used for partial waves is grid 1
 Radial grid used for projectors is grid 1
 Radial grid used for (t)core density is grid 1
 Radial grid used for Vloc is grid 1
 Radial grid used for pseudo valence density is grid 1
 Mesh size for Vloc has been set to 1341 to avoid numerical noise.
 Compensation charge density is not taken into account in XC energy/potential
 pspatm: atomic psp has been read  and splines computed

- pspini: atom type   2  psp file is ../../../Psps_for_tests/ATOMICDATA/I.GGA_PBE-JTH.xml
- pspatm: opening atomic psp file    ../../../Psps_for_tests/ATOMICDATA/I.GGA_PBE-JTH.xml
- pspatm : Reading pseudopotential header in XML form from ../../../Psps_for_tests/ATOMICDATA/I.GGA_PBE-JTH.xml
 Pseudopotential format is: paw10
 basis_size (lnmax)=  4 (lmn_size=  8), orbitals=   0   0   1   1
 Spheres core radius: rc_sph= 2.30022271
 1 radial meshes are used:
  - mesh 1: r(i)=AA*[exp(BB*(i-1))-1], size=2000 , AA= 0.12610E-03 BB= 0.66836E-02
 Shapefunction is SIN type: shapef(r)=[sin(pi*r/rshp)/(pi*r/rshp)]**2
 Radius for shape functions =  2.10879093
 mmax= 2000
 Radial grid used for partial waves is grid 1
 Radial grid used for projectors is grid 1
 Radial grid used for (t)core density is grid 1
 Radial grid used for Vloc is grid 1
 Radial grid used for pseudo valence density is grid 1
 Mesh size for Vloc has been set to 1792 to avoid numerical noise.
 Compensation charge density is not taken into account in XC energy/potential
 pspatm: atomic psp has been read  and splines computed

- pspini: atom type   3  psp file is ../../../Psps_for_tests/ATOMICDATA/Zr.GGA_PBE-JTH.xml
- pspatm: opening atomic psp file    ../../../Psps_for_tests/ATOMICDATA/Zr.GGA_PBE-JTH.xml
- pspatm : Reading pseudopotential header in XML form from ../../../Psps_for_tests/ATOMICDATA/Zr.GGA_PBE-JTH.xml
 Pseudopotential format is: paw10
 basis_size (lnmax)=  6 (lmn_size= 18), orbitals=   0   0   1   1   2   2
 Spheres core radius: rc_sph= 2.21000000
 1 radial meshes are used:
  - mesh 1: r(i)=AA*[exp(BB*(i-1))-1], size= 941 , AA= 0.35256E-03 BB= 0.14102E-01
 Shapefunction is BESSEL type: shapef(r,l)=aa(1,l)*jl(q(1,l)*r)+aa(2,l)*jl(q(2,l)*r)
 Radius for shape functions =  2.21000000
 mmax=  941
 Radial grid used for partial waves is grid 1
 Radial grid used for projectors is grid 1
 Radial grid used for (t)core density is grid 1
 Radial grid used for Vloc is grid 1
 Radial grid used for pseudo valence density is grid 1
 Mesh size for Vloc has been set to  777 to avoid numerical noise.
 Compensation charge density is not taken into account in XC energy/potential
 pspatm: atomic psp has been read  and splines computed

- pspini: atom type   4  psp file is ../../../Psps_for_tests/ATOMICDATA/Cl.GGA_PBE-JTH.xml
- pspatm: opening atomic psp file    ../../../Psps_for_tests/ATOMICDATA/Cl.GGA_PBE-JTH.xml
- pspatm : Reading pseudopotential header in XML form from ../../../Psps_for_tests/ATOMICDATA/Cl.GGA_PBE-JTH.xml
 Pseudopotential format is: paw10
 basis_size (lnmax)=  4 (lmn_size=  8), orbitals=   0   0   1   1
 Spheres core radius: rc_sph= 1.80315674
 1 radial meshes are used:
  - mesh 1: r(i)=AA*[exp(BB*(i-1))-1], size=1400 , AA= 0.50355E-03 BB= 0.85603E-02
 Shapefunction is SIN type: shapef(r)=[sin(pi*r/rshp)/(pi*r/rshp)]**2
 Radius for shape functions =  1.61320365
 mmax= 1400
 Radial grid used for partial waves is grid 1
 Radial grid used for projectors is grid 1
 Radial grid used for (t)core density is grid 1
 Radial grid used for Vloc is grid 1
 Radial grid used for pseudo valence density is grid 1
 Mesh size for Vloc has been set to 1238 to avoid numerical noise.
 Compensation charge density is not taken into account in XC energy/potential
 pspatm: atomic psp has been read  and splines computed

--------------------------------------------------------------------------------

_setup2: Arith. and geom. avg. npw (full set) are    5616.038    5616.030

================================================================================

--- !BeginCycle
iteration_state: {dtset: 2, }
solver: {iscf: 17, nstep: 2500, nline: 4, wfoptalg: 10, }
tolerances: {toldfe: 1.00E-08, }
...

     iter   Etot(hartree)      deltaE(h)  residm     nres2
 ETOT  1  -176.14089702131    -1.761E+02 2.059E-01 1.912E+01
 ETOT  2  -176.30417072539    -1.633E-01 2.091E-02 3.870E+00
 ETOT  3  -176.30249715927     1.674E-03 1.458E-02 8.303E-01
 ETOT  4  -176.30319340408    -6.962E-04 5.266E-03 3.398E-02
 ETOT  5  -176.30308365670     1.097E-04 1.203E-03 4.110E-03
 ETOT  6  -176.30312099772    -3.734E-05 1.399E-03 2.127E-04
 ETOT  7  -176.30312318581    -2.188E-06 5.421E-04 5.186E-05
 ETOT  8  -176.30312408901    -9.032E-07 8.300E-04 8.048E-06
 ETOT  9  -176.30312415236    -6.335E-08 5.687E-04 1.054E-06
 ETOT 10  -176.30312416236    -9.995E-09 4.367E-04 1.460E-07
 ETOT 11  -176.30312416251    -1.558E-10 3.524E-04 4.844E-08

 At SCF step   11, etot is converged : 
  for the second time, diff in etot=  1.558E-10 < toldfe=  1.000E-08

 Cartesian components of stress tensor (hartree/bohr^3)
  sigma(1 1)= -1.10914365E-04  sigma(3 2)=  8.63622765E-14
  sigma(2 2)= -1.10914365E-04  sigma(3 1)=  8.63609828E-14
  sigma(3 3)= -1.11149243E-04  sigma(2 1)= -1.65922781E-13


--- !ResultsGS
iteration_state: {dtset: 2, }
comment   : Summary of ground state results
lattice_vectors:
- [  0.0000000,   9.8519264,   9.4640727, ]
- [  9.8519264,   0.0000000,   9.4640727, ]
- [  9.8519264,   9.8519264,   0.0000000, ]
lattice_lengths: [  13.66123,   13.66123,   13.93273, ]
lattice_angles: [ 59.340,  59.340,  61.319, ] # degrees, (23, 13, 12)
lattice_volume:   1.8371744E+03
convergence: {deltae: -1.558E-10, res2:  4.844E-08, residm:  3.524E-04, diffor: null, }
etotal    :  -1.76303124E+02
entropy   :   0.00000000E+00
fermie    :   4.05641638E-02
cartesian_stress_tensor: # hartree/bohr^3
- [ -1.10914365E-04,  -1.65922781E-13,   8.63609828E-14, ]
- [ -1.65922781E-13,  -1.10914365E-04,   8.63622765E-14, ]
- [  8.63609828E-14,   8.63622765E-14,  -1.11149243E-04, ]
pressure_GPa:   3.2655E+00
xred      :
- [  2.4455E-01,   2.4455E-01,   2.5545E-01, Cs]
- [  7.4455E-01,   7.4455E-01,   7.5545E-01, Cs]
- [  2.7571E-01,   2.7571E-01,   7.2429E-01,  I]
- [  7.4625E-01,   7.4625E-01,   2.5375E-01, Cl]
- [  2.3554E-01,   7.6326E-01,   7.6446E-01, Cl]
- [  7.6326E-01,   2.3554E-01,   7.6446E-01, Cl]
- [  2.3554E-01,   7.6326E-01,   2.3674E-01, Cl]
- [  7.6326E-01,   2.3554E-01,   2.3674E-01, Cl]
- [ -8.6538E-03,  -8.6538E-03,   8.6538E-03, Zr]
cartesian_forces: # hartree/bohr
- [  3.80241170E-22,  -2.51085040E-22,  -1.37812765E-05, ]
- [  3.80241170E-22,  -2.51085040E-22,  -1.37812765E-05, ]
- [  8.47699371E-22,  -7.18543240E-22,  -7.60025776E-06, ]
- [ -3.44145698E-22,   4.73301828E-22,   7.68426595E-05, ]
- [ -9.73639587E-06,   1.74586260E-16,  -5.46119718E-06, ]
- [  1.74586204E-16,  -9.73639587E-06,  -5.46119718E-06, ]
- [ -1.74586978E-16,   9.73639587E-06,  -5.46119718E-06, ]
- [  9.73639587E-06,  -1.74585068E-16,  -5.46119718E-06, ]
- [  3.47022927E-22,  -2.17866797E-22,  -1.98350599E-05, ]
force_length_stats: {min:   7.60025776E-06, max:   7.68426595E-05, mean:   1.96104705E-05, }
...

 Integrated electronic density in atomic spheres:
 ------------------------------------------------
 Atom  Sphere_radius  Integrated_density
    1        2.20660          5.37799652
    2        2.20660          5.37799652
    3        2.30022          4.05339507
    4        1.80316          4.37839261
    5        1.80316          4.36962001
    6        1.80316          4.36962001
    7        1.80316          4.36962001
    8        1.80316          4.36962001
    9        2.21000          8.84457470

 PAW TEST:
 ==== Compensation charge inside spheres ============
 The following values must be close to each other ...
 Compensation charge over spherical meshes =     -5.944668126593506
 Compensation charge over fine fft grid    =     -5.944655133595205

 ==== Results concerning PAW augmentation regions ====

 Total pseudopotential strength Dij (hartree):
 Atom #  1
   0.40294  -0.13365   0.00000   0.00001   0.00000   0.00000  -0.00002   0.00000  -0.00000   0.00000   0.00000   0.00000 ...
  -0.13365   0.04000   0.00000  -0.00000   0.00000   0.00000   0.00001   0.00000   0.00000   0.00000  -0.00000   0.00000 ...
   0.00000   0.00000  -0.08899   0.00000   0.00000  -0.16932   0.00000   0.00000   0.00000   0.00000   0.00000  -0.00000 ...
[...]
                       5.1769059910E+00  2.4590140320E+00  4.9689229038E+00
                       2.4590140320E+00  5.1769059910E+00  4.9689229038E+00
                      -1.3789704676E-12 -1.3789704676E-12 -8.8555291829E-02
           xangst10    2.5858178819E+00  2.5858178819E+00  2.4322567206E+00
                       7.7574536458E+00  7.7574536458E+00  7.4002600179E+00
                       5.1716357639E+00  5.1716357639E+00  2.7482906224E+00
                       5.1716357639E+00  5.1716357639E+00  7.3948563823E+00
                       7.8847230748E+00  5.1716357638E+00  4.9643034307E+00
                       5.1716357638E+00  7.8847230748E+00  4.9643034307E+00
                       5.1716357639E+00  2.4585484530E+00  4.9643034307E+00
                       2.4585484530E+00  5.1716357639E+00  4.9643034307E+00
                      -7.6233713869E-13 -7.6233713869E-13 -8.8851087774E-02
            xcart1     4.9308526880E+00  4.9308526880E+00  4.6329095772E+00
                       1.4792558064E+01  1.4792558064E+01  1.4106643348E+01
                       9.8617053760E+00  9.8617053760E+00  5.2220098681E+00
                       9.8617053758E+00  9.8617053758E+00  1.4144447931E+01
                       1.5069763184E+01  9.8617053760E+00  9.4617832861E+00
                       9.8617053760E+00  1.5069763184E+01  9.4617832861E+00
                       9.8617053758E+00  4.6536475681E+00  9.4617832861E+00
                       4.6536475681E+00  9.8617053758E+00  9.4617832861E+00
                       4.1291130796E-12  4.1291130796E-12 -1.6327370147E-01
            xcart2     4.9259631878E+00  4.9259631878E+00  4.6287978657E+00
                       1.4777889563E+01  1.4777889563E+01  1.4092870553E+01
                       9.8519263756E+00  9.8519263756E+00  5.2187403101E+00
                       9.8519263755E+00  9.8519263755E+00  1.4125142242E+01
                       1.5050898255E+01  9.8519263757E+00  9.4527078696E+00
                       9.8519263757E+00  1.5050898255E+01  9.4527078696E+00
                       9.8519263755E+00  4.6529544962E+00  9.4527078696E+00
                       4.6529544962E+00  9.8519263755E+00  9.4527078696E+00
                       3.0575192418E-12  3.0575192418E-12 -1.6380094864E-01
            xcart3     4.9210528135E+00  4.9210528135E+00  4.6251230231E+00
                       1.4763158440E+01  1.4763158440E+01  1.4079614841E+01
                       9.8421056270E+00  9.8421056270E+00  5.2155738656E+00
                       9.8421056269E+00  9.8421056269E+00  1.4105818790E+01
                       1.5032175044E+01  9.8421056270E+00  9.4435759487E+00
                       9.8421056270E+00  1.5032175044E+01  9.4435759487E+00
                       9.8421056269E+00  4.6520362100E+00  9.4435759487E+00
                       4.6520362100E+00  9.8421056269E+00  9.4435759487E+00
                       1.8187578271E-12  1.8187578271E-12 -1.6449977387E-01
            xcart4     4.9161329136E+00  4.9161329136E+00  4.6210916836E+00
                       1.4748398741E+01  1.4748398741E+01  1.4066039232E+01
                       9.8322658274E+00  9.8322658274E+00  5.2124161371E+00
                       9.8322658272E+00  9.8322658272E+00  1.4086790781E+01
                       1.5013350614E+01  9.8322658274E+00  9.4345769648E+00
                       9.8322658274E+00  1.5013350614E+01  9.4345769648E+00
                       9.8322658272E+00  4.6511810405E+00  9.4345769648E+00
                       4.6511810405E+00  9.8322658272E+00  9.4345769648E+00
                       3.5167207729E-12  3.5167207729E-12 -1.6506530741E-01
            xcart5     4.9112777376E+00  4.9112777376E+00  4.6169319334E+00
                       1.4733833213E+01  1.4733833213E+01  1.4052086526E+01
                       9.8225554751E+00  9.8225554751E+00  5.2092846401E+00
                       9.8225554752E+00  9.8225554752E+00  1.4067226735E+01
                       1.4994779775E+01  9.8225554751E+00  9.4253243679E+00
                       9.8225554751E+00  1.4994779775E+01  9.4253243679E+00
                       9.8225554752E+00  4.6503311756E+00  9.4253243679E+00
                       4.6503311756E+00  9.8225554752E+00  9.4253243679E+00
                      -5.4152778203E-13 -5.4152778203E-13 -1.6559056863E-01
            xcart6     4.9063880008E+00  4.9063880008E+00  4.6125548464E+00
                       1.4719164002E+01  1.4719164002E+01  1.4038049282E+01
                       9.8127760017E+00  9.8127760017E+00  5.2061807791E+00
                       9.8127760017E+00  9.8127760017E+00  1.4048149061E+01
                       1.4976085174E+01  9.8127760017E+00  9.4162554919E+00
                       9.8127760017E+00  1.4976085174E+01  9.4162554919E+00
                       9.8127760017E+00  4.6494668290E+00  9.4162554919E+00
                       4.6494668290E+00  9.8127760017E+00  9.4162554919E+00
                      -7.1388796164E-14 -7.1388796164E-14 -1.6600044869E-01
            xcart7     4.9014110774E+00  4.9014110774E+00  4.6084515865E+00
                       1.4704233232E+01  1.4704233232E+01  1.4024620853E+01
                       9.8028221549E+00  9.8028221549E+00  5.2030325310E+00
                       9.8028221548E+00  9.8028221548E+00  1.4029723114E+01
                       1.4957064033E+01  9.8028221549E+00  9.4074967539E+00
                       9.8028221549E+00  1.4957064033E+01  9.4074967539E+00
                       9.8028221548E+00  4.6485802763E+00  9.4074967539E+00
                       4.6485802763E+00  9.8028221548E+00  9.4074967539E+00
                       1.6853991161E-12  1.6853991161E-12 -1.6646096881E-01
            xcart8     4.8965089626E+00  4.8965089626E+00  4.6042336275E+00
                       1.4689526888E+01  1.4689526888E+01  1.4010790296E+01
                       9.7930179251E+00  9.7930179251E+00  5.1998296073E+00
                       9.7930179253E+00  9.7930179253E+00  1.4010788124E+01
                       1.4938325453E+01  9.7930179251E+00  9.3984284618E+00
                       9.7930179251E+00  1.4938325453E+01  9.3984284618E+00
                       9.7930179253E+00  4.6477103976E+00  9.3984284618E+00
                       4.6477103976E+00  9.7930179253E+00  9.3984284618E+00
                      -3.7255884960E-12 -3.7255884960E-12 -1.6690215024E-01
            xcart9     4.8914672693E+00  4.8914672693E+00  4.6002782953E+00
                       1.4674401808E+01  1.4674401808E+01  1.3997758662E+01
                       9.7829345385E+00  9.7829345385E+00  5.1967405260E+00
                       9.7829345387E+00  9.7829345387E+00  1.3992796847E+01
                       1.4919006000E+01  9.7829345385E+00  9.3899034636E+00
                       9.7829345385E+00  1.4919006000E+01  9.3899034636E+00
                       9.7829345387E+00  4.6468630774E+00  9.3899034636E+00
                       4.6468630774E+00  9.7829345387E+00  9.3899034636E+00
                      -2.6058765291E-12 -2.6058765291E-12 -1.6734524917E-01
            xcart10    4.8864876264E+00  4.8864876264E+00  4.5962990868E+00
                       1.4659462879E+01  1.4659462879E+01  1.3984464746E+01
                       9.7729752527E+00  9.7729752527E+00  5.1935166100E+00
                       9.7729752528E+00  9.7729752528E+00  1.3974253355E+01
                       1.4899967245E+01  9.7729752527E+00  9.3811739246E+00
                       9.7729752527E+00  1.4899967245E+01  9.3811739246E+00
                       9.7729752528E+00  4.6459832606E+00  9.3811739246E+00
                       4.6459832606E+00  9.7729752528E+00  9.3811739246E+00
                      -1.4406084131E-12 -1.4406084131E-12 -1.6790422250E-01
             xred1     2.4451339299E-01  2.4451339299E-01  2.5548660701E-01
                       7.4451339299E-01  7.4451339299E-01  7.5548660701E-01
                       2.7560463458E-01  2.7560463458E-01  7.2439536542E-01
                       7.4650862443E-01  7.4650862443E-01  2.5349137557E-01
                       2.3531465938E-01  7.6342390715E-01  7.6468534062E-01
                       7.6342390715E-01  2.3531465938E-01  7.6468534062E-01
                       2.3531465938E-01  7.6342390715E-01  2.3657609285E-01
                       7.6342390715E-01  2.3531465938E-01  2.3657609285E-01
                      -8.6171780535E-03 -8.6171780535E-03  8.6171780535E-03
             xred2     2.4454576896E-01  2.4454576896E-01  2.5545423104E-01
                       7.4454576896E-01  7.4454576896E-01  7.5545423104E-01
                       2.7571324114E-01  2.7571324114E-01  7.2428675886E-01
                       7.4625072672E-01  7.4625072672E-01  2.5374927328E-01
                       2.3554398155E-01  7.6325518047E-01  7.6445601845E-01
                       7.6325518047E-01  2.3554398155E-01  7.6445601845E-01
                       2.3554398155E-01  7.6325518047E-01  2.3674481953E-01
                       7.6325518047E-01  2.3554398155E-01  2.3674481953E-01
                      -8.6538298072E-03 -8.6538298072E-03  8.6538298072E-03
             xred3     2.4459923983E-01  2.4459923983E-01  2.5540076017E-01
                       7.4459923983E-01  7.4459923983E-01  7.5540076017E-01
                       2.7582518269E-01  2.7582518269E-01  7.2417481731E-01
                       7.4598503348E-01  7.4598503348E-01  2.5401496652E-01
                       2.3575609681E-01  7.6308933359E-01  7.6424390319E-01
                       7.6308933359E-01  2.3575609681E-01  7.6424390319E-01
                       2.3575609681E-01  7.6308933359E-01  2.3691066641E-01
                       7.6308933359E-01  2.3575609681E-01  2.3691066641E-01
                      -8.6995566256E-03 -8.6995566256E-03  8.6995566256E-03
             xred4     2.4463299876E-01  2.4463299876E-01  2.5536700124E-01
                       7.4463299876E-01  7.4463299876E-01  7.5536700124E-01
                       2.7593674346E-01  2.7593674346E-01  7.2406325654E-01
                       7.4573155165E-01  7.4573155165E-01  2.5426844835E-01
                       2.3597740653E-01  7.6292459020E-01  7.6402259347E-01
                       7.6292459020E-01  2.3597740653E-01  7.6402259347E-01
                       2.3597740653E-01  7.6292459020E-01  2.3707540980E-01
                       7.6292459020E-01  2.3597740653E-01  2.3707540980E-01
                      -8.7382860819E-03 -8.7382860819E-03  8.7382860819E-03
             xred5     2.4466646987E-01  2.4466646987E-01  2.5533353013E-01
                       7.4466646987E-01  7.4466646987E-01  7.5533353013E-01
                       2.7605719595E-01  2.7605719595E-01  7.2394280405E-01
                       7.4546879955E-01  7.4546879955E-01  2.5453120045E-01
                       2.3619603580E-01  7.6276209212E-01  7.6380396420E-01
                       7.6276209212E-01  2.3619603580E-01  7.6380396420E-01
                       2.3619603580E-01  7.6276209212E-01  2.3723790788E-01
                       7.6276209212E-01  2.3619603580E-01  2.3723790788E-01
                      -8.7751910692E-03 -8.7751910692E-03  8.7751910692E-03
             xred6     2.4468503365E-01  2.4468503365E-01  2.5531496635E-01
                       7.4468503365E-01  7.4468503365E-01  7.5531496635E-01
                       2.7617547358E-01  2.7617547358E-01  7.2382452642E-01
                       7.4522080281E-01  7.4522080281E-01  2.5477919719E-01
                       2.3641873960E-01  7.6260105251E-01  7.6358126040E-01
                       7.6260105251E-01  2.3641873960E-01  7.6358126040E-01
                       2.3641873960E-01  7.6260105251E-01  2.3739894749E-01
                       7.6260105251E-01  2.3641873960E-01  2.3739894749E-01
                      -8.8059278915E-03 -8.8059278915E-03  8.8059278915E-03
             xred7     2.4470947028E-01  2.4470947028E-01  2.5529052972E-01
                       7.4470947028E-01  7.4470947028E-01  7.5529052972E-01
                       2.7628180759E-01  2.7628180759E-01  7.2371819241E-01
                       7.4498040113E-01  7.4498040113E-01  2.5501959887E-01
                       2.3664367129E-01  7.6243530528E-01  7.6335632871E-01
                       7.6243530528E-01  2.3664367129E-01  7.6335632871E-01
                       2.3664367129E-01  7.6243530528E-01  2.3756469472E-01
                       7.6243530528E-01  2.3664367129E-01  2.3756469472E-01
                      -8.8391024048E-03 -8.8391024048E-03  8.8391024048E-03
             xred8     2.4473533672E-01  2.4473533672E-01  2.5526466328E-01
                       7.4473533672E-01  7.4473533672E-01  7.5526466328E-01
                       2.7639389153E-01  2.7639389153E-01  7.2360610847E-01
                       7.4473522122E-01  7.4473522122E-01  2.5526477878E-01
                       2.3686509535E-01  7.6227080449E-01  7.6313490465E-01
                       7.6227080449E-01  2.3686509535E-01  7.6313490465E-01
                       2.3686509535E-01  7.6227080449E-01  2.3772919551E-01
                       7.6227080449E-01  2.3686509535E-01  2.3772919551E-01
                      -8.8715858582E-03 -8.8715858582E-03  8.8715858582E-03
             xred9     2.4476126130E-01  2.4476126130E-01  2.5523873870E-01
                       7.4476126130E-01  7.4476126130E-01  7.5523873870E-01
                       2.7649648220E-01  2.7649648220E-01  7.2350351780E-01
                       7.4449726421E-01  7.4449726421E-01  2.5550273579E-01
                       2.3709528954E-01  7.6209844079E-01  7.6290471046E-01
                       7.6209844079E-01  2.3709528954E-01  7.6290471046E-01
                       2.3709528954E-01  7.6209844079E-01  2.3790155921E-01
                       7.6209844079E-01  2.3709528954E-01  2.3790155921E-01
                      -8.9037296509E-03 -8.9037296509E-03  8.9037296509E-03
             xred10    2.4479218059E-01  2.4479218059E-01  2.5520781941E-01
                       7.4479218059E-01  7.4479218059E-01  7.5520781941E-01
                       2.7659911417E-01  2.7659911417E-01  7.2340088583E-01
                       7.4424833679E-01  7.4424833679E-01  2.5575166321E-01
                       2.3732306812E-01  7.6193219273E-01  7.6267693188E-01
                       7.6193219273E-01  2.3732306812E-01  7.6267693188E-01
                       2.3732306812E-01  7.6193219273E-01  2.3806780727E-01
                       7.6193219273E-01  2.3732306812E-01  2.3806780727E-01
                      -8.9423338168E-03 -8.9423338168E-03  8.9423338168E-03
            znucl       55.00000   53.00000   40.00000   17.00000

================================================================================


- Timing analysis has been suppressed with timopt=0



================================================================================

 Suggested references for the acknowledgment of ABINIT usage.

 The users of ABINIT have little formal obligations with respect to the ABINIT group
 (those specified in the GNU General Public License, http://www.gnu.org/copyleft/gpl.txt).
 However, it is common practice in the scientific literature,
 to acknowledge the efforts of people that have made the research possible.
 In this spirit, please find below suggested citations of work written by ABINIT developers,
 corresponding to implementations inside of ABINIT that you have used in the present run.
 Note also that it will be of great value to readers of publications presenting these results,
 to read papers enabling them to understand the theoretical formalism and details
 of the ABINIT implementation.
 For information on why they are suggested, see also https://docs.abinit.org/theory/acknowledgments.
-
- [1] Implementation of the Projector Augmented-Wave Method in the ABINIT code.
- M. Torrent, F. Jollet, F. Bottin, G. Zerah, and X. Gonze Comput. Mat. Science 42, 337, (2008).
- Comment: PAW calculations. Strong suggestion to cite this paper.
- DOI and bibtex: see https://docs.abinit.org/theory/bibliography/#torrent2008
-
- [2] Libxc: A library of exchange and correlation functionals for density functional theory.
- M.A.L. Marques, M.J.T. Oliveira, T. Burnus, Computer Physics Communications 183, 2227 (2012).
- Comment: to be cited when LibXC is used (negative value of ixc)
- Strong suggestion to cite this paper.
- DOI and bibtex: see https://docs.abinit.org/theory/bibliography/#marques2012
-
- [3] The Abinit project: Impact, environment and recent developments.
- Computer Phys. Comm. 248, 107042 (2020).
- X.Gonze, B. Amadon, G. Antonius, F.Arnardi, L.Baguet, J.-M.Beuken,
- J.Bieder, F.Bottin, J.Bouchet, E.Bousquet, N.Brouwer, F.Bruneval,
- G.Brunin, T.Cavignac, J.-B. Charraud, Wei Chen, M.Cote, S.Cottenier,
- J.Denier, G.Geneste, Ph.Ghosez, M.Giantomassi, Y.Gillet, O.Gingras,
- D.R.Hamann, G.Hautier, Xu He, N.Helbig, N.Holzwarth, Y.Jia, F.Jollet,
- W.Lafargue-Dit-Hauret, K.Lejaeghere, M.A.L.Marques, A.Martin, C.Martins,
- H.P.C. Miranda, F.Naccarato, K. Persson, G.Petretto, V.Planes, Y.Pouillon,
- S.Prokhorenko, F.Ricci, G.-M.Rignanese, A.H.Romero, M.M.Schmitt, M.Torrent,
- M.J.van Setten, B.Van Troeye, M.J.Verstraete, G.Zerah and J.W.Zwanzig
- Comment: the fifth generic paper describing the ABINIT project.
- Note that a version of this paper, that is not formatted for Computer Phys. Comm. 
- is available at https://www.abinit.org/sites/default/files/ABINIT20.pdf .
- The licence allows the authors to put it on the Web.
- DOI and bibtex: see https://docs.abinit.org/theory/bibliography/#gonze2020
-
- [4] ABINIT: Overview, and focus on selected capabilities
- J. Chem. Phys. 152, 124102 (2020).
- A. Romero, D.C. Allan, B. Amadon, G. Antonius, T. Applencourt, L.Baguet,
- J.Bieder, F.Bottin, J.Bouchet, E.Bousquet, F.Bruneval,
- G.Brunin, D.Caliste, M.Cote,
- J.Denier, C. Dreyer, Ph.Ghosez, M.Giantomassi, Y.Gillet, O.Gingras,
- D.R.Hamann, G.Hautier, F.Jollet, G. Jomard,
- A.Martin, 
- H.P.C. Miranda, F.Naccarato, G.Petretto, N.A. Pike, V.Planes,
- S.Prokhorenko, T. Rangel, F.Ricci, G.-M.Rignanese, M.Royo, M.Stengel, M.Torrent,
- M.J.van Setten, B.Van Troeye, M.J.Verstraete, J.Wiktor, J.W.Zwanziger, and X.Gonze.
- Comment: a global overview of ABINIT, with focus on selected capabilities .
- Note that a version of this paper, that is not formatted for J. Chem. Phys 
- is available at https://www.abinit.org/sites/default/files/ABINIT20_JPC.pdf .
- The licence allows the authors to put it on the Web.
- DOI and bibtex: see https://docs.abinit.org/theory/bibliography/#romero2020
-
- [5] Recent developments in the ABINIT software package.
- Computer Phys. Comm. 205, 106 (2016).
- X.Gonze, F.Jollet, F.Abreu Araujo, D.Adams, B.Amadon, T.Applencourt,
- C.Audouze, J.-M.Beuken, J.Bieder, A.Bokhanchuk, E.Bousquet, F.Bruneval
- D.Caliste, M.Cote, F.Dahm, F.Da Pieve, M.Delaveau, M.Di Gennaro,
- B.Dorado, C.Espejo, G.Geneste, L.Genovese, A.Gerossier, M.Giantomassi,
- Y.Gillet, D.R.Hamann, L.He, G.Jomard, J.Laflamme Janssen, S.Le Roux,
- A.Levitt, A.Lherbier, F.Liu, I.Lukacevic, A.Martin, C.Martins,
- M.J.T.Oliveira, S.Ponce, Y.Pouillon, T.Rangel, G.-M.Rignanese,
- A.H.Romero, B.Rousseau, O.Rubel, A.A.Shukri, M.Stankovski, M.Torrent,
- M.J.Van Setten, B.Van Troeye, M.J.Verstraete, D.Waroquier, J.Wiktor,
- B.Xu, A.Zhou, J.W.Zwanziger.
- Comment: the fourth generic paper describing the ABINIT project.
- Note that a version of this paper, that is not formatted for Computer Phys. Comm. 
- is available at https://www.abinit.org/sites/default/files/ABINIT16.pdf .
- The licence allows the authors to put it on the Web.
- DOI and bibtex: see https://docs.abinit.org/theory/bibliography/#gonze2016
-
- Proc.   0 individual time (sec): cpu=       7903.5  wall=       7915.5

================================================================================

 Calculation completed.
.Delivered   0 WARNINGs and   0 COMMENTs to log file.
+Overall time at end (sec) : cpu=      31614.2  wall=      31662.2
