
.Version 9.2.2 of ABINIT 
.(MPI version, prepared for a x86_64_linux_gnu9.3 computer) 

.Copyright (C) 1998-2020 ABINIT group . 
 ABINIT comes with ABSOLUTELY NO WARRANTY.
 It is free software, and you are welcome to redistribute it
 under certain conditions (GNU General Public License,
 see ~abinit/COPYING or http://www.gnu.org/copyleft/gpl.txt).

 ABINIT is a project of the Universite Catholique de Louvain,
 Corning Inc. and other collaborators, see ~abinit/doc/developers/contributors.txt .
 Please read https://docs.abinit.org/theory/acknowledgments for suggested
 acknowledgments of the ABINIT effort.
 For more information, see https://www.abinit.org .

.Starting date : Mon  3 Oct 2022.
- ( at 23h00 )
  
- input  file    -> Cs2TiI6.in
- output file    -> Cs2TiI6.out
- root for input  files -> Cs2TiI6i
- root for output files -> Cs2TiI6o

- inpspheads : Reading pseudopotential header in XML form from 
-   ../../../Psps_for_tests/ATOMICDATA/Cs.GGA_PBE-JTH.xml
- inpspheads : Reading pseudopotential header in XML form from 
-   ../../../Psps_for_tests/ATOMICDATA/I.GGA_PBE-JTH.xml
- inpspheads : Reading pseudopotential header in XML form from 
-   ../../../Psps_for_tests/ATOMICDATA/Hf.GGA_PBE-JTH.xml
- inpspheads : Reading pseudopotential header in XML form from 
-   ../../../Psps_for_tests/ATOMICDATA/Br.GGA_PBE-JTH.xml

 DATASET    1 : space group I4 m m (#107); Bravais tI (body-center tetrag.)
================================================================================
 Values of the parameters that define the memory need for DATASET  1.
     intxc =       0    ionmov =       0      iscf =      17    lmnmax =      18
     lnmax =       6     mgfft =      60  mpssoang =       3    mqgrid =    3540
     natom =       9  nloc_mem =       2    nspden =       1   nspinor =       1
    nsppol =       1      nsym =       8    n1xccc =       1    ntypat =       4
    occopt =       1   xclevel =       2
-    mband =          42        mffmem =           1         mkmem =          28
       mpw =        7676          nfft =      216000          nkpt =         163
Pmy_natom=         2
 PAW method is used; the additional fine FFT grid is defined by:
   mgfftf=        90    nfftf =    729000
================================================================================
P This job should need less than                     365.793 Mbytes of memory.
  Rough estimation (10% accuracy) of disk space for files :
_ WF disk file :    801.850 Mbytes ; DEN or POT disk file :      5.564 Mbytes.
================================================================================


 DATASET    2 : space group I4 m m (#107); Bravais tI (body-center tetrag.)
================================================================================
 Values of the parameters that define the memory need for DATASET  2.
     intxc =       0    ionmov =       0      iscf =      17    lmnmax =      18
     lnmax =       6     mgfft =      60  mpssoang =       3    mqgrid =    3540
     natom =       9  nloc_mem =       2    nspden =       1   nspinor =       1
    nsppol =       1      nsym =       8    n1xccc =       1    ntypat =       4
    occopt =       1   xclevel =       2
-    mband =          42        mffmem =           1         mkmem =          28
       mpw =        7676          nfft =      216000          nkpt =         163
Pmy_natom=         2
 PAW method is used; the additional fine FFT grid is defined by:
   mgfftf=        90    nfftf =    729000
================================================================================
P This job should need less than                     365.793 Mbytes of memory.
  Rough estimation (10% accuracy) of disk space for files :
_ WF disk file :    801.850 Mbytes ; DEN or POT disk file :      5.564 Mbytes.
================================================================================

--------------------------------------------------------------------------------
------------- Echo of variables that govern the present computation ------------
--------------------------------------------------------------------------------
-
- outvars: echo of selected default values                                      
-   iomode0 =  0 , fftalg0 =112 , wfoptalg0 = 10
-
- outvars: echo of global parameters not present in the input file              
-  max_nthreads =    0
-
 -outvars: echo values of preprocessed input variables --------
            acell1     1.5221659112E+01  1.5229553761E+01  1.5221659112E+01 Bohr
            acell2     1.5221659101E+01  1.5221659101E+01  1.5229553780E+01 Bohr
              amu      1.32905430E+02  1.26904470E+02  1.78490000E+02
                       7.99040000E+01
           diemac      1.20000000E+01
             ecut      1.60000000E+01 Hartree
-          fftalg         112
           istwfk        2    0    0    0    0    0    3    0    0    0
                         0    0    0    0    0    0    0    0    0    0
                         0    0    0    0    0    0    0    0    0    0
                         0    0    0    0    0    0    0    0    0    0
                         0    0    7    0    0    0    0    0    0    0
                       outvar_i_n : Printing only first  50 k-points.
              ixc     -101130
           jdtset        1    2
              kpt      0.00000000E+00  0.00000000E+00  0.00000000E+00
                       8.33333333E-02  0.00000000E+00  0.00000000E+00
                       1.66666667E-01  0.00000000E+00  0.00000000E+00
                       2.50000000E-01  0.00000000E+00  0.00000000E+00
                       3.33333333E-01  0.00000000E+00  0.00000000E+00
                       4.16666667E-01  0.00000000E+00  0.00000000E+00
                       5.00000000E-01  0.00000000E+00  0.00000000E+00
                       8.33333333E-02  8.33333333E-02  0.00000000E+00
                       1.66666667E-01  8.33333333E-02  0.00000000E+00
                       2.50000000E-01  8.33333333E-02  0.00000000E+00
                       3.33333333E-01  8.33333333E-02  0.00000000E+00
                       4.16666667E-01  8.33333333E-02  0.00000000E+00
                       5.00000000E-01  8.33333333E-02  0.00000000E+00
                      -4.16666667E-01  8.33333333E-02  0.00000000E+00
                      -3.33333333E-01  8.33333333E-02  0.00000000E+00
                      -2.50000000E-01  8.33333333E-02  0.00000000E+00
                      -1.66666667E-01  8.33333333E-02  0.00000000E+00
                      -8.33333333E-02  8.33333333E-02  0.00000000E+00
                       1.66666667E-01  1.66666667E-01  0.00000000E+00
                       2.50000000E-01  1.66666667E-01  0.00000000E+00
                       3.33333333E-01  1.66666667E-01  0.00000000E+00
                       4.16666667E-01  1.66666667E-01  0.00000000E+00
                       5.00000000E-01  1.66666667E-01  0.00000000E+00
                      -4.16666667E-01  1.66666667E-01  0.00000000E+00
                      -3.33333333E-01  1.66666667E-01  0.00000000E+00
                      -2.50000000E-01  1.66666667E-01  0.00000000E+00
                      -1.66666667E-01  1.66666667E-01  0.00000000E+00
                       2.50000000E-01  2.50000000E-01  0.00000000E+00
                       3.33333333E-01  2.50000000E-01  0.00000000E+00
                       4.16666667E-01  2.50000000E-01  0.00000000E+00
                       5.00000000E-01  2.50000000E-01  0.00000000E+00
                      -4.16666667E-01  2.50000000E-01  0.00000000E+00
                      -3.33333333E-01  2.50000000E-01  0.00000000E+00
                      -2.50000000E-01  2.50000000E-01  0.00000000E+00
                       3.33333333E-01  3.33333333E-01  0.00000000E+00
                       4.16666667E-01  3.33333333E-01  0.00000000E+00
                       5.00000000E-01  3.33333333E-01  0.00000000E+00
                      -4.16666667E-01  3.33333333E-01  0.00000000E+00
                      -3.33333333E-01  3.33333333E-01  0.00000000E+00
                       4.16666667E-01  4.16666667E-01  0.00000000E+00
                       5.00000000E-01  4.16666667E-01  0.00000000E+00
                      -4.16666667E-01  4.16666667E-01  0.00000000E+00
                       5.00000000E-01  5.00000000E-01  0.00000000E+00
                       8.33333333E-02  0.00000000E+00  8.33333333E-02
                       1.66666667E-01  0.00000000E+00  8.33333333E-02
                       2.50000000E-01  0.00000000E+00  8.33333333E-02
                       3.33333333E-01  0.00000000E+00  8.33333333E-02
                       4.16666667E-01  0.00000000E+00  8.33333333E-02
                       5.00000000E-01  0.00000000E+00  8.33333333E-02
                      -4.16666667E-01  0.00000000E+00  8.33333333E-02
                       outvar_i_n : Printing only first  50 k-points.
         kptrlatt       12    0    0      0   12    0      0    0   12
          kptrlen1     1.82659909E+02
          kptrlen2     1.82659909E+02
P           mkmem          28
            natom           9
            nband          42
           ndtset           2
            ngfft          60      60      60
          ngfftdg          90      90      90
             nkpt         163
            nstep        2500
             nsym           8
           ntypat           4
              occ      2.000000  2.000000  2.000000  2.000000  2.000000  2.000000
                       2.000000  2.000000  2.000000  2.000000  2.000000  2.000000
                       2.000000  2.000000  2.000000  2.000000  2.000000  2.000000
                       2.000000  2.000000  2.000000  2.000000  2.000000  2.000000
                       2.000000  2.000000  2.000000  2.000000  2.000000  2.000000
                       2.000000  2.000000  2.000000  2.000000  2.000000  2.000000
                       0.000000  0.000000  0.000000  0.000000  0.000000  0.000000
        pawecutdg      4.00000000E+01 Hartree
            prtwf           0
            rprim1     0.0000000000E+00  7.0673985296E-01  7.0747351911E-01
                       7.0710678119E-01  0.0000000000E+00  7.0710678119E-01
                       7.0747351911E-01  7.0673985296E-01  0.0000000000E+00
            rprim2     0.0000000000E+00  7.0747352050E-01  7.0673985156E-01
                       7.0747352050E-01  0.0000000000E+00  7.0673985156E-01
                       7.0710678119E-01  7.0710678119E-01  0.0000000000E+00
          spgroup         107
           symrel1     1  0  0   0  1  0   0  0  1       0  0  1   0  1  0   1  0  0
                       0 -1  1   0 -1  0   1 -1  0       1 -1  0   0 -1  0   0 -1  1
                       0 -1  1  -1  0  1   0  0  1       0  0  1  -1  0  1   0 -1  1
                       1  0  0   1  0 -1   1 -1  0       1 -1  0   1  0 -1   1  0  0
           symrel2     1  0  0   0  1  0   0  0  1       1  0 -1   0  1 -1   0  0 -1
                       0  1 -1   1  0 -1   0  0 -1       0  1  0   1  0  0   0  0  1
                       1  0  0   1  0 -1   1 -1  0       0  1  0   0  1 -1  -1  1  0
                       0  1 -1   0  1  0  -1  1  0       1  0 -1   1  0  0   1 -1  0
           toldfe      1.00000000E-08 Hartree
            typat1     1  1  2  4  4  4  4  4  3
            typat2     1  1  4  2  4  4  4  4  3
           useylm           1
              wtk1       0.00058    0.00463    0.00463    0.00463    0.00463    0.00463
                         0.00231    0.00231    0.00926    0.00926    0.00926    0.00926
                         0.00926    0.00926    0.00926    0.00926    0.00926    0.00463
                         0.00231    0.00926    0.00926    0.00926    0.00926    0.00926
                         0.00926    0.00926    0.00463    0.00231    0.00926    0.00926
                         0.00926    0.00926    0.00926    0.00463    0.00231    0.00926
                         0.00926    0.00926    0.00463    0.00231    0.00926    0.00463
                         0.00116    0.00116    0.00463    0.00463    0.00463    0.00463
                         0.00463    0.00463
              wtk2       0.00058    0.00463    0.00463    0.00463    0.00463    0.00463
                         0.00231    0.00116    0.00463    0.00463    0.00463    0.00463
                         0.00463    0.00463    0.00463    0.00463    0.00463    0.00231
                         0.00116    0.00463    0.00463    0.00463    0.00463    0.00463
                         0.00463    0.00463    0.00231    0.00116    0.00463    0.00463
                         0.00463    0.00463    0.00463    0.00231    0.00116    0.00463
                         0.00463    0.00463    0.00231    0.00116    0.00463    0.00231
                         0.00058    0.00231    0.00926    0.00926    0.00926    0.00926
                         0.00926    0.00926
                       outvars : Printing only first  50 k-points.
           xangst1     2.8493337080E+00  2.8748148099E+00  2.8493337080E+00
                       8.5480011241E+00  8.5675725781E+00  8.5480011241E+00
                       5.6986674160E+00  8.5430530396E+00  5.6986674160E+00
                       5.6986674160E+00  5.7072604215E+00  2.6233211291E+00
                       5.6986674161E+00  5.7072604215E+00  8.7740137031E+00
                       5.6986674161E+00  2.6726135304E+00  5.6986674161E+00
                       8.7740137031E+00  5.7072604215E+00  5.6986674161E+00
                       2.6233211291E+00  5.7072604215E+00  5.6986674160E+00
                      -6.1653561800E-13  5.4966501052E-02 -6.1653561800E-13
           xangst2     2.8493337116E+00  2.8493337116E+00  2.8179429459E+00
                       8.5480011348E+00  8.5480011348E+00  8.5107006987E+00
                       5.6986674232E+00  8.7740137197E+00  5.6782550999E+00
                       5.6986674232E+00  5.6986674232E+00  2.8424624954E+00
                       5.6986674231E+00  5.6986674231E+00  8.7129019811E+00
                       5.6986674231E+00  2.6233211267E+00  5.6782550999E+00
                       8.7740137197E+00  5.6986674232E+00  5.6782550999E+00
                       2.6233211267E+00  5.6986674231E+00  5.6782550999E+00
                       7.6760745559E-13  7.6760745559E-13 -5.4966498562E-02
            xcart1     5.3844603694E+00  5.4326126735E+00  5.3844603694E+00
                       1.6153381108E+01  1.6190365796E+01  1.6153381108E+01
                       1.0768920739E+01  1.6144030583E+01  1.0768920739E+01
                       1.0768920739E+01  1.0785159166E+01  4.9573584926E+00
                       1.0768920739E+01  1.0785159166E+01  1.6580482985E+01
                       1.0768920739E+01  5.0505076316E+00  1.0768920739E+01
                       1.6580482985E+01  1.0785159166E+01  1.0768920739E+01
                       4.9573584926E+00  1.0785159166E+01  1.0768920739E+01
                      -1.1650834692E-12  1.0387163347E-01 -1.1650834692E-12
            xcart2     5.3844603761E+00  5.3844603761E+00  5.3251404259E+00
                       1.6153381128E+01  1.6153381128E+01  1.6082893519E+01
                       1.0768920752E+01  1.6580483016E+01  1.0730347051E+01
                       1.0768920752E+01  1.0768920752E+01  5.3714756593E+00
                       1.0768920752E+01  1.0768920752E+01  1.6464998567E+01
                       1.0768920752E+01  4.9573584880E+00  1.0730347051E+01
                       1.6580483016E+01  1.0768920752E+01  1.0730347051E+01
                       4.9573584880E+00  1.0768920752E+01  1.0730347051E+01
                       1.4505678686E-12  1.4505678686E-12 -1.0387162877E-01
             xred1     2.5249755277E-01  2.4750244723E-01  2.5249755277E-01
                       7.5249755277E-01  7.4750244723E-01  7.5249755277E-01
                       7.5034397980E-01  2.4965602020E-01  7.5034397980E-01
                       2.3144348012E-01  2.2889591812E-01  7.7110408188E-01
                       7.7110408188E-01  7.6855651988E-01  2.3144348012E-01
                       2.3473803377E-01  7.6526196623E-01  2.3473803377E-01
                       2.3144348012E-01  7.6855651988E-01  7.7110408188E-01
                       7.7110408188E-01  2.2889591812E-01  2.3144348012E-01
                       4.8277568879E-03 -4.8277568879E-03  4.8277568879E-03
             xred2     2.4750244682E-01  2.4750244682E-01  2.5249755318E-01
                       7.4750244682E-01  7.4750244682E-01  7.5249755318E-01
                       7.6855652042E-01  2.2889591766E-01  7.7110408234E-01
                       2.4965602076E-01  2.4965602076E-01  7.5034397924E-01
                       7.6526196613E-01  7.6526196613E-01  2.3473803387E-01
                       2.2889591766E-01  7.6855652042E-01  2.3144347958E-01
                       2.2889591766E-01  7.6855652042E-01  7.7110408234E-01
                       7.6855652042E-01  2.2889591766E-01  2.3144347958E-01
                      -4.8277566822E-03 -4.8277566822E-03  4.8277566822E-03
            znucl       55.00000   53.00000   72.00000   35.00000

================================================================================

 chkinp: Checking input parameters for consistency, jdtset=   1.

 chkinp: Checking input parameters for consistency, jdtset=   2.

================================================================================
== DATASET  1 ==================================================================
-   mpi_nproc: 6, omp_nthreads: -1 (-1 if OMP is not activated)


--- !DatasetInfo
iteration_state: {dtset: 1, }
dimensions: {natom: 9, nkpt: 163, mband: 42, nsppol: 1, nspinor: 1, nspden: 1, mpw: 7676, }
cutoff_energies: {ecut:  16.0, pawecutdg:  40.0, }
electrons: {nelect:   7.20000000E+01, charge:   0.00000000E+00, occopt:   1.00000000E+00, tsmear:   1.00000000E-02, }
meta: {optdriver: 0, ionmov: 0, optcell: 0, iscf: 17, paral_kgb: 0, }
...

 Real(R)+Recip(G) space primitive vectors, cartesian coordinates (Bohr,Bohr^-1):
 R(1)=  0.0000000 10.7577531 10.7689207  G(1)= -0.0464299  0.0464781  0.0464299
 R(2)= 10.7689207  0.0000000 10.7689207  G(2)=  0.0464299 -0.0464781  0.0464299
 R(3)= 10.7689207 10.7577531  0.0000000  G(3)=  0.0464299  0.0464781 -0.0464299
 Unit cell volume ucvol=  2.4951458E+03 bohr^3
 Angles (23,13,12)=  5.99828419E+01  6.00343163E+01  5.99828419E+01 degrees

 Coarse grid specifications (used for wave-functions):

 getcut: wavevector=  0.0000  0.0000  0.0000  ngfft=  60  60  60
         ecut(hartree)=     16.000   => boxcut(ratio)=   2.18796

 Fine grid specifications (used for densities):

 getcut: wavevector=  0.0000  0.0000  0.0000  ngfft=  90  90  90
         ecut(hartree)=     40.000   => boxcut(ratio)=   2.07594

--- Pseudopotential description ------------------------------------------------
- pspini: atom type   1  psp file is ../../../Psps_for_tests/ATOMICDATA/Cs.GGA_PBE-JTH.xml
- pspatm: opening atomic psp file    ../../../Psps_for_tests/ATOMICDATA/Cs.GGA_PBE-JTH.xml
- pspatm : Reading pseudopotential header in XML form from ../../../Psps_for_tests/ATOMICDATA/Cs.GGA_PBE-JTH.xml
 Pseudopotential format is: paw10
 basis_size (lnmax)=  6 (lmn_size= 18), orbitals=   0   0   1   1   2   2
 Spheres core radius: rc_sph= 2.20660278
 1 radial meshes are used:
  - mesh 1: r(i)=AA*[exp(BB*(i-1))-1], size=1500 , AA= 0.15922E-03 BB= 0.87573E-02
 Shapefunction is SIN type: shapef(r)=[sin(pi*r/rshp)/(pi*r/rshp)]**2
 Radius for shape functions =  2.00394208
 mmax= 1500
 Radial grid used for partial waves is grid 1
 Radial grid used for projectors is grid 1
 Radial grid used for (t)core density is grid 1
 Radial grid used for Vloc is grid 1
 Radial grid used for pseudo valence density is grid 1
 Mesh size for Vloc has been set to 1341 to avoid numerical noise.
 Compensation charge density is not taken into account in XC energy/potential
 pspatm: atomic psp has been read  and splines computed

- pspini: atom type   2  psp file is ../../../Psps_for_tests/ATOMICDATA/I.GGA_PBE-JTH.xml
- pspatm: opening atomic psp file    ../../../Psps_for_tests/ATOMICDATA/I.GGA_PBE-JTH.xml
- pspatm : Reading pseudopotential header in XML form from ../../../Psps_for_tests/ATOMICDATA/I.GGA_PBE-JTH.xml
 Pseudopotential format is: paw10
 basis_size (lnmax)=  4 (lmn_size=  8), orbitals=   0   0   1   1
 Spheres core radius: rc_sph= 2.30022271
 1 radial meshes are used:
  - mesh 1: r(i)=AA*[exp(BB*(i-1))-1], size=2000 , AA= 0.12610E-03 BB= 0.66836E-02
 Shapefunction is SIN type: shapef(r)=[sin(pi*r/rshp)/(pi*r/rshp)]**2
 Radius for shape functions =  2.10879093
 mmax= 2000
 Radial grid used for partial waves is grid 1
 Radial grid used for projectors is grid 1
 Radial grid used for (t)core density is grid 1
 Radial grid used for Vloc is grid 1
 Radial grid used for pseudo valence density is grid 1
 Mesh size for Vloc has been set to 1792 to avoid numerical noise.
 Compensation charge density is not taken into account in XC energy/potential
 pspatm: atomic psp has been read  and splines computed

- pspini: atom type   3  psp file is ../../../Psps_for_tests/ATOMICDATA/Hf.GGA_PBE-JTH.xml
- pspatm: opening atomic psp file    ../../../Psps_for_tests/ATOMICDATA/Hf.GGA_PBE-JTH.xml
- pspatm : Reading pseudopotential header in XML form from ../../../Psps_for_tests/ATOMICDATA/Hf.GGA_PBE-JTH.xml
 Pseudopotential format is: paw10
 basis_size (lnmax)=  6 (lmn_size= 18), orbitals=   0   0   1   1   2   2
 Spheres core radius: rc_sph= 2.41000000
 1 radial meshes are used:
  - mesh 1: r(i)=AA*[exp(BB*(i-1))-1], size= 972 , AA= 0.19796E-03 BB= 0.14253E-01
 Shapefunction is SIN type: shapef(r)=[sin(pi*r/rshp)/(pi*r/rshp)]**2
 Radius for shape functions =  2.41000000
 mmax=  972
 Radial grid used for partial waves is grid 1
 Radial grid used for projectors is grid 1
 Radial grid used for (t)core density is grid 1
 Radial grid used for Vloc is grid 1
 Radial grid used for pseudo valence density is grid 1
 Mesh size for Vloc has been set to  809 to avoid numerical noise.
 Compensation charge density is not taken into account in XC energy/potential
 pspatm: atomic psp has been read  and splines computed

- pspini: atom type   4  psp file is ../../../Psps_for_tests/ATOMICDATA/Br.GGA_PBE-JTH.xml
- pspatm: opening atomic psp file    ../../../Psps_for_tests/ATOMICDATA/Br.GGA_PBE-JTH.xml
- pspatm : Reading pseudopotential header in XML form from ../../../Psps_for_tests/ATOMICDATA/Br.GGA_PBE-JTH.xml
 Pseudopotential format is: paw10
 basis_size (lnmax)=  4 (lmn_size=  8), orbitals=   0   0   1   1
 Spheres core radius: rc_sph= 2.20000000
 1 radial meshes are used:
  - mesh 1: r(i)=AA*[exp(BB*(i-1))-1], size= 927 , AA= 0.40483E-03 BB= 0.14169E-01
 Shapefunction is BESSEL type: shapef(r,l)=aa(1,l)*jl(q(1,l)*r)+aa(2,l)*jl(q(2,l)*r)
 Radius for shape functions =  2.02066386
 mmax=  927
 Radial grid used for partial waves is grid 1
 Radial grid used for projectors is grid 1
 Radial grid used for (t)core density is grid 1
 Radial grid used for Vloc is grid 1
 Radial grid used for pseudo valence density is grid 1
 Mesh size for Vloc has been set to  763 to avoid numerical noise.
 Compensation charge density is not taken into account in XC energy/potential
 pspatm: atomic psp has been read  and splines computed

   3.08921017E+04                                ecore*ucvol(ha*bohr**3)
--------------------------------------------------------------------------------

_setup2: Arith. and geom. avg. npw (full set) are    7627.325    7627.321

================================================================================

--- !BeginCycle
iteration_state: {dtset: 1, }
solver: {iscf: 17, nstep: 2500, nline: 4, wfoptalg: 10, }
tolerances: {toldfe: 1.00E-08, }
...

     iter   Etot(hartree)      deltaE(h)  residm     nres2
 ETOT  1  -169.69884759595    -1.697E+02 5.974E+00 5.898E+00
 ETOT  2  -171.15651331375    -1.458E+00 2.391E-02 2.083E+00
 ETOT  3  -171.14736879797     9.145E-03 1.401E-02 3.749E-01
 ETOT  4  -171.14802822117    -6.594E-04 4.888E-03 9.428E-02
 ETOT  5  -171.14799747121     3.075E-05 4.554E-03 8.562E-03
 ETOT  6  -171.14807134032    -7.387E-05 3.186E-03 1.277E-03
 ETOT  7  -171.14808402055    -1.268E-05 2.336E-03 2.650E-04
 ETOT  8  -171.14808591961    -1.899E-06 1.598E-03 1.273E-05
 ETOT  9  -171.14808603204    -1.124E-07 1.761E-03 6.001E-06
 ETOT 10  -171.14808603818    -6.140E-09 1.227E-03 8.310E-07
 ETOT 11  -171.14808604164    -3.464E-09 8.106E-04 4.826E-07

 At SCF step   11, etot is converged : 
  for the second time, diff in etot=  3.464E-09 < toldfe=  1.000E-08

 Cartesian components of stress tensor (hartree/bohr^3)
  sigma(1 1)=  3.84931503E-06  sigma(3 2)=  5.56999764E-14
  sigma(2 2)=  3.87878300E-06  sigma(3 1)= -1.11284090E-13
  sigma(3 3)=  3.84931503E-06  sigma(2 1)=  5.56995596E-14


--- !ResultsGS
iteration_state: {dtset: 1, }
comment   : Summary of ground state results
lattice_vectors:
- [  0.0000000,  10.7577531,  10.7689207, ]
- [ 10.7689207,   0.0000000,  10.7689207, ]
- [ 10.7689207,  10.7577531,   0.0000000, ]
lattice_lengths: [  15.22166,   15.22955,   15.22166, ]
lattice_angles: [ 59.983,  60.034,  59.983, ] # degrees, (23, 13, 12)
lattice_volume:   2.4951458E+03
convergence: {deltae: -3.464E-09, res2:  4.826E-07, residm:  8.106E-04, diffor: null, }
etotal    :  -1.71148086E+02
entropy   :   0.00000000E+00
fermie    :  -8.48379618E-02
cartesian_stress_tensor: # hartree/bohr^3
- [  3.84931503E-06,   5.56995596E-14,  -1.11284090E-13, ]
- [  5.56995596E-14,   3.87878300E-06,   5.56999764E-14, ]
- [ -1.11284090E-13,   5.56999764E-14,   3.84931503E-06, ]
pressure_GPa:  -1.1354E-01
xred      :
- [  2.5250E-01,   2.4750E-01,   2.5250E-01, Cs]
- [  7.5250E-01,   7.4750E-01,   7.5250E-01, Cs]
- [  7.5034E-01,   2.4966E-01,   7.5034E-01,  I]
- [  2.3144E-01,   2.2890E-01,   7.7110E-01, Br]
- [  7.7110E-01,   7.6856E-01,   2.3144E-01, Br]
- [  2.3474E-01,   7.6526E-01,   2.3474E-01, Br]
- [  2.3144E-01,   7.6856E-01,   7.7110E-01, Br]
- [  7.7110E-01,   2.2890E-01,   2.3144E-01, Br]
- [  4.8278E-03,  -4.8278E-03,   4.8278E-03, Hf]
cartesian_forces: # hartree/bohr
- [  5.72678644E-22,   1.45589169E-06,  -1.70981295E-22, ]
- [  3.54888287E-22,   1.45589169E-06,   4.68090625E-23, ]
- [  5.06645086E-22,  -2.14801155E-05,  -1.04947736E-22, ]
- [ -6.00297928E-17,  -3.90987449E-06,   5.35729550E-06, ]
- [  6.00282336E-17,  -3.90987449E-06,  -5.35729550E-06, ]
- [  2.62058368E-22,  -1.33024934E-05,   1.39638981E-22, ]
- [ -5.35729550E-06,  -3.90987449E-06,   6.00277170E-17, ]
- [  5.35729550E-06,  -3.90987449E-06,  -6.00291571E-17, ]
- [ -7.11056910E-22,   4.75103235E-05,   1.11275426E-21, ]
force_length_stats: {min:   1.45589169E-06, max:   4.75103235E-05, mean:   1.24148906E-05, }
...

 Integrated electronic density in atomic spheres:
 ------------------------------------------------
 Atom  Sphere_radius  Integrated_density
    1        2.20660          5.36652259
    2        2.20660          5.36652259
    3        2.30022          4.01691072
    4        2.20000          4.93465625
    5        2.20000          4.93465625
    6        2.20000          4.93217525
    7        2.20000          4.93465625
    8        2.20000          4.93465625
    9        2.41000          9.27223681

 PAW TEST:
 ==== Compensation charge inside spheres ============
 The following values must be close to each other ...
 Compensation charge over spherical meshes =     -0.320648183576846
 Compensation charge over fine fft grid    =     -0.320606599121665

 ==== Results concerning PAW augmentation regions ====

 Total pseudopotential strength Dij (hartree):
 Atom #  1
   0.43672  -0.14464   0.00000   0.00000   0.00000  -0.00000   0.00000   0.00000   0.00000   0.00000  -0.00000   0.00000 ...
  -0.14464   0.04356  -0.00000   0.00000   0.00000   0.00000   0.00000   0.00000   0.00000   0.00000   0.00000  -0.00000 ...
   0.00000  -0.00000  -0.09316   0.00000   0.00000  -0.16680   0.00000   0.00000   0.00000   0.00000  -0.00000   0.00000 ...
   0.00000   0.00000   0.00000  -0.09316   0.00000   0.00000  -0.16680  -0.00000   0.00000   0.00000   0.00000   0.00000 ...
   0.00000   0.00000   0.00000   0.00000  -0.09316   0.00000  -0.00000  -0.16680   0.00000   0.00000   0.00000   0.00000 ...
  -0.00000   0.00000  -0.16680   0.00000   0.00000   0.40292   0.00000   0.00000   0.00000   0.00000   0.00000   0.00000 ...
   0.00000   0.00000   0.00000  -0.16680  -0.00000   0.00000   0.40291   0.00001   0.00000  -0.00000   0.00000   0.00000 ...
   0.00000   0.00000   0.00000  -0.00000  -0.16680   0.00000   0.00001   0.40291  -0.00000   0.00000   0.00000   0.00000 ...
   0.00000   0.00000   0.00000   0.00000   0.00000   0.00000   0.00000  -0.00000   0.00528   0.00000   0.00000   0.00000 ...
   0.00000   0.00000   0.00000   0.00000   0.00000   0.00000  -0.00000   0.00000   0.00000   0.00528   0.00000   0.00000 ...
  -0.00000   0.00000  -0.00000   0.00000   0.00000   0.00000   0.00000   0.00000   0.00000   0.00000   0.00528   0.00000 ...
   0.00000  -0.00000   0.00000   0.00000   0.00000   0.00000   0.00000   0.00000   0.00000   0.00000   0.00000   0.00528 ...
   ...  only 12  components have been written...
 Atom #  9
  -3.51302   0.42633   0.00015   0.00000   0.00000  -0.00003   0.00000   0.00000   0.00000   0.00000   0.00005   0.00000 ...
   0.42633   0.00319  -0.00001   0.00000   0.00000   0.00000   0.00000   0.00000   0.00000   0.00000  -0.00001   0.00000 ...
   0.00015  -0.00001  -1.44724   0.00000   0.00000   0.12163   0.00000   0.00000   0.00000   0.00000  -0.00004   0.00000 ...
   0.00000   0.00000   0.00000  -1.44690   0.00000   0.00000   0.12157   0.00000   0.00000   0.00007   0.00000   0.00000 ...
   0.00000   0.00000   0.00000   0.00000  -1.44690   0.00000   0.00000   0.12157   0.00007   0.00000   0.00000   0.00000 ...
  -0.00003   0.00000   0.12163   0.00000   0.00000   0.01367   0.00000   0.00000   0.00000   0.00000   0.00000   0.00000 ...
   0.00000   0.00000   0.00000   0.12157   0.00000   0.00000   0.01368   0.00000   0.00000  -0.00001   0.00000   0.00000 ...
   0.00000   0.00000   0.00000   0.00000   0.12157   0.00000   0.00000   0.01368  -0.00001   0.00000   0.00000   0.00000 ...
   0.00000   0.00000   0.00000   0.00000   0.00007   0.00000   0.00000  -0.00001  -0.39232   0.00000   0.00000   0.00000 ...
   0.00000   0.00000   0.00000   0.00007   0.00000   0.00000  -0.00001   0.00000   0.00000  -0.39232   0.00000   0.00000 ...
   0.00005  -0.00001  -0.00004   0.00000   0.00000   0.00000   0.00000   0.00000   0.00000   0.00000  -0.39161   0.00000 ...
   0.00000   0.00000   0.00000   0.00000   0.00000   0.00000   0.00000   0.00000   0.00000   0.00000   0.00000  -0.39226 ...
   ...  only 12  components have been written...


 Augmentation waves occupancies Rhoij:
 Atom #  1
   1.99714  -0.01614   0.00000   0.00000   0.00000   0.00000   0.00000   0.00000   0.00000   0.00000  -0.00065   0.00259 ...
  -0.01614   0.11519   0.00039   0.00000   0.00000  -0.00001   0.00000   0.00000   0.00000   0.00000   0.00488  -0.01612 ...
   0.00000   0.00039   2.00833   0.00000   0.00000  -0.00481   0.00000   0.00000   0.00000   0.00000   0.00030   0.00124 ...
   0.00000   0.00000   0.00000   2.00983  -0.00175   0.00000  -0.00505   0.00026   0.00126   0.00060   0.00000   0.00000 ...
   0.00000   0.00000   0.00000  -0.00175   2.00983   0.00000   0.00026  -0.00505   0.00060   0.00126   0.00000   0.00000 ...
   0.00000  -0.00001  -0.00481   0.00000   0.00000   0.00007   0.00000   0.00000   0.00000   0.00000  -0.00002  -0.00006 ...
   0.00000   0.00000   0.00000  -0.00505   0.00026   0.00000   0.00009  -0.00002  -0.00007  -0.00002   0.00000   0.00000 ...
   0.00000   0.00000   0.00000   0.00026  -0.00505   0.00000  -0.00002   0.00009  -0.00002  -0.00007   0.00000   0.00000 ...
   0.00000   0.00000   0.00000   0.00126   0.00060   0.00000  -0.00007  -0.00002   0.03014  -0.00039   0.00000   0.00000 ...
   0.00000   0.00000   0.00000   0.00060   0.00126   0.00000  -0.00002  -0.00007  -0.00039   0.03014   0.00000   0.00000 ...
  -0.00065   0.00488   0.00030   0.00000   0.00000  -0.00002   0.00000   0.00000   0.00000   0.00000   0.02098  -0.00484 ...
   0.00259  -0.01612   0.00124   0.00000   0.00000  -0.00006   0.00000   0.00000   0.00000   0.00000  -0.00484   0.04459 ...
   ...  only 12  components have been written...
 Atom #  9
   1.99776  -0.02275  -0.00003   0.00000   0.00000  -0.00027   0.00000   0.00000   0.00000   0.00000   0.00026   0.00000 ...
  -0.02275   0.99874  -0.00143   0.00000   0.00000   0.02825   0.00000   0.00000   0.00000   0.00000   0.01194   0.00000 ...
  -0.00003  -0.00143   1.99199   0.00000   0.00000  -0.06885   0.00000   0.00000   0.00000   0.00000  -0.00037   0.00000 ...
   0.00000   0.00000   0.00000   1.99183   0.00000   0.00000  -0.07140   0.00000   0.00000   0.00083   0.00000   0.00000 ...
   0.00000   0.00000   0.00000   0.00000   1.99183   0.00000   0.00000  -0.07140   0.00083   0.00000   0.00000   0.00000 ...
  -0.00027   0.02825  -0.06885   0.00000   0.00000   1.20529   0.00000   0.00000   0.00000   0.00000  -0.05213   0.00000 ...
   0.00000   0.00000   0.00000  -0.07140   0.00000   0.00000   1.30638   0.00000   0.00000  -0.01992   0.00000   0.00000 ...
   0.00000   0.00000   0.00000   0.00000  -0.07140   0.00000   0.00000   1.30638  -0.01992   0.00000   0.00000   0.00000 ...
   0.00000   0.00000   0.00000   0.00000   0.00083   0.00000   0.00000  -0.01992   0.46549   0.00000   0.00000   0.00000 ...
   0.00000   0.00000   0.00000   0.00083   0.00000   0.00000  -0.01992   0.00000   0.00000   0.46549   0.00000   0.00000 ...
   0.00026   0.01194  -0.00037   0.00000   0.00000  -0.05213   0.00000   0.00000   0.00000   0.00000   1.46565   0.00000 ...
   0.00000   0.00000   0.00000   0.00000   0.00000   0.00000   0.00000   0.00000   0.00000   0.00000   0.00000   0.48254 ...
   ...  only 12  components have been written...


================================================================================

 ----iterations are completed or convergence reached----

 Mean square residual over all n,k,spin=   32.238E-07; max=  81.060E-05
 reduced coordinates (array xred) for    9 atoms
       0.252497552770      0.247502447230      0.252497552770
       0.752497552770      0.747502447230      0.752497552770
       0.750343979800      0.249656020200      0.750343979800
       0.231443480120      0.228895918120      0.771104081880
       0.771104081880      0.768556519880      0.231443480120
       0.234738033770      0.765261966230      0.234738033770
       0.231443480120      0.768556519880      0.771104081880
       0.771104081880      0.228895918120      0.231443480120
       0.004827756888     -0.004827756888      0.004827756888
 rms dE/dt=  1.7664E-04; max dE/dt=  1.4593E-04; dE/dt below (all hartree)
    1      -0.000100808860      0.000000000000     -0.000100808860
    2      -0.000100808860      0.000000000000     -0.000100808860
    3       0.000145931042      0.000000000000      0.000145931042
    4      -0.000100777563     -0.000057692291     -0.000043085273
    5       0.000014607018      0.000057692291     -0.000043085273
    6       0.000057958203      0.000000000000      0.000057958203
    7      -0.000043085273      0.000057692291      0.000014607018
    8      -0.000043085273     -0.000057692291     -0.000100777563
    9      -0.000596251068      0.000000000000     -0.000596251068

 cartesian coordinates (angstrom) at end:
    1      2.84933370803699     2.87481480993023     2.84933370803699
    2      8.54800112411160     8.56757257805976     8.54800112411160
    3      5.69866741604264     8.54305303955135     5.69866741604265
    4      5.69866741603999     5.70726042149482     2.62332112908552
    5      5.69866741610891     5.70726042149482     8.77401370306338
    6      5.69866741610849     2.67261353043924     5.69866741610849
    7      8.77401370306338     5.70726042149482     5.69866741610891
    8      2.62332112908552     5.70726042149482     5.69866741603999
    9     -0.00000000000062     0.05496650105247    -0.00000000000062

 cartesian forces (hartree/bohr) at end:
    1      0.00000000000000     0.00000145589169    -0.00000000000000
    2      0.00000000000000     0.00000145589169     0.00000000000000
    3      0.00000000000000    -0.00002148011547    -0.00000000000000
    4     -0.00000000000000    -0.00000390987449     0.00000535729550
    5      0.00000000000000    -0.00000390987449    -0.00000535729550
    6      0.00000000000000    -0.00001330249342     0.00000000000000
    7     -0.00000535729550    -0.00000390987449     0.00000000000000
    8      0.00000535729550    -0.00000390987449    -0.00000000000000
    9     -0.00000000000000     0.00004751032348     0.00000000000000
 frms,max,avg= 1.0673214E-05 4.7510323E-05   0.000E+00  7.915E-06  0.000E+00 h/b

 cartesian forces (eV/Angstrom) at end:
    1      0.00000000000000     0.00007486495427    -0.00000000000000
    2      0.00000000000000     0.00007486495427     0.00000000000000
    3      0.00000000000000    -0.00110455185483    -0.00000000000000
    4     -0.00000000000000    -0.00020105381315     0.00027548318782
    5      0.00000000000000    -0.00020105381316    -0.00027548318782
    6      0.00000000000000    -0.00068404165747     0.00000000000000
    7     -0.00027548318782    -0.00020105381316     0.00000000000000
    8      0.00027548318782    -0.00020105381315    -0.00000000000000
    9     -0.00000000000000     0.00244307885638     0.00000000000000
 frms,max,avg= 5.4883871E-04 2.4430789E-03   0.000E+00  4.070E-04  0.000E+00 e/A
 length scales= 15.221659112000 15.229553761000 15.221659112000 bohr
              =  8.054955078997  8.059132747317  8.054955078997 angstroms
 prteigrs : about to open file Cs2TiI6o_DS1_EIG
 Fermi (or HOMO) energy (hartree) =  -0.08484   Average Vxc (hartree)=  -0.28362
 Eigenvalues (hartree) for nkpt= 163  k points:
 kpt#   1, nband= 42, wtk=  0.00058, kpt=  0.0000  0.0000  0.0000 (reduced coord)
  -2.37253   -1.21651   -1.21651   -1.21645   -0.82537   -0.82519   -0.58959   -0.57638
  -0.57452   -0.57429   -0.57429   -0.48142   -0.34287   -0.34287   -0.34264   -0.34061
  -0.34061   -0.34053   -0.22477   -0.17283   -0.17235   -0.17216   -0.17054   -0.17054
  -0.16630   -0.16630   -0.15703   -0.12479   -0.12117   -0.12117   -0.10927   -0.10927
  -0.10097   -0.09725   -0.08484   -0.08484    0.02065    0.02065    0.02433    0.07240
   0.10388    0.10628
 prteigrs : prtvol=0 or 1, do not print more k-points.


--- !EnergyTerms
iteration_state     : {dtset: 1, }
comment             : Components of total free energy in Hartree
kinetic             :  4.30417912949263E+01
hartree             :  4.12122236549120E+01
xc                  : -6.76204399197017E+01
Ewald energy        : -1.16287858592982E+02
psp_core            :  1.23808803275460E+01
local_psp           : -9.18997006873748E+01
spherical_terms     :  8.02490683290617E+00
total_energy        : -1.71148197089769E+02
total_energy_eV     : -4.65717928795663E+03
...


--- !EnergyTermsDC
iteration_state     : {dtset: 1, }
comment             : '"Double-counting" decomposition of free energy'
band_energy         : -3.13484342715683E+01
Ewald energy        : -1.16287858592982E+02
psp_core            :  1.23808803275460E+01
xc_dc               : -6.88497324346080E+01
spherical_terms     :  3.29570589299723E+01
total_energy_dc     : -1.71148086041641E+02
total_energy_dc_eV  : -4.65717626618339E+03
...


 Cartesian components of stress tensor (hartree/bohr^3)
  sigma(1 1)=  3.84931503E-06  sigma(3 2)=  5.56999764E-14
  sigma(2 2)=  3.87878300E-06  sigma(3 1)= -1.11284090E-13
  sigma(3 3)=  3.84931503E-06  sigma(2 1)=  5.56995596E-14

-Cartesian components of stress tensor (GPa)         [Pressure= -1.1354E-01 GPa]
- sigma(1 1)=  1.13250739E-01  sigma(3 2)=  1.63874961E-09
- sigma(2 2)=  1.14117717E-01  sigma(3 1)= -3.27409041E-09
- sigma(3 3)=  1.13250739E-01  sigma(2 1)=  1.63873734E-09

================================================================================
== DATASET  2 ==================================================================
-   mpi_nproc: 6, omp_nthreads: -1 (-1 if OMP is not activated)


--- !DatasetInfo
iteration_state: {dtset: 2, }
dimensions: {natom: 9, nkpt: 163, mband: 42, nsppol: 1, nspinor: 1, nspden: 1, mpw: 7676, }
cutoff_energies: {ecut:  16.0, pawecutdg:  40.0, }
electrons: {nelect:   7.20000000E+01, charge:   0.00000000E+00, occopt:   1.00000000E+00, tsmear:   1.00000000E-02, }
meta: {optdriver: 0, ionmov: 0, optcell: 0, iscf: 17, paral_kgb: 0, }
...

 Real(R)+Recip(G) space primitive vectors, cartesian coordinates (Bohr,Bohr^-1):
 R(1)=  0.0000000 10.7689208 10.7577531  G(1)= -0.0464299  0.0464299  0.0464781
 R(2)= 10.7689208  0.0000000 10.7577531  G(2)=  0.0464299 -0.0464299  0.0464781
 R(3)= 10.7689208 10.7689208  0.0000000  G(3)=  0.0464299  0.0464299 -0.0464781
 Unit cell volume ucvol=  2.4951458E+03 bohr^3
 Angles (23,13,12)=  5.99828418E+01  5.99828418E+01  6.00343164E+01 degrees

 Coarse grid specifications (used for wave-functions):

 getcut: wavevector=  0.0000  0.0000  0.0000  ngfft=  60  60  60
         ecut(hartree)=     16.000   => boxcut(ratio)=   2.18796

 Fine grid specifications (used for densities):

 getcut: wavevector=  0.0000  0.0000  0.0000  ngfft=  90  90  90
         ecut(hartree)=     40.000   => boxcut(ratio)=   2.07594
--------------------------------------------------------------------------------

_setup2: Arith. and geom. avg. npw (full set) are    7627.325    7627.321

================================================================================

--- !BeginCycle
iteration_state: {dtset: 2, }
solver: {iscf: 17, nstep: 2500, nline: 4, wfoptalg: 10, }
tolerances: {toldfe: 1.00E-08, }
...

     iter   Etot(hartree)      deltaE(h)  residm     nres2
 ETOT  1  -169.56624413675    -1.696E+02 8.237E+00 5.682E+00
 ETOT  2  -171.15822973458    -1.592E+00 3.141E-02 2.311E+00
 ETOT  3  -171.14733655227     1.089E-02 1.360E-02 3.996E-01
 ETOT  4  -171.14800454673    -6.680E-04 9.298E-03 1.002E-01
 ETOT  5  -171.14799342473     1.112E-05 5.107E-03 9.791E-03
 ETOT  6  -171.14807051573    -7.709E-05 3.149E-03 1.326E-03
 ETOT  7  -171.14808366730    -1.315E-05 2.315E-03 3.157E-04
 ETOT  8  -171.14808590868    -2.241E-06 2.339E-03 1.675E-05
 ETOT  9  -171.14808603651    -1.278E-07 1.636E-03 8.552E-06
 ETOT 10  -171.14808603708    -5.694E-10 1.124E-03 1.276E-06
 ETOT 11  -171.14808604195    -4.872E-09 1.193E-03 6.984E-07

 At SCF step   11, etot is converged : 
  for the second time, diff in etot=  4.872E-09 < toldfe=  1.000E-08

 Cartesian components of stress tensor (hartree/bohr^3)
  sigma(1 1)=  3.84578095E-06  sigma(3 2)=  6.93478976E-14
  sigma(2 2)=  3.84578095E-06  sigma(3 1)=  6.93476992E-14
  sigma(3 3)=  3.87293895E-06  sigma(2 1)= -1.38550115E-13


--- !ResultsGS
iteration_state: {dtset: 2, }
comment   : Summary of ground state results
lattice_vectors:
- [  0.0000000,  10.7689208,  10.7577531, ]
- [ 10.7689208,   0.0000000,  10.7577531, ]
- [ 10.7689208,  10.7689208,   0.0000000, ]
lattice_lengths: [  15.22166,   15.22166,   15.22955, ]
lattice_angles: [ 59.983,  59.983,  60.034, ] # degrees, (23, 13, 12)
lattice_volume:   2.4951458E+03
convergence: {deltae: -4.872E-09, res2:  6.984E-07, residm:  1.193E-03, diffor: null, }
etotal    :  -1.71148086E+02
entropy   :   0.00000000E+00
fermie    :  -8.48377063E-02
cartesian_stress_tensor: # hartree/bohr^3
- [  3.84578095E-06,  -1.38550115E-13,   6.93476992E-14, ]
- [ -1.38550115E-13,   3.84578095E-06,   6.93478976E-14, ]
- [  6.93476992E-14,   6.93478976E-14,   3.87293895E-06, ]
pressure_GPa:  -1.1341E-01
xred      :
- [  2.4750E-01,   2.4750E-01,   2.5250E-01, Cs]
- [  7.4750E-01,   7.4750E-01,   7.5250E-01, Cs]
- [  7.6856E-01,   2.2890E-01,   7.7110E-01, Br]
- [  2.4966E-01,   2.4966E-01,   7.5034E-01,  I]
- [  7.6526E-01,   7.6526E-01,   2.3474E-01, Br]
- [  2.2890E-01,   7.6856E-01,   2.3144E-01, Br]
- [  2.2890E-01,   7.6856E-01,   7.7110E-01, Br]
- [  7.6856E-01,   2.2890E-01,   2.3144E-01, Br]
- [ -4.8278E-03,  -4.8278E-03,   4.8278E-03, Hf]
cartesian_forces: # hartree/bohr
- [ -6.88796256E-22,   5.71823027E-22,  -1.02408264E-06, ]
- [ -5.95536667E-23,  -5.74195625E-23,  -1.02408264E-06, ]
- [  8.96342433E-17,  -6.42522589E-06,   3.83266598E-06, ]
- [ -2.94353910E-21,   2.82656587E-21,   2.32959323E-05, ]
- [  8.79537512E-25,  -1.17852767E-22,   1.30597286E-05, ]
- [ -8.96350854E-17,   6.42522589E-06,   3.83266598E-06, ]
- [ -6.42522589E-06,   8.96339036E-17,   3.83266598E-06, ]
- [  6.42522589E-06,  -8.96356308E-17,   3.83266598E-06, ]
- [  1.67422217E-21,  -1.79119540E-21,  -4.96381596E-05, ]
force_length_stats: {min:   1.02408264E-06, max:   4.96381596E-05, mean:   1.31075544E-05, }
...

 Integrated electronic density in atomic spheres:
 ------------------------------------------------
 Atom  Sphere_radius  Integrated_density
    1        2.20660          5.36652119
    2        2.20660          5.36652119
    3        2.20000          4.93466042
    4        2.30022          4.01690785
    5        2.20000          4.93215641
    6        2.20000          4.93466042
    7        2.20000          4.93466042
    8        2.20000          4.93466042
    9        2.41000          9.27224031

 PAW TEST:
 ==== Compensation charge inside spheres ============
 The following values must be close to each other ...
 Compensation charge over spherical meshes =     -0.320650181262243
 Compensation charge over fine fft grid    =     -0.320603624827021

 ==== Results concerning PAW augmentation regions ====

 Total pseudopotential strength Dij (hartree):
 Atom #  1
   0.43672  -0.14464   0.00000  -0.00000   0.00000   0.00000   0.00000   0.00000  -0.00000   0.00000   0.00000   0.00000 ...
  -0.14464   0.04356   0.00000   0.00000   0.00000   0.00000  -0.00000   0.00000   0.00000   0.00000  -0.00000   0.00000 ...
   0.00000   0.00000  -0.09316   0.00000  -0.00000  -0.16680   0.00000   0.00000   0.00000  -0.00000   0.00000   0.00000 ...
  -0.00000   0.00000   0.00000  -0.09316   0.00000   0.00000  -0.16680   0.00000   0.00000   0.00000  -0.00000   0.00000 ...
   0.00000   0.00000  -0.00000   0.00000  -0.09316   0.00000   0.00000  -0.16680   0.00000   0.00000   0.00000  -0.00000 ...
   0.00000   0.00000  -0.16680   0.00000   0.00000   0.40291   0.00000  -0.00001   0.00000   0.00000   0.00000   0.00000 ...
   0.00000  -0.00000   0.00000  -0.16680   0.00000   0.00000   0.40292   0.00000   0.00000   0.00000   0.00000   0.00000 ...
   0.00000   0.00000   0.00000   0.00000  -0.16680  -0.00001   0.00000   0.40291   0.00000   0.00000   0.00000   0.00000 ...
  -0.00000   0.00000   0.00000   0.00000   0.00000   0.00000   0.00000   0.00000   0.00528   0.00000   0.00000   0.00000 ...
   0.00000   0.00000  -0.00000   0.00000   0.00000   0.00000   0.00000   0.00000   0.00000   0.00528   0.00000  -0.00000 ...
   0.00000  -0.00000   0.00000  -0.00000   0.00000   0.00000   0.00000   0.00000   0.00000   0.00000   0.00528   0.00000 ...
   0.00000   0.00000   0.00000   0.00000  -0.00000   0.00000   0.00000   0.00000   0.00000  -0.00000   0.00000   0.00528 ...
   ...  only 12  components have been written...
 Atom #  9
  -3.51302   0.42633   0.00000  -0.00015   0.00000   0.00000   0.00003   0.00000   0.00000   0.00000  -0.00010   0.00000 ...
   0.42633   0.00319   0.00000   0.00001   0.00000   0.00000  -0.00000   0.00000   0.00000   0.00000   0.00001   0.00000 ...
   0.00000   0.00000  -1.44690   0.00000   0.00000   0.12157   0.00000   0.00000   0.00000  -0.00007   0.00000   0.00000 ...
  -0.00015   0.00001   0.00000  -1.44724   0.00000   0.00000   0.12163   0.00000   0.00000   0.00000  -0.00008   0.00000 ...
   0.00000   0.00000   0.00000   0.00000  -1.44690   0.00000   0.00000   0.12157   0.00000   0.00000   0.00000  -0.00007 ...
   0.00000   0.00000   0.12157   0.00000   0.00000   0.01368   0.00000   0.00000   0.00000   0.00001   0.00000   0.00000 ...
   0.00003  -0.00000   0.00000   0.12163   0.00000   0.00000   0.01367   0.00000   0.00000   0.00000   0.00001   0.00000 ...
   0.00000   0.00000   0.00000   0.00000   0.12157   0.00000   0.00000   0.01368   0.00000   0.00000   0.00000   0.00001 ...
   0.00000   0.00000   0.00000   0.00000   0.00000   0.00000   0.00000   0.00000  -0.39226   0.00000   0.00000   0.00000 ...
   0.00000   0.00000  -0.00007   0.00000   0.00000   0.00001   0.00000   0.00000   0.00000  -0.39232   0.00000   0.00000 ...
  -0.00010   0.00001   0.00000  -0.00008   0.00000   0.00000   0.00001   0.00000   0.00000   0.00000  -0.39167   0.00000 ...
   0.00000   0.00000   0.00000   0.00000  -0.00007   0.00000   0.00000   0.00001   0.00000   0.00000   0.00000  -0.39232 ...
   ...  only 12  components have been written...


 Augmentation waves occupancies Rhoij:
 Atom #  1
   1.99714  -0.01614   0.00000  -0.00000   0.00000   0.00000  -0.00000   0.00000  -0.00259   0.00000   0.00130   0.00000 ...
  -0.01614   0.11519   0.00000  -0.00039   0.00000   0.00000   0.00001   0.00000   0.01612   0.00000  -0.00977   0.00000 ...
   0.00000   0.00000   2.00982   0.00000   0.00175  -0.00505   0.00000  -0.00026   0.00000  -0.00060   0.00000   0.00126 ...
  -0.00000  -0.00039   0.00000   2.00833   0.00000   0.00000  -0.00481   0.00000   0.00124   0.00000   0.00061   0.00000 ...
   0.00000   0.00000   0.00175   0.00000   2.00982  -0.00026   0.00000  -0.00505   0.00000   0.00126   0.00000  -0.00060 ...
   0.00000   0.00000  -0.00505   0.00000  -0.00026   0.00009   0.00000   0.00002   0.00000   0.00002   0.00000  -0.00007 ...
  -0.00000   0.00001   0.00000  -0.00481   0.00000   0.00000   0.00007   0.00000  -0.00006   0.00000  -0.00004   0.00000 ...
   0.00000   0.00000  -0.00026   0.00000  -0.00505   0.00002   0.00000   0.00009   0.00000  -0.00007   0.00000   0.00002 ...
  -0.00259   0.01612   0.00000   0.00124   0.00000   0.00000  -0.00006   0.00000   0.04459   0.00000  -0.00968   0.00000 ...
   0.00000   0.00000  -0.00060   0.00000   0.00126   0.00002   0.00000  -0.00007   0.00000   0.03014   0.00000   0.00039 ...
   0.00130  -0.00977   0.00000   0.00061   0.00000   0.00000  -0.00004   0.00000  -0.00968   0.00000   0.02442   0.00000 ...
   0.00000   0.00000   0.00126   0.00000  -0.00060  -0.00007   0.00000   0.00002   0.00000   0.00039   0.00000   0.03014 ...
   ...  only 12  components have been written...
 Atom #  9
   1.99776  -0.02275   0.00000   0.00003   0.00000   0.00000   0.00027   0.00000   0.00000   0.00000  -0.00051   0.00000 ...
  -0.02275   0.99874   0.00000   0.00143   0.00000   0.00000  -0.02825   0.00000   0.00000   0.00000  -0.02388   0.00000 ...
   0.00000   0.00000   1.99183   0.00000   0.00000  -0.07140   0.00000   0.00000   0.00000  -0.00083   0.00000   0.00000 ...
   0.00003   0.00143   0.00000   1.99199   0.00000   0.00000  -0.06885   0.00000   0.00000   0.00000  -0.00075   0.00000 ...
   0.00000   0.00000   0.00000   0.00000   1.99183   0.00000   0.00000  -0.07140   0.00000   0.00000   0.00000  -0.00083 ...
   0.00000   0.00000  -0.07140   0.00000   0.00000   1.30637   0.00000   0.00000   0.00000   0.01992   0.00000   0.00000 ...
   0.00027  -0.02825   0.00000  -0.06885   0.00000   0.00000   1.20529   0.00000   0.00000   0.00000  -0.10426   0.00000 ...
   0.00000   0.00000   0.00000   0.00000  -0.07140   0.00000   0.00000   1.30637   0.00000   0.00000   0.00000   0.01992 ...
   0.00000   0.00000   0.00000   0.00000   0.00000   0.00000   0.00000   0.00000   0.48254   0.00000   0.00000   0.00000 ...
   0.00000   0.00000  -0.00083   0.00000   0.00000   0.01992   0.00000   0.00000   0.00000   0.46549   0.00000   0.00000 ...
  -0.00051  -0.02388   0.00000  -0.00075   0.00000   0.00000  -0.10426   0.00000   0.00000   0.00000   1.40724   0.00000 ...
   0.00000   0.00000   0.00000   0.00000  -0.00083   0.00000   0.00000   0.01992   0.00000   0.00000   0.00000   0.46549 ...
   ...  only 12  components have been written...


================================================================================

 ----iterations are completed or convergence reached----

 Mean square residual over all n,k,spin=   35.328E-07; max=  11.933E-04
 reduced coordinates (array xred) for    9 atoms
       0.247502446820      0.247502446820      0.252497553180
       0.747502446820      0.747502446820      0.752497553180
       0.768556520420      0.228895917660      0.771104082340
       0.249656020760      0.249656020760      0.750343979240
       0.765261966130      0.765261966130      0.234738033870
       0.228895917660      0.768556520420      0.231443479580
       0.228895917660      0.768556520420      0.771104082340
       0.768556520420      0.228895917660      0.231443479580
      -0.004827756682     -0.004827756682      0.004827756682
 rms dE/dt=  1.8427E-04; max dE/dt=  6.1867E-04; dE/dt below (all hartree)
    1       0.000095690604      0.000095690604      0.000000000000
    2       0.000095690604      0.000095690604      0.000000000000
    3       0.000112635650      0.000043442902      0.000069192748
    4      -0.000165938112     -0.000165938112      0.000000000000
    5      -0.000055819560     -0.000055819560      0.000000000000
    6      -0.000025749847      0.000043442902     -0.000069192748
    7       0.000043442902      0.000112635650      0.000069192748
    8       0.000043442902     -0.000025749847     -0.000069192748
    9       0.000618668840      0.000618668840      0.000000000000

 cartesian coordinates (angstrom) at end:
    1      2.84933371158464     2.84933371158464     2.81794294591270
    2      8.54800113475312     8.54800113475312     8.51070069865140
    3      5.69866742321159     8.77401371968456     5.67825509986804
    4      5.69866742320829     5.69866742320829     2.84246249539877
    5      5.69866742312631     5.69866742312631     8.71290198112523
    6      5.69866742312578     2.62332112665281     5.67825509986804
    7      8.77401371968456     5.69866742321159     5.67825509986804
    8      2.62332112665281     5.69866742312578     5.67825509986804
    9      0.00000000000077     0.00000000000077    -0.05496649856186

 cartesian forces (hartree/bohr) at end:
    1     -0.00000000000000     0.00000000000000    -0.00000102408264
    2     -0.00000000000000    -0.00000000000000    -0.00000102408264
    3      0.00000000000000    -0.00000642522589     0.00000383266598
    4     -0.00000000000000     0.00000000000000     0.00002329593234
    5      0.00000000000000    -0.00000000000000     0.00001305972860
    6     -0.00000000000000     0.00000642522589     0.00000383266598
    7     -0.00000642522589     0.00000000000000     0.00000383266598
    8      0.00000642522589    -0.00000000000000     0.00000383266598
    9      0.00000000000000    -0.00000000000000    -0.00004963815957
 frms,max,avg= 1.1226940E-05 4.9638160E-05   0.000E+00  0.000E+00 -7.871E-06 h/b

 cartesian forces (eV/Angstrom) at end:
    1     -0.00000000000000     0.00000000000000    -0.00005266044203
    2     -0.00000000000000    -0.00000000000000    -0.00005266044203
    3      0.00000000000000    -0.00033039837191     0.00019708359200
    4     -0.00000000000000     0.00000000000000     0.00119792490481
    5      0.00000000000000    -0.00000000000000     0.00067155818944
    6     -0.00000000000000     0.00033039837191     0.00019708359201
    7     -0.00033039837191     0.00000000000000     0.00019708359200
    8      0.00033039837191    -0.00000000000000     0.00019708359201
    9      0.00000000000000    -0.00000000000000    -0.00255249657822
 frms,max,avg= 5.7731241E-04 2.5524966E-03   0.000E+00  0.000E+00 -4.047E-04 e/A
 length scales= 15.221659101000 15.221659101000 15.229553780000 bohr
              =  8.054955073176  8.054955073176  8.059132757372 angstroms
 prteigrs : about to open file Cs2TiI6o_DS2_EIG
 Fermi (or HOMO) energy (hartree) =  -0.08484   Average Vxc (hartree)=  -0.28362
 Eigenvalues (hartree) for nkpt= 163  k points:
 kpt#   1, nband= 42, wtk=  0.00058, kpt=  0.0000  0.0000  0.0000 (reduced coord)
  -2.37253   -1.21651   -1.21651   -1.21645   -0.82537   -0.82519   -0.58959   -0.57638
  -0.57452   -0.57429   -0.57429   -0.48142   -0.34287   -0.34287   -0.34264   -0.34061
  -0.34061   -0.34053   -0.22477   -0.17283   -0.17235   -0.17216   -0.17054   -0.17054
  -0.16630   -0.16630   -0.15703   -0.12479   -0.12117   -0.12117   -0.10927   -0.10927
  -0.10097   -0.09725   -0.08484   -0.08484    0.02065    0.02065    0.02433    0.07240
   0.10389    0.10643
 prteigrs : prtvol=0 or 1, do not print more k-points.


--- !EnergyTerms
iteration_state     : {dtset: 2, }
comment             : Components of total free energy in Hartree
kinetic             :  4.30417847558102E+01
hartree             :  4.12122447759948E+01
xc                  : -6.76204480535236E+01
Ewald energy        : -1.16287858503495E+02
psp_core            :  1.23808803301945E+01
local_psp           : -9.18997222723328E+01
spherical_terms     :  8.02492332574272E+00
total_energy        : -1.71148195641609E+02
total_energy_eV     : -4.65717924855021E+03
...


--- !EnergyTermsDC
iteration_state     : {dtset: 2, }
comment             : '"Double-counting" decomposition of free energy'
band_energy         : -3.13484156287917E+01
Ewald energy        : -1.16287858503495E+02
psp_core            :  1.23808803301945E+01
xc_dc               : -6.88497511837487E+01
spherical_terms     :  3.29570589438896E+01
total_energy_dc     : -1.71148086041952E+02
total_energy_dc_eV  : -4.65717626619185E+03
...


 Cartesian components of stress tensor (hartree/bohr^3)
  sigma(1 1)=  3.84578095E-06  sigma(3 2)=  6.93478976E-14
  sigma(2 2)=  3.84578095E-06  sigma(3 1)=  6.93476992E-14
  sigma(3 3)=  3.87293895E-06  sigma(2 1)= -1.38550115E-13

-Cartesian components of stress tensor (GPa)         [Pressure= -1.1341E-01 GPa]
- sigma(1 1)=  1.13146763E-01  sigma(3 2)=  2.04028524E-09
- sigma(2 2)=  1.13146763E-01  sigma(3 1)=  2.04027941E-09
- sigma(3 3)=  1.13945779E-01  sigma(2 1)= -4.07628442E-09

== END DATASET(S) ==============================================================
================================================================================
  
 -outvars: echo values of variables after computation  --------
            acell1     1.5221659112E+01  1.5229553761E+01  1.5221659112E+01 Bohr
            acell2     1.5221659101E+01  1.5221659101E+01  1.5229553780E+01 Bohr
              amu      1.32905430E+02  1.26904470E+02  1.78490000E+02
                       7.99040000E+01
           diemac      1.20000000E+01
             ecut      1.60000000E+01 Hartree
           etotal1    -1.7114808604E+02
           etotal2    -1.7114808604E+02
            fcart1     5.7267864421E-22  1.4558916859E-06 -1.7098129470E-22
                       3.5488828704E-22  1.4558916859E-06  4.6809062465E-23
                       5.0664508591E-22 -2.1480115465E-05 -1.0494773640E-22
                      -6.0029792796E-17 -3.9098744910E-06  5.3572955016E-06
                       6.0028233631E-17 -3.9098744912E-06 -5.3572955016E-06
                       2.6205836826E-22 -1.3302493424E-05  1.3963898125E-22
                      -5.3572955016E-06 -3.9098744912E-06  6.0027717017E-17
                       5.3572955016E-06 -3.9098744910E-06 -6.0029157058E-17
                      -7.1105690998E-22  4.7510323482E-05  1.1127542595E-21
            fcart2    -6.8879625599E-22  5.7182302678E-22 -1.0240826361E-06
                      -5.9553666686E-23 -5.7419562527E-23 -1.0240826361E-06
                       8.9634243298E-17 -6.4252258933E-06  3.8326659758E-06
                      -2.9435391015E-21  2.8265658723E-21  2.3295932338E-05
                       8.7953751200E-25 -1.1785276672E-22  1.3059728602E-05
                      -8.9635085370E-17  6.4252258933E-06  3.8326659760E-06
                      -6.4252258933E-06  8.9633903574E-17  3.8326659758E-06
                       6.4252258933E-06 -8.9635630821E-17  3.8326659760E-06
                       1.6742221699E-21 -1.7911953991E-21 -4.9638159571E-05
-          fftalg         112
           istwfk        2    0    0    0    0    0    3    0    0    0
                         0    0    0    0    0    0    0    0    0    0
                         0    0    0    0    0    0    0    0    0    0
                         0    0    0    0    0    0    0    0    0    0
                         0    0    7    0    0    0    0    0    0    0
                       outvar_i_n : Printing only first  50 k-points.
              ixc     -101130
           jdtset        1    2
              kpt      0.00000000E+00  0.00000000E+00  0.00000000E+00
                       8.33333333E-02  0.00000000E+00  0.00000000E+00
                       1.66666667E-01  0.00000000E+00  0.00000000E+00
                       2.50000000E-01  0.00000000E+00  0.00000000E+00
                       3.33333333E-01  0.00000000E+00  0.00000000E+00
                       4.16666667E-01  0.00000000E+00  0.00000000E+00
                       5.00000000E-01  0.00000000E+00  0.00000000E+00
                       8.33333333E-02  8.33333333E-02  0.00000000E+00
                       1.66666667E-01  8.33333333E-02  0.00000000E+00
                       2.50000000E-01  8.33333333E-02  0.00000000E+00
                       3.33333333E-01  8.33333333E-02  0.00000000E+00
                       4.16666667E-01  8.33333333E-02  0.00000000E+00
                       5.00000000E-01  8.33333333E-02  0.00000000E+00
                      -4.16666667E-01  8.33333333E-02  0.00000000E+00
                      -3.33333333E-01  8.33333333E-02  0.00000000E+00
                      -2.50000000E-01  8.33333333E-02  0.00000000E+00
                      -1.66666667E-01  8.33333333E-02  0.00000000E+00
                      -8.33333333E-02  8.33333333E-02  0.00000000E+00
                       1.66666667E-01  1.66666667E-01  0.00000000E+00
                       2.50000000E-01  1.66666667E-01  0.00000000E+00
                       3.33333333E-01  1.66666667E-01  0.00000000E+00
                       4.16666667E-01  1.66666667E-01  0.00000000E+00
                       5.00000000E-01  1.66666667E-01  0.00000000E+00
                      -4.16666667E-01  1.66666667E-01  0.00000000E+00
                      -3.33333333E-01  1.66666667E-01  0.00000000E+00
                      -2.50000000E-01  1.66666667E-01  0.00000000E+00
                      -1.66666667E-01  1.66666667E-01  0.00000000E+00
                       2.50000000E-01  2.50000000E-01  0.00000000E+00
                       3.33333333E-01  2.50000000E-01  0.00000000E+00
                       4.16666667E-01  2.50000000E-01  0.00000000E+00
                       5.00000000E-01  2.50000000E-01  0.00000000E+00
                      -4.16666667E-01  2.50000000E-01  0.00000000E+00
                      -3.33333333E-01  2.50000000E-01  0.00000000E+00
                      -2.50000000E-01  2.50000000E-01  0.00000000E+00
                       3.33333333E-01  3.33333333E-01  0.00000000E+00
                       4.16666667E-01  3.33333333E-01  0.00000000E+00
                       5.00000000E-01  3.33333333E-01  0.00000000E+00
                      -4.16666667E-01  3.33333333E-01  0.00000000E+00
                      -3.33333333E-01  3.33333333E-01  0.00000000E+00
                       4.16666667E-01  4.16666667E-01  0.00000000E+00
                       5.00000000E-01  4.16666667E-01  0.00000000E+00
                      -4.16666667E-01  4.16666667E-01  0.00000000E+00
                       5.00000000E-01  5.00000000E-01  0.00000000E+00
                       8.33333333E-02  0.00000000E+00  8.33333333E-02
                       1.66666667E-01  0.00000000E+00  8.33333333E-02
                       2.50000000E-01  0.00000000E+00  8.33333333E-02
                       3.33333333E-01  0.00000000E+00  8.33333333E-02
                       4.16666667E-01  0.00000000E+00  8.33333333E-02
                       5.00000000E-01  0.00000000E+00  8.33333333E-02
                      -4.16666667E-01  0.00000000E+00  8.33333333E-02
                       outvar_i_n : Printing only first  50 k-points.
         kptrlatt       12    0    0      0   12    0      0    0   12
          kptrlen1     1.82659909E+02
          kptrlen2     1.82659909E+02
P           mkmem          28
            natom           9
            nband          42
           ndtset           2
            ngfft          60      60      60
          ngfftdg          90      90      90
             nkpt         163
            nstep        2500
             nsym           8
           ntypat           4
              occ      2.000000  2.000000  2.000000  2.000000  2.000000  2.000000
                       2.000000  2.000000  2.000000  2.000000  2.000000  2.000000
                       2.000000  2.000000  2.000000  2.000000  2.000000  2.000000
                       2.000000  2.000000  2.000000  2.000000  2.000000  2.000000
                       2.000000  2.000000  2.000000  2.000000  2.000000  2.000000
                       2.000000  2.000000  2.000000  2.000000  2.000000  2.000000
                       0.000000  0.000000  0.000000  0.000000  0.000000  0.000000
        pawecutdg      4.00000000E+01 Hartree
            prtwf           0
            rprim1     0.0000000000E+00  7.0673985296E-01  7.0747351911E-01
                       7.0710678119E-01  0.0000000000E+00  7.0710678119E-01
                       7.0747351911E-01  7.0673985296E-01  0.0000000000E+00
            rprim2     0.0000000000E+00  7.0747352050E-01  7.0673985156E-01
                       7.0747352050E-01  0.0000000000E+00  7.0673985156E-01
                       7.0710678119E-01  7.0710678119E-01  0.0000000000E+00
          spgroup         107
           strten1     3.8493150304E-06  3.8787830003E-06  3.8493150304E-06
                       5.5699976394E-14 -1.1128408975E-13  5.5699559556E-14
           strten2     3.8457809503E-06  3.8457809503E-06  3.8729389493E-06
                       6.9347897589E-14  6.9347699189E-14 -1.3855011477E-13
           symrel1     1  0  0   0  1  0   0  0  1       0  0  1   0  1  0   1  0  0
                       0 -1  1   0 -1  0   1 -1  0       1 -1  0   0 -1  0   0 -1  1
                       0 -1  1  -1  0  1   0  0  1       0  0  1  -1  0  1   0 -1  1
                       1  0  0   1  0 -1   1 -1  0       1 -1  0   1  0 -1   1  0  0
           symrel2     1  0  0   0  1  0   0  0  1       1  0 -1   0  1 -1   0  0 -1
                       0  1 -1   1  0 -1   0  0 -1       0  1  0   1  0  0   0  0  1
                       1  0  0   1  0 -1   1 -1  0       0  1  0   0  1 -1  -1  1  0
                       0  1 -1   0  1  0  -1  1  0       1  0 -1   1  0  0   1 -1  0
           toldfe      1.00000000E-08 Hartree
            typat1     1  1  2  4  4  4  4  4  3
            typat2     1  1  4  2  4  4  4  4  3
           useylm           1
              wtk1       0.00058    0.00463    0.00463    0.00463    0.00463    0.00463
                         0.00231    0.00231    0.00926    0.00926    0.00926    0.00926
                         0.00926    0.00926    0.00926    0.00926    0.00926    0.00463
                         0.00231    0.00926    0.00926    0.00926    0.00926    0.00926
                         0.00926    0.00926    0.00463    0.00231    0.00926    0.00926
                         0.00926    0.00926    0.00926    0.00463    0.00231    0.00926
                         0.00926    0.00926    0.00463    0.00231    0.00926    0.00463
                         0.00116    0.00116    0.00463    0.00463    0.00463    0.00463
                         0.00463    0.00463
              wtk2       0.00058    0.00463    0.00463    0.00463    0.00463    0.00463
                         0.00231    0.00116    0.00463    0.00463    0.00463    0.00463
                         0.00463    0.00463    0.00463    0.00463    0.00463    0.00231
                         0.00116    0.00463    0.00463    0.00463    0.00463    0.00463
                         0.00463    0.00463    0.00231    0.00116    0.00463    0.00463
                         0.00463    0.00463    0.00463    0.00231    0.00116    0.00463
                         0.00463    0.00463    0.00231    0.00116    0.00463    0.00231
                         0.00058    0.00231    0.00926    0.00926    0.00926    0.00926
                         0.00926    0.00926
                       outvars : Printing only first  50 k-points.
           xangst1     2.8493337080E+00  2.8748148099E+00  2.8493337080E+00
                       8.5480011241E+00  8.5675725781E+00  8.5480011241E+00
                       5.6986674160E+00  8.5430530396E+00  5.6986674160E+00
                       5.6986674160E+00  5.7072604215E+00  2.6233211291E+00
                       5.6986674161E+00  5.7072604215E+00  8.7740137031E+00
                       5.6986674161E+00  2.6726135304E+00  5.6986674161E+00
                       8.7740137031E+00  5.7072604215E+00  5.6986674161E+00
                       2.6233211291E+00  5.7072604215E+00  5.6986674160E+00
                      -6.1653561800E-13  5.4966501052E-02 -6.1653561800E-13
           xangst2     2.8493337116E+00  2.8493337116E+00  2.8179429459E+00
                       8.5480011348E+00  8.5480011348E+00  8.5107006987E+00
                       5.6986674232E+00  8.7740137197E+00  5.6782550999E+00
                       5.6986674232E+00  5.6986674232E+00  2.8424624954E+00
                       5.6986674231E+00  5.6986674231E+00  8.7129019811E+00
                       5.6986674231E+00  2.6233211267E+00  5.6782550999E+00
                       8.7740137197E+00  5.6986674232E+00  5.6782550999E+00
                       2.6233211267E+00  5.6986674231E+00  5.6782550999E+00
                       7.6760745559E-13  7.6760745559E-13 -5.4966498562E-02
            xcart1     5.3844603694E+00  5.4326126735E+00  5.3844603694E+00
                       1.6153381108E+01  1.6190365796E+01  1.6153381108E+01
                       1.0768920739E+01  1.6144030583E+01  1.0768920739E+01
                       1.0768920739E+01  1.0785159166E+01  4.9573584926E+00
                       1.0768920739E+01  1.0785159166E+01  1.6580482985E+01
                       1.0768920739E+01  5.0505076316E+00  1.0768920739E+01
                       1.6580482985E+01  1.0785159166E+01  1.0768920739E+01
                       4.9573584926E+00  1.0785159166E+01  1.0768920739E+01
                      -1.1650834692E-12  1.0387163347E-01 -1.1650834692E-12
            xcart2     5.3844603761E+00  5.3844603761E+00  5.3251404259E+00
                       1.6153381128E+01  1.6153381128E+01  1.6082893519E+01
                       1.0768920752E+01  1.6580483016E+01  1.0730347051E+01
                       1.0768920752E+01  1.0768920752E+01  5.3714756593E+00
                       1.0768920752E+01  1.0768920752E+01  1.6464998567E+01
                       1.0768920752E+01  4.9573584880E+00  1.0730347051E+01
                       1.6580483016E+01  1.0768920752E+01  1.0730347051E+01
                       4.9573584880E+00  1.0768920752E+01  1.0730347051E+01
                       1.4505678686E-12  1.4505678686E-12 -1.0387162877E-01
             xred1     2.5249755277E-01  2.4750244723E-01  2.5249755277E-01
                       7.5249755277E-01  7.4750244723E-01  7.5249755277E-01
                       7.5034397980E-01  2.4965602020E-01  7.5034397980E-01
                       2.3144348012E-01  2.2889591812E-01  7.7110408188E-01
                       7.7110408188E-01  7.6855651988E-01  2.3144348012E-01
                       2.3473803377E-01  7.6526196623E-01  2.3473803377E-01
                       2.3144348012E-01  7.6855651988E-01  7.7110408188E-01
                       7.7110408188E-01  2.2889591812E-01  2.3144348012E-01
                       4.8277568879E-03 -4.8277568879E-03  4.8277568879E-03
             xred2     2.4750244682E-01  2.4750244682E-01  2.5249755318E-01
                       7.4750244682E-01  7.4750244682E-01  7.5249755318E-01
                       7.6855652042E-01  2.2889591766E-01  7.7110408234E-01
                       2.4965602076E-01  2.4965602076E-01  7.5034397924E-01
                       7.6526196613E-01  7.6526196613E-01  2.3473803387E-01
                       2.2889591766E-01  7.6855652042E-01  2.3144347958E-01
                       2.2889591766E-01  7.6855652042E-01  7.7110408234E-01
                       7.6855652042E-01  2.2889591766E-01  2.3144347958E-01
                      -4.8277566822E-03 -4.8277566822E-03  4.8277566822E-03
            znucl       55.00000   53.00000   72.00000   35.00000

================================================================================


- Timing analysis has been suppressed with timopt=0



================================================================================

 Suggested references for the acknowledgment of ABINIT usage.

 The users of ABINIT have little formal obligations with respect to the ABINIT group
 (those specified in the GNU General Public License, http://www.gnu.org/copyleft/gpl.txt).
 However, it is common practice in the scientific literature,
 to acknowledge the efforts of people that have made the research possible.
 In this spirit, please find below suggested citations of work written by ABINIT developers,
 corresponding to implementations inside of ABINIT that you have used in the present run.
 Note also that it will be of great value to readers of publications presenting these results,
 to read papers enabling them to understand the theoretical formalism and details
 of the ABINIT implementation.
 For information on why they are suggested, see also https://docs.abinit.org/theory/acknowledgments.
-
- [1] Implementation of the Projector Augmented-Wave Method in the ABINIT code.
- M. Torrent, F. Jollet, F. Bottin, G. Zerah, and X. Gonze Comput. Mat. Science 42, 337, (2008).
- Comment: PAW calculations. Strong suggestion to cite this paper.
- DOI and bibtex: see https://docs.abinit.org/theory/bibliography/#torrent2008
-
- [2] Libxc: A library of exchange and correlation functionals for density functional theory.
- M.A.L. Marques, M.J.T. Oliveira, T. Burnus, Computer Physics Communications 183, 2227 (2012).
- Comment: to be cited when LibXC is used (negative value of ixc)
- Strong suggestion to cite this paper.
- DOI and bibtex: see https://docs.abinit.org/theory/bibliography/#marques2012
-
- [3] The Abinit project: Impact, environment and recent developments.
- Computer Phys. Comm. 248, 107042 (2020).
- X.Gonze, B. Amadon, G. Antonius, F.Arnardi, L.Baguet, J.-M.Beuken,
- J.Bieder, F.Bottin, J.Bouchet, E.Bousquet, N.Brouwer, F.Bruneval,
- G.Brunin, T.Cavignac, J.-B. Charraud, Wei Chen, M.Cote, S.Cottenier,
- J.Denier, G.Geneste, Ph.Ghosez, M.Giantomassi, Y.Gillet, O.Gingras,
- D.R.Hamann, G.Hautier, Xu He, N.Helbig, N.Holzwarth, Y.Jia, F.Jollet,
- W.Lafargue-Dit-Hauret, K.Lejaeghere, M.A.L.Marques, A.Martin, C.Martins,
- H.P.C. Miranda, F.Naccarato, K. Persson, G.Petretto, V.Planes, Y.Pouillon,
- S.Prokhorenko, F.Ricci, G.-M.Rignanese, A.H.Romero, M.M.Schmitt, M.Torrent,
- M.J.van Setten, B.Van Troeye, M.J.Verstraete, G.Zerah and J.W.Zwanzig
- Comment: the fifth generic paper describing the ABINIT project.
- Note that a version of this paper, that is not formatted for Computer Phys. Comm. 
- is available at https://www.abinit.org/sites/default/files/ABINIT20.pdf .
- The licence allows the authors to put it on the Web.
- DOI and bibtex: see https://docs.abinit.org/theory/bibliography/#gonze2020
-
- [4] ABINIT: Overview, and focus on selected capabilities
- J. Chem. Phys. 152, 124102 (2020).
- A. Romero, D.C. Allan, B. Amadon, G. Antonius, T. Applencourt, L.Baguet,
- J.Bieder, F.Bottin, J.Bouchet, E.Bousquet, F.Bruneval,
- G.Brunin, D.Caliste, M.Cote,
- J.Denier, C. Dreyer, Ph.Ghosez, M.Giantomassi, Y.Gillet, O.Gingras,
- D.R.Hamann, G.Hautier, F.Jollet, G. Jomard,
- A.Martin, 
- H.P.C. Miranda, F.Naccarato, G.Petretto, N.A. Pike, V.Planes,
- S.Prokhorenko, T. Rangel, F.Ricci, G.-M.Rignanese, M.Royo, M.Stengel, M.Torrent,
- M.J.van Setten, B.Van Troeye, M.J.Verstraete, J.Wiktor, J.W.Zwanziger, and X.Gonze.
- Comment: a global overview of ABINIT, with focus on selected capabilities .
- Note that a version of this paper, that is not formatted for J. Chem. Phys 
- is available at https://www.abinit.org/sites/default/files/ABINIT20_JPC.pdf .
- The licence allows the authors to put it on the Web.
- DOI and bibtex: see https://docs.abinit.org/theory/bibliography/#romero2020
-
- [5] Recent developments in the ABINIT software package.
- Computer Phys. Comm. 205, 106 (2016).
- X.Gonze, F.Jollet, F.Abreu Araujo, D.Adams, B.Amadon, T.Applencourt,
- C.Audouze, J.-M.Beuken, J.Bieder, A.Bokhanchuk, E.Bousquet, F.Bruneval
- D.Caliste, M.Cote, F.Dahm, F.Da Pieve, M.Delaveau, M.Di Gennaro,
- B.Dorado, C.Espejo, G.Geneste, L.Genovese, A.Gerossier, M.Giantomassi,
- Y.Gillet, D.R.Hamann, L.He, G.Jomard, J.Laflamme Janssen, S.Le Roux,
- A.Levitt, A.Lherbier, F.Liu, I.Lukacevic, A.Martin, C.Martins,
- M.J.T.Oliveira, S.Ponce, Y.Pouillon, T.Rangel, G.-M.Rignanese,
- A.H.Romero, B.Rousseau, O.Rubel, A.A.Shukri, M.Stankovski, M.Torrent,
- M.J.Van Setten, B.Van Troeye, M.J.Verstraete, D.Waroquier, J.Wiktor,
- B.Xu, A.Zhou, J.W.Zwanziger.
- Comment: the fourth generic paper describing the ABINIT project.
- Note that a version of this paper, that is not formatted for Computer Phys. Comm. 
- is available at https://www.abinit.org/sites/default/files/ABINIT16.pdf .
- The licence allows the authors to put it on the Web.
- DOI and bibtex: see https://docs.abinit.org/theory/bibliography/#gonze2016
-
- Proc.   0 individual time (sec): cpu=       1440.9  wall=       1440.9

================================================================================

 Calculation completed.
.Delivered   0 WARNINGs and   0 COMMENTs to log file.
+Overall time at end (sec) : cpu=       8645.0  wall=       8645.3
