
.Version 9.2.2 of ABINIT 
.(MPI version, prepared for a x86_64_linux_gnu9.3 computer) 

.Copyright (C) 1998-2020 ABINIT group . 
 ABINIT comes with ABSOLUTELY NO WARRANTY.
 It is free software, and you are welcome to redistribute it
 under certain conditions (GNU General Public License,
 see ~abinit/COPYING or http://www.gnu.org/copyleft/gpl.txt).

 ABINIT is a project of the Universite Catholique de Louvain,
 Corning Inc. and other collaborators, see ~abinit/doc/developers/contributors.txt .
 Please read https://docs.abinit.org/theory/acknowledgments for suggested
 acknowledgments of the ABINIT effort.
 For more information, see https://www.abinit.org .

.Starting date : Wed 16 Nov 2022.
- ( at 22h15 )
  
- input  file    -> Cs2TiI6.in
- output file    -> Cs2TiI6.out
- root for input  files -> Cs2TiI6i
- root for output files -> Cs2TiI6o

- inpspheads : Reading pseudopotential header in XML form from 
-   ../../../Psps_for_tests/ATOMICDATA/Cs.GGA_PBE-JTH.xml
- inpspheads : Reading pseudopotential header in XML form from 
-   ../../../Psps_for_tests/ATOMICDATA/Cl.GGA_PBE-JTH.xml
- inpspheads : Reading pseudopotential header in XML form from 
-   ../../../Psps_for_tests/ATOMICDATA/Hf.GGA_PBE-JTH.xml

 DATASET    1 : space group Fm -3 m (#225); Bravais cF (face-center cubic)
================================================================================
 Values of the parameters that define the memory need for DATASET  1.
     intxc =       0    ionmov =       0      iscf =      17    lmnmax =      18
     lnmax =       6     mgfft =      50  mpssoang =       3    mqgrid =    3142
     natom =       9  nloc_mem =       2    nspden =       1   nspinor =       1
    nsppol =       1      nsym =      48    n1xccc =       1    ntypat =       3
    occopt =       1   xclevel =       2
-    mband =          42        mffmem =           1         mkmem =          12
       mpw =        5365          nfft =      125000          nkpt =          72
Pmy_natom=         2
 PAW method is used; the additional fine FFT grid is defined by:
   mgfftf=        80    nfftf =    512000
================================================================================
P This job should need less than                     192.162 Mbytes of memory.
  Rough estimation (10% accuracy) of disk space for files :
_ WF disk file :    247.557 Mbytes ; DEN or POT disk file :      3.908 Mbytes.
================================================================================


 DATASET    2 : space group Fm -3 m (#225); Bravais cF (face-center cubic)
================================================================================
 Values of the parameters that define the memory need for DATASET  2.
     intxc =       0    ionmov =       0      iscf =      17    lmnmax =      18
     lnmax =       6     mgfft =      50  mpssoang =       3    mqgrid =    3139
     natom =       9  nloc_mem =       2    nspden =       1   nspinor =       1
    nsppol =       1      nsym =      48    n1xccc =       1    ntypat =       3
    occopt =       1   xclevel =       2
-    mband =          42        mffmem =           1         mkmem =          12
       mpw =        5360          nfft =      125000          nkpt =          72
Pmy_natom=         2
 PAW method is used; the additional fine FFT grid is defined by:
   mgfftf=        80    nfftf =    512000
================================================================================
P This job should need less than                     192.130 Mbytes of memory.
  Rough estimation (10% accuracy) of disk space for files :
_ WF disk file :    247.326 Mbytes ; DEN or POT disk file :      3.908 Mbytes.
================================================================================


 DATASET    3 : space group Fm -3 m (#225); Bravais cF (face-center cubic)
================================================================================
 Values of the parameters that define the memory need for DATASET  3.
     intxc =       0    ionmov =       0      iscf =      17    lmnmax =      18
     lnmax =       6     mgfft =      50  mpssoang =       3    mqgrid =    3136
     natom =       9  nloc_mem =       2    nspden =       1   nspinor =       1
    nsppol =       1      nsym =      48    n1xccc =       1    ntypat =       3
    occopt =       1   xclevel =       2
-    mband =          42        mffmem =           1         mkmem =          12
       mpw =        5330          nfft =      125000          nkpt =          72
Pmy_natom=         2
 PAW method is used; the additional fine FFT grid is defined by:
   mgfftf=        80    nfftf =    512000
================================================================================
P This job should need less than                     191.881 Mbytes of memory.
  Rough estimation (10% accuracy) of disk space for files :
_ WF disk file :    245.942 Mbytes ; DEN or POT disk file :      3.908 Mbytes.
================================================================================


 DATASET    4 : space group Fm -3 m (#225); Bravais cF (face-center cubic)
================================================================================
 Values of the parameters that define the memory need for DATASET  4.
     intxc =       0    ionmov =       0      iscf =      17    lmnmax =      18
     lnmax =       6     mgfft =      50  mpssoang =       3    mqgrid =    3132
     natom =       9  nloc_mem =       2    nspden =       1   nspinor =       1
    nsppol =       1      nsym =      48    n1xccc =       1    ntypat =       3
    occopt =       1   xclevel =       2
-    mband =          42        mffmem =           1         mkmem =          12
       mpw =        5321          nfft =      125000          nkpt =          72
Pmy_natom=         2
 PAW method is used; the additional fine FFT grid is defined by:
   mgfftf=        80    nfftf =    512000
================================================================================
P This job should need less than                     191.814 Mbytes of memory.
  Rough estimation (10% accuracy) of disk space for files :
_ WF disk file :    245.527 Mbytes ; DEN or POT disk file :      3.908 Mbytes.
================================================================================


 DATASET    5 : space group Fm -3 m (#225); Bravais cF (face-center cubic)
================================================================================
 Values of the parameters that define the memory need for DATASET  5.
     intxc =       0    ionmov =       0      iscf =      17    lmnmax =      18
     lnmax =       6     mgfft =      50  mpssoang =       3    mqgrid =    3129
     natom =       9  nloc_mem =       2    nspden =       1   nspinor =       1
    nsppol =       1      nsym =      48    n1xccc =       1    ntypat =       3
    occopt =       1   xclevel =       2
-    mband =          42        mffmem =           1         mkmem =          12
       mpw =        5303          nfft =      125000          nkpt =          72
Pmy_natom=         2
 PAW method is used; the additional fine FFT grid is defined by:
   mgfftf=        80    nfftf =    512000
================================================================================
P This job should need less than                     191.670 Mbytes of memory.
  Rough estimation (10% accuracy) of disk space for files :
_ WF disk file :    244.696 Mbytes ; DEN or POT disk file :      3.908 Mbytes.
================================================================================


 DATASET    6 : space group Fm -3 m (#225); Bravais cF (face-center cubic)
================================================================================
 Values of the parameters that define the memory need for DATASET  6.
     intxc =       0    ionmov =       0      iscf =      17    lmnmax =      18
     lnmax =       6     mgfft =      50  mpssoang =       3    mqgrid =    3126
     natom =       9  nloc_mem =       2    nspden =       1   nspinor =       1
    nsppol =       1      nsym =      48    n1xccc =       1    ntypat =       3
    occopt =       1   xclevel =       2
-    mband =          42        mffmem =           1         mkmem =          12
       mpw =        5297          nfft =      125000          nkpt =          72
Pmy_natom=         2
 PAW method is used; the additional fine FFT grid is defined by:
   mgfftf=        80    nfftf =    512000
================================================================================
P This job should need less than                     191.630 Mbytes of memory.
  Rough estimation (10% accuracy) of disk space for files :
_ WF disk file :    244.419 Mbytes ; DEN or POT disk file :      3.908 Mbytes.
================================================================================


 DATASET    7 : space group Fm -3 m (#225); Bravais cF (face-center cubic)
================================================================================
 Values of the parameters that define the memory need for DATASET  7.
     intxc =       0    ionmov =       0      iscf =      17    lmnmax =      18
     lnmax =       6     mgfft =      50  mpssoang =       3    mqgrid =    3123
     natom =       9  nloc_mem =       2    nspden =       1   nspinor =       1
    nsppol =       1      nsym =      48    n1xccc =       1    ntypat =       3
    occopt =       1   xclevel =       2
-    mband =          42        mffmem =           1         mkmem =          12
       mpw =        5297          nfft =      125000          nkpt =          72
Pmy_natom=         2
 PAW method is used; the additional fine FFT grid is defined by:
   mgfftf=        80    nfftf =    512000
================================================================================
P This job should need less than                     191.641 Mbytes of memory.
  Rough estimation (10% accuracy) of disk space for files :
_ WF disk file :    244.419 Mbytes ; DEN or POT disk file :      3.908 Mbytes.
================================================================================


 DATASET    8 : space group Fm -3 m (#225); Bravais cF (face-center cubic)
================================================================================
 Values of the parameters that define the memory need for DATASET  8.
     intxc =       0    ionmov =       0      iscf =      17    lmnmax =      18
     lnmax =       6     mgfft =      50  mpssoang =       3    mqgrid =    3120
     natom =       9  nloc_mem =       2    nspden =       1   nspinor =       1
    nsppol =       1      nsym =      48    n1xccc =       1    ntypat =       3
    occopt =       1   xclevel =       2
-    mband =          42        mffmem =           1         mkmem =          12
       mpw =        5240          nfft =      125000          nkpt =          72
Pmy_natom=         2
 PAW method is used; the additional fine FFT grid is defined by:
   mgfftf=        80    nfftf =    512000
================================================================================
P This job should need less than                     191.159 Mbytes of memory.
  Rough estimation (10% accuracy) of disk space for files :
_ WF disk file :    241.789 Mbytes ; DEN or POT disk file :      3.908 Mbytes.
================================================================================


 DATASET    9 : space group Fm -3 m (#225); Bravais cF (face-center cubic)
================================================================================
 Values of the parameters that define the memory need for DATASET  9.
     intxc =       0    ionmov =       0      iscf =      17    lmnmax =      18
     lnmax =       6     mgfft =      50  mpssoang =       3    mqgrid =    3117
     natom =       9  nloc_mem =       2    nspden =       1   nspinor =       1
    nsppol =       1      nsym =      48    n1xccc =       1    ntypat =       3
    occopt =       1   xclevel =       2
-    mband =          42        mffmem =           1         mkmem =          12
       mpw =        5237          nfft =      125000          nkpt =          72
Pmy_natom=         2
 PAW method is used; the additional fine FFT grid is defined by:
   mgfftf=        80    nfftf =    512000
================================================================================
P This job should need less than                     191.145 Mbytes of memory.
  Rough estimation (10% accuracy) of disk space for files :
_ WF disk file :    241.651 Mbytes ; DEN or POT disk file :      3.908 Mbytes.
================================================================================


 DATASET   10 : space group Fm -3 m (#225); Bravais cF (face-center cubic)
================================================================================
 Values of the parameters that define the memory need for DATASET 10.
     intxc =       0    ionmov =       0      iscf =      17    lmnmax =      18
     lnmax =       6     mgfft =      50  mpssoang =       3    mqgrid =    3114
     natom =       9  nloc_mem =       2    nspden =       1   nspinor =       1
    nsppol =       1      nsym =      48    n1xccc =       1    ntypat =       3
    occopt =       1   xclevel =       2
-    mband =          42        mffmem =           1         mkmem =          12
       mpw =        5213          nfft =      125000          nkpt =          72
Pmy_natom=         2
 PAW method is used; the additional fine FFT grid is defined by:
   mgfftf=        80    nfftf =    512000
================================================================================
P This job should need less than                     190.949 Mbytes of memory.
  Rough estimation (10% accuracy) of disk space for files :
_ WF disk file :    240.543 Mbytes ; DEN or POT disk file :      3.908 Mbytes.
================================================================================


 DATASET   11 : space group Fm -3 m (#225); Bravais cF (face-center cubic)
================================================================================
 Values of the parameters that define the memory need for DATASET 11.
     intxc =       0    ionmov =       0      iscf =      17    lmnmax =      18
     lnmax =       6     mgfft =      50  mpssoang =       3    mqgrid =    3110
     natom =       9  nloc_mem =       2    nspden =       1   nspinor =       1
    nsppol =       1      nsym =      48    n1xccc =       1    ntypat =       3
    occopt =       1   xclevel =       2
-    mband =          42        mffmem =           1         mkmem =          12
       mpw =        5194          nfft =      125000          nkpt =          72
Pmy_natom=         2
 PAW method is used; the additional fine FFT grid is defined by:
   mgfftf=        80    nfftf =    512000
================================================================================
P This job should need less than                     190.796 Mbytes of memory.
  Rough estimation (10% accuracy) of disk space for files :
_ WF disk file :    239.667 Mbytes ; DEN or POT disk file :      3.908 Mbytes.
================================================================================


 DATASET   12 : space group Fm -3 m (#225); Bravais cF (face-center cubic)
================================================================================
 Values of the parameters that define the memory need for DATASET 12.
     intxc =       0    ionmov =       0      iscf =      17    lmnmax =      18
     lnmax =       6     mgfft =      50  mpssoang =       3    mqgrid =    3107
     natom =       9  nloc_mem =       2    nspden =       1   nspinor =       1
    nsppol =       1      nsym =      48    n1xccc =       1    ntypat =       3
    occopt =       1   xclevel =       2
-    mband =          42        mffmem =           1         mkmem =          12
       mpw =        5190          nfft =      125000          nkpt =          72
Pmy_natom=         2
 PAW method is used; the additional fine FFT grid is defined by:
   mgfftf=        80    nfftf =    512000
================================================================================
P This job should need less than                     190.773 Mbytes of memory.
  Rough estimation (10% accuracy) of disk space for files :
_ WF disk file :    239.482 Mbytes ; DEN or POT disk file :      3.908 Mbytes.
================================================================================


 DATASET   13 : space group Fm -3 m (#225); Bravais cF (face-center cubic)
================================================================================
 Values of the parameters that define the memory need for DATASET 13.
     intxc =       0    ionmov =       0      iscf =      17    lmnmax =      18
     lnmax =       6     mgfft =      50  mpssoang =       3    mqgrid =    3104
     natom =       9  nloc_mem =       2    nspden =       1   nspinor =       1
    nsppol =       1      nsym =      48    n1xccc =       1    ntypat =       3
    occopt =       1   xclevel =       2
-    mband =          42        mffmem =           1         mkmem =          12
       mpw =        5166          nfft =      125000          nkpt =          72
Pmy_natom=         2
 PAW method is used; the additional fine FFT grid is defined by:
   mgfftf=        80    nfftf =    512000
================================================================================
P This job should need less than                     190.577 Mbytes of memory.
  Rough estimation (10% accuracy) of disk space for files :
_ WF disk file :    238.375 Mbytes ; DEN or POT disk file :      3.908 Mbytes.
================================================================================

--------------------------------------------------------------------------------
------------- Echo of variables that govern the present computation ------------
--------------------------------------------------------------------------------
-
- outvars: echo of selected default values                                      
-   iomode0 =  0 , fftalg0 =112 , wfoptalg0 = 10
-
- outvars: echo of global parameters not present in the input file              
-  max_nthreads =    0
-
 -outvars: echo values of preprocessed input variables --------
            acell1     1.3513275032E+01  1.3513275032E+01  1.3513275032E+01 Bohr
            acell2     1.3499748230E+01  1.3499748230E+01  1.3499748230E+01 Bohr
            acell3     1.3486221428E+01  1.3486221428E+01  1.3486221428E+01 Bohr
            acell4     1.3472694627E+01  1.3472694627E+01  1.3472694627E+01 Bohr
            acell5     1.3459167825E+01  1.3459167825E+01  1.3459167825E+01 Bohr
            acell6     1.3445641023E+01  1.3445641023E+01  1.3445641023E+01 Bohr
            acell7     1.3432114221E+01  1.3432114221E+01  1.3432114221E+01 Bohr
            acell8     1.3418587419E+01  1.3418587419E+01  1.3418587419E+01 Bohr
            acell9     1.3405060617E+01  1.3405060617E+01  1.3405060617E+01 Bohr
            acell10    1.3391533816E+01  1.3391533816E+01  1.3391533816E+01 Bohr
            acell11    1.3378007014E+01  1.3378007014E+01  1.3378007014E+01 Bohr
            acell12    1.3364480212E+01  1.3364480212E+01  1.3364480212E+01 Bohr
            acell13    1.3350953410E+01  1.3350953410E+01  1.3350953410E+01 Bohr
              amu      1.32905430E+02  3.54527000E+01  1.78490000E+02
           diemac      1.20000000E+01
             ecut      1.60000000E+01 Hartree
-          fftalg         112
           istwfk        2    0    0    0    0    0    3    0    0    0
                         0    0    0    0    0    0    0    0    0    0
                         0    0    0    0    0    0    0    0    0    0
                         0    0    0    0    0    0    0    0    0    0
                         0    0    7    0    0    0    0    0    0    0
                       outvar_i_n : Printing only first  50 k-points.
              ixc     -101130
           jdtset        1    2    3    4    5    6    7    8    9   10
                        11   12   13
              kpt      0.00000000E+00  0.00000000E+00  0.00000000E+00
                       8.33333333E-02  0.00000000E+00  0.00000000E+00
                       1.66666667E-01  0.00000000E+00  0.00000000E+00
                       2.50000000E-01  0.00000000E+00  0.00000000E+00
                       3.33333333E-01  0.00000000E+00  0.00000000E+00
                       4.16666667E-01  0.00000000E+00  0.00000000E+00
                       5.00000000E-01  0.00000000E+00  0.00000000E+00
                       8.33333333E-02  8.33333333E-02  0.00000000E+00
                       1.66666667E-01  8.33333333E-02  0.00000000E+00
                       2.50000000E-01  8.33333333E-02  0.00000000E+00
                       3.33333333E-01  8.33333333E-02  0.00000000E+00
                       4.16666667E-01  8.33333333E-02  0.00000000E+00
                       5.00000000E-01  8.33333333E-02  0.00000000E+00
                      -4.16666667E-01  8.33333333E-02  0.00000000E+00
                      -3.33333333E-01  8.33333333E-02  0.00000000E+00
                      -2.50000000E-01  8.33333333E-02  0.00000000E+00
                      -1.66666667E-01  8.33333333E-02  0.00000000E+00
                      -8.33333333E-02  8.33333333E-02  0.00000000E+00
                       1.66666667E-01  1.66666667E-01  0.00000000E+00
                       2.50000000E-01  1.66666667E-01  0.00000000E+00
                       3.33333333E-01  1.66666667E-01  0.00000000E+00
                       4.16666667E-01  1.66666667E-01  0.00000000E+00
                       5.00000000E-01  1.66666667E-01  0.00000000E+00
                      -4.16666667E-01  1.66666667E-01  0.00000000E+00
                      -3.33333333E-01  1.66666667E-01  0.00000000E+00
                      -2.50000000E-01  1.66666667E-01  0.00000000E+00
                      -1.66666667E-01  1.66666667E-01  0.00000000E+00
                       2.50000000E-01  2.50000000E-01  0.00000000E+00
                       3.33333333E-01  2.50000000E-01  0.00000000E+00
                       4.16666667E-01  2.50000000E-01  0.00000000E+00
                       5.00000000E-01  2.50000000E-01  0.00000000E+00
                      -4.16666667E-01  2.50000000E-01  0.00000000E+00
                      -3.33333333E-01  2.50000000E-01  0.00000000E+00
                      -2.50000000E-01  2.50000000E-01  0.00000000E+00
                       3.33333333E-01  3.33333333E-01  0.00000000E+00
                       4.16666667E-01  3.33333333E-01  0.00000000E+00
                       5.00000000E-01  3.33333333E-01  0.00000000E+00
                      -4.16666667E-01  3.33333333E-01  0.00000000E+00
                      -3.33333333E-01  3.33333333E-01  0.00000000E+00
                       4.16666667E-01  4.16666667E-01  0.00000000E+00
                       5.00000000E-01  4.16666667E-01  0.00000000E+00
                      -4.16666667E-01  4.16666667E-01  0.00000000E+00
                       5.00000000E-01  5.00000000E-01  0.00000000E+00
                       2.50000000E-01  1.66666667E-01  8.33333333E-02
                       3.33333333E-01  1.66666667E-01  8.33333333E-02
                       4.16666667E-01  1.66666667E-01  8.33333333E-02
                       5.00000000E-01  1.66666667E-01  8.33333333E-02
                      -4.16666667E-01  1.66666667E-01  8.33333333E-02
                       3.33333333E-01  2.50000000E-01  8.33333333E-02
                       4.16666667E-01  2.50000000E-01  8.33333333E-02
                       outvar_i_n : Printing only first  50 k-points.
         kptrlatt       12    0    0      0   12    0      0    0   12
          kptrlen1     1.62159300E+02
          kptrlen2     1.61996979E+02
          kptrlen3     1.61834657E+02
          kptrlen4     1.61672336E+02
          kptrlen5     1.61510014E+02
          kptrlen6     1.61347692E+02
          kptrlen7     1.61185371E+02
          kptrlen8     1.61023049E+02
          kptrlen9     1.60860727E+02
          kptrlen10    1.60698406E+02
          kptrlen11    1.60536084E+02
          kptrlen12    1.60373763E+02
          kptrlen13    1.60211441E+02
P           mkmem          12
            natom           9
            nband          42
           ndtset          13
            ngfft          50      50      50
          ngfftdg          80      80      80
             nkpt          72
            nstep        2500
             nsym          48
           ntypat           3
              occ      2.000000  2.000000  2.000000  2.000000  2.000000  2.000000
                       2.000000  2.000000  2.000000  2.000000  2.000000  2.000000
                       2.000000  2.000000  2.000000  2.000000  2.000000  2.000000
                       2.000000  2.000000  2.000000  2.000000  2.000000  2.000000
                       2.000000  2.000000  2.000000  2.000000  2.000000  2.000000
                       2.000000  2.000000  2.000000  2.000000  2.000000  2.000000
                       0.000000  0.000000  0.000000  0.000000  0.000000  0.000000
        pawecutdg      4.00000000E+01 Hartree
            prtwf           0
            rprim      0.0000000000E+00  7.0710678119E-01  7.0710678119E-01
                       7.0710678119E-01  0.0000000000E+00  7.0710678119E-01
                       7.0710678119E-01  7.0710678119E-01  0.0000000000E+00
          spgroup         225
           symrel      1  0  0   0  1  0   0  0  1      -1  0  0   0 -1  0   0  0 -1
                       0 -1  1   0 -1  0   1 -1  0       0  1 -1   0  1  0  -1  1  0
                      -1  0  0  -1  0  1  -1  1  0       1  0  0   1  0 -1   1 -1  0
                       0  1 -1   1  0 -1   0  0 -1       0 -1  1  -1  0  1   0  0  1
                      -1  0  0  -1  1  0  -1  0  1       1  0  0   1 -1  0   1  0 -1
                       0 -1  1   1 -1  0   0 -1  0       0  1 -1  -1  1  0   0  1  0
                       1  0  0   0  0  1   0  1  0      -1  0  0   0  0 -1   0 -1  0
                       0  1 -1   0  0 -1   1  0 -1       0 -1  1   0  0  1  -1  0  1
                      -1  0  1  -1  1  0  -1  0  0       1  0 -1   1 -1  0   1  0  0
                       0 -1  0   1 -1  0   0 -1  1       0  1  0  -1  1  0   0  1 -1
                       1  0 -1   0  0 -1   0  1 -1      -1  0  1   0  0  1   0 -1  1
                       0  1  0   0  0  1   1  0  0       0 -1  0   0  0 -1  -1  0  0
                       1  0 -1   0  1 -1   0  0 -1      -1  0  1   0 -1  1   0  0  1
                       0 -1  0   0 -1  1   1 -1  0       0  1  0   0  1 -1  -1  1  0
                      -1  0  1  -1  0  0  -1  1  0       1  0 -1   1  0  0   1 -1  0
                       0  1  0   1  0  0   0  0  1       0 -1  0  -1  0  0   0  0 -1
                       0  0 -1   0  1 -1   1  0 -1       0  0  1   0 -1  1  -1  0  1
                       1 -1  0   0 -1  1   0 -1  0      -1  1  0   0  1 -1   0  1  0
                       0  0  1   1  0  0   0  1  0       0  0 -1  -1  0  0   0 -1  0
                      -1  1  0  -1  0  0  -1  0  1       1 -1  0   1  0  0   1  0 -1
                       0  0  1   0  1  0   1  0  0       0  0 -1   0 -1  0  -1  0  0
                       1 -1  0   0 -1  0   0 -1  1      -1  1  0   0  1  0   0  1 -1
                       0  0 -1   1  0 -1   0  1 -1       0  0  1  -1  0  1   0 -1  1
                      -1  1  0  -1  0  1  -1  0  0       1 -1  0   1  0 -1   1  0  0
           toldfe      1.00000000E-08 Hartree
            typat      1  1  2  2  2  2  2  2  3
           useylm           1
              wtk        0.00058    0.00463    0.00463    0.00463    0.00463    0.00463
                         0.00231    0.00347    0.01389    0.01389    0.01389    0.01389
                         0.01389    0.01389    0.01389    0.01389    0.01389    0.00694
                         0.00347    0.01389    0.01389    0.01389    0.01389    0.01389
                         0.01389    0.01389    0.00694    0.00347    0.01389    0.01389
                         0.01389    0.01389    0.01389    0.00694    0.00347    0.01389
                         0.01389    0.01389    0.00694    0.00347    0.01389    0.00694
                         0.00174    0.01389    0.02778    0.02778    0.02778    0.01389
                         0.01389    0.02778
                       outvars : Printing only first  50 k-points.
           xangst1     2.5282310079E+00  2.5282310079E+00  2.5282310079E+00
                       7.5846930237E+00  7.5846930237E+00  7.5846930237E+00
                       5.0564620158E+00  7.6620882380E+00  5.0564620158E+00
                       5.0564620158E+00  5.0564620158E+00  2.4508357936E+00
                       5.0564620158E+00  5.0564620158E+00  7.6620882380E+00
                       5.0564620158E+00  2.4508357936E+00  5.0564620158E+00
                       7.6620882380E+00  5.0564620158E+00  5.0564620158E+00
                       2.4508357936E+00  5.0564620158E+00  5.0564620158E+00
                       8.6553636065E-20 -6.9552455885E-19  1.6345614709E-19
           xangst2     2.5257002461E+00  2.5257002461E+00  2.5257002461E+00
                       7.5771007383E+00  7.5771007383E+00  7.5771007383E+00
                       5.0514004922E+00  7.6523156089E+00  5.0514004922E+00
                       5.0514004922E+00  5.0514004922E+00  2.4504853755E+00
                       5.0514004922E+00  5.0514004922E+00  7.6523156089E+00
                       5.0514004922E+00  2.4504853755E+00  5.0514004922E+00
                       7.6523156089E+00  5.0514004922E+00  5.0514004922E+00
                       2.4504853755E+00  5.0514004922E+00  5.0514004922E+00
                       5.2028862207E-20 -6.6071417852E-19  1.0783758559E-19
           xangst3     2.5231694843E+00  2.5231694843E+00  2.5231694843E+00
                       7.5695084529E+00  7.5695084529E+00  7.5695084529E+00
                       5.0463389686E+00  7.6425516189E+00  5.0463389686E+00
                       5.0463389686E+00  5.0463389686E+00  2.4501263183E+00
                       5.0463389686E+00  5.0463389686E+00  7.6425516189E+00
                       5.0463389686E+00  2.4501263183E+00  5.0463389686E+00
                       7.6425516189E+00  5.0463389686E+00  5.0463389686E+00
                       2.4501263183E+00  5.0463389686E+00  5.0463389686E+00
                       2.4085655509E-20 -6.6266024493E-19  2.0149898188E-19
           xangst4     2.5206387227E+00  2.5206387227E+00  2.5206387227E+00
                       7.5619161681E+00  7.5619161681E+00  7.5619161681E+00
                       5.0412774454E+00  7.6328269664E+00  5.0412774454E+00
                       5.0412774454E+00  5.0412774454E+00  2.4497279244E+00
                       5.0412774454E+00  5.0412774454E+00  7.6328269664E+00
                       5.0412774454E+00  2.4497279244E+00  5.0412774454E+00
                       7.6328269664E+00  5.0412774454E+00  5.0412774454E+00
                       2.4497279244E+00  5.0412774454E+00  5.0412774454E+00
                       3.1241508414E-20 -6.4804407083E-19  1.2835771912E-19
           xangst5     2.5181079609E+00  2.5181079609E+00  2.5181079609E+00
                       7.5543238827E+00  7.5543238827E+00  7.5543238827E+00
                       5.0362159218E+00  7.6230874427E+00  5.0362159218E+00
                       5.0362159218E+00  5.0362159218E+00  2.4493444009E+00
                       5.0362159218E+00  5.0362159218E+00  7.6230874427E+00
                       5.0362159218E+00  2.4493444009E+00  5.0362159218E+00
                       7.6230874427E+00  5.0362159218E+00  5.0362159218E+00
                       2.4493444009E+00  5.0362159218E+00  5.0362159218E+00
                       8.6207074961E-20 -6.9273967575E-19  1.6280166803E-19
           xangst6     2.5155771991E+00  2.5155771991E+00  2.5155771991E+00
                       7.5467315973E+00  7.5467315973E+00  7.5467315973E+00
                       5.0311543982E+00  7.6133521663E+00  5.0311543982E+00
                       5.0311543982E+00  5.0311543982E+00  2.4489566301E+00
                       5.0311543982E+00  5.0311543982E+00  7.6133521663E+00
                       5.0311543982E+00  2.4489566301E+00  5.0311543982E+00
                       7.6133521663E+00  5.0311543982E+00  5.0311543982E+00
                       2.4489566301E+00  5.0311543982E+00  5.0311543982E+00
                       1.5528046996E-19 -7.8009908511E-19  1.8848929522E-19
           xangst7     2.5130464373E+00  2.5130464373E+00  2.5130464373E+00
                       7.5391393119E+00  7.5391393119E+00  7.5391393119E+00
                       5.0260928746E+00  7.6036063535E+00  5.0260928746E+00
                       5.0260928746E+00  5.0260928746E+00  2.4485793956E+00
                       5.0260928746E+00  5.0260928746E+00  7.6036063535E+00
                       5.0260928746E+00  2.4485793956E+00  5.0260928746E+00
                       7.6036063535E+00  5.0260928746E+00  5.0260928746E+00
                       2.4485793956E+00  5.0260928746E+00  5.0260928746E+00
                       1.0081825477E-19 -7.9573406373E-19  2.1355592954E-19
           xangst8     2.5105156755E+00  2.5105156755E+00  2.5105156755E+00
                       7.5315470265E+00  7.5315470265E+00  7.5315470265E+00
                       5.0210313510E+00  7.5938998861E+00  5.0210313510E+00
                       5.0210313510E+00  5.0210313510E+00  2.4481628159E+00
                       5.0210313510E+00  5.0210313510E+00  7.5938998861E+00
                       5.0210313510E+00  2.4481628159E+00  5.0210313510E+00
                       7.5938998861E+00  5.0210313510E+00  5.0210313510E+00
                       2.4481628159E+00  5.0210313510E+00  5.0210313510E+00
                       1.6276472883E-19 -8.8963518418E-19  2.6377626122E-19
           xangst9     2.5079849137E+00  2.5079849137E+00  2.5079849137E+00
                       7.5239547411E+00  7.5239547411E+00  7.5239547411E+00
                       5.0159698274E+00  7.5842288895E+00  5.0159698274E+00
                       5.0159698274E+00  5.0159698274E+00  2.4477107653E+00
                       5.0159698274E+00  5.0159698274E+00  7.5842288895E+00
                       5.0159698274E+00  2.4477107653E+00  5.0159698274E+00
                       7.5842288895E+00  5.0159698274E+00  5.0159698274E+00
                       2.4477107653E+00  5.0159698274E+00  5.0159698274E+00
                       1.7877115710E-19 -9.3134055282E-19  2.3534184485E-19
           xangst10    2.5054541521E+00  2.5054541521E+00  2.5054541521E+00
                       7.5163624562E+00  7.5163624562E+00  7.5163624562E+00
                       5.0109083041E+00  7.5745143680E+00  5.0109083041E+00
                       5.0109083041E+00  5.0109083041E+00  2.4473022403E+00
                       5.0109083041E+00  5.0109083041E+00  7.5745143680E+00
                       5.0109083041E+00  2.4473022403E+00  5.0109083041E+00
                       7.5745143680E+00  5.0109083041E+00  5.0109083041E+00
                       2.4473022403E+00  5.0109083041E+00  5.0109083041E+00
                       9.7790851634E-20 -9.9555016587E-19  3.0171653048E-19
           xangst11    2.5029233903E+00  2.5029233903E+00  2.5029233903E+00
                       7.5087701708E+00  7.5087701708E+00  7.5087701708E+00
                       5.0058467805E+00  7.5649011635E+00  5.0058467805E+00
                       5.0058467805E+00  5.0058467805E+00  2.4467923976E+00
                       5.0058467805E+00  5.0058467805E+00  7.5649011635E+00
                       5.0058467805E+00  2.4467923976E+00  5.0058467805E+00
                       7.5649011635E+00  5.0058467805E+00  5.0058467805E+00
                       2.4467923976E+00  5.0058467805E+00  5.0058467805E+00
                       4.9666323985E-20 -1.0240929761E-18  3.2979904541E-19
           xangst12    2.5003926285E+00  2.5003926285E+00  2.5003926285E+00
                       7.5011778854E+00  7.5011778854E+00  7.5011778854E+00
                       5.0007852569E+00  7.5552537819E+00  5.0007852569E+00
                       5.0007852569E+00  5.0007852569E+00  2.4463167320E+00
                       5.0007852569E+00  5.0007852569E+00  7.5552537819E+00
                       5.0007852569E+00  2.4463167320E+00  5.0007852569E+00
                       7.5552537819E+00  5.0007852569E+00  5.0007852569E+00
                       2.4463167320E+00  5.0007852569E+00  5.0007852569E+00
                       7.5605989361E-20 -1.0469187789E-18  3.3356051750E-19
           xangst13    2.4978618667E+00  2.4978618667E+00  2.4978618667E+00
                       7.4935856000E+00  7.4935856000E+00  7.4935856000E+00
                       4.9957237333E+00  7.5456200385E+00  4.9957237333E+00
                       4.9957237333E+00  4.9957237333E+00  2.4458274282E+00
                       4.9957237333E+00  4.9957237333E+00  7.5456200385E+00
                       4.9957237333E+00  2.4458274282E+00  4.9957237333E+00
                       7.5456200385E+00  4.9957237333E+00  4.9957237333E+00
                       2.4458274282E+00  4.9957237333E+00  4.9957237333E+00
                       8.5513952748E-20 -6.8716990950E-19  1.6149270989E-19
            xcart1     4.7776642056E+00  4.7776642056E+00  4.7776642056E+00
                       1.4332992617E+01  1.4332992617E+01  1.4332992617E+01
                       9.5553284112E+00  1.4479248376E+01  9.5553284112E+00
                       9.5553284112E+00  9.5553284112E+00  4.6314084467E+00
                       9.5553284112E+00  9.5553284112E+00  1.4479248376E+01
                       9.5553284112E+00  4.6314084467E+00  9.5553284112E+00
                       1.4479248376E+01  9.5553284112E+00  9.5553284112E+00
                       4.6314084467E+00  9.5553284112E+00  9.5553284112E+00
                       1.6356266797E-19 -1.3143509349E-18  3.0888735274E-19
            xcart2     4.7728817589E+00  4.7728817589E+00  4.7728817589E+00
                       1.4318645277E+01  1.4318645277E+01  1.4318645277E+01
                       9.5457635178E+00  1.4460780783E+01  9.5457635178E+00
                       9.5457635178E+00  9.5457635178E+00  4.6307462523E+00
                       9.5457635178E+00  9.5457635178E+00  1.4460780783E+01
                       9.5457635178E+00  4.6307462523E+00  9.5457635178E+00
                       1.4460780783E+01  9.5457635178E+00  9.5457635178E+00
                       4.6307462523E+00  9.5457635178E+00  9.5457635178E+00
                       9.8320300577E-20 -1.2485688495E-18  2.0378350359E-19
            xcart3     4.7680993122E+00  4.7680993122E+00  4.7680993122E+00
                       1.4304297937E+01  1.4304297937E+01  1.4304297937E+01
                       9.5361986244E+00  1.4442329516E+01  9.5361986244E+00
                       9.5361986244E+00  9.5361986244E+00  4.6300677326E+00
                       9.5361986244E+00  9.5361986244E+00  1.4442329516E+01
                       9.5361986244E+00  4.6300677326E+00  9.5361986244E+00
                       1.4442329516E+01  9.5361986244E+00  9.5361986244E+00
                       4.6300677326E+00  9.5361986244E+00  9.5361986244E+00
                       4.5515292642E-20 -1.2522463821E-18  3.8077789181E-19
            xcart4     4.7633168658E+00  4.7633168658E+00  4.7633168658E+00
                       1.4289950597E+01  1.4289950597E+01  1.4289950597E+01
                       9.5266337317E+00  1.4423952586E+01  9.5266337317E+00
                       9.5266337317E+00  9.5266337317E+00  4.6293148772E+00
                       9.5266337317E+00  9.5266337317E+00  1.4423952586E+01
                       9.5266337317E+00  4.6293148772E+00  9.5266337317E+00
                       1.4423952586E+01  9.5266337317E+00  9.5266337317E+00
                       4.6293148772E+00  9.5266337317E+00  9.5266337317E+00
                       5.9037894882E-20 -1.2246258159E-18  2.4256093619E-19
            xcart5     4.7585344191E+00  4.7585344191E+00  4.7585344191E+00
                       1.4275603257E+01  1.4275603257E+01  1.4275603257E+01
                       9.5170688382E+00  1.4405547554E+01  9.5170688382E+00
                       9.5170688382E+00  9.5170688382E+00  4.6285901228E+00
                       9.5170688382E+00  9.5170688382E+00  1.4405547554E+01
                       9.5170688382E+00  4.6285901228E+00  9.5170688382E+00
                       1.4405547554E+01  9.5170688382E+00  9.5170688382E+00
                       4.6285901228E+00  9.5170688382E+00  9.5170688382E+00
                       1.6290776239E-19 -1.3090882686E-18  3.0765056655E-19
            xcart6     4.7537519724E+00  4.7537519724E+00  4.7537519724E+00
                       1.4261255917E+01  1.4261255917E+01  1.4261255917E+01
                       9.5075039448E+00  1.4387150547E+01  9.5075039448E+00
                       9.5075039448E+00  9.5075039448E+00  4.6278573422E+00
                       9.5075039448E+00  9.5075039448E+00  1.4387150547E+01
                       9.5075039448E+00  4.6278573422E+00  9.5075039448E+00
                       1.4387150547E+01  9.5075039448E+00  9.5075039448E+00
                       4.6278573422E+00  9.5075039448E+00  9.5075039448E+00
                       2.9343756201E-19 -1.4741736274E-18  3.5619314694E-19
            xcart7     4.7489695257E+00  4.7489695257E+00  4.7489695257E+00
                       1.4246908577E+01  1.4246908577E+01  1.4246908577E+01
                       9.4979390514E+00  1.4368733630E+01  9.4979390514E+00
                       9.4979390514E+00  9.4979390514E+00  4.6271444724E+00
                       9.4979390514E+00  9.4979390514E+00  1.4368733630E+01
                       9.4979390514E+00  4.6271444724E+00  9.4979390514E+00
                       1.4368733630E+01  9.4979390514E+00  9.4979390514E+00
                       4.6271444724E+00  9.4979390514E+00  9.4979390514E+00
                       1.9051889071E-19 -1.5037194551E-18  4.0356222089E-19
            xcart8     4.7441870790E+00  4.7441870790E+00  4.7441870790E+00
                       1.4232561237E+01  1.4232561237E+01  1.4232561237E+01
                       9.4883741580E+00  1.4350391065E+01  9.4883741580E+00
                       9.4883741580E+00  9.4883741580E+00  4.6263572507E+00
                       9.4883741580E+00  9.4883741580E+00  1.4350391065E+01
                       9.4883741580E+00  4.6263572507E+00  9.4883741580E+00
                       1.4350391065E+01  9.4883741580E+00  9.4883741580E+00
                       4.6263572507E+00  9.4883741580E+00  9.4883741580E+00
                       3.0758076158E-19 -1.6811668563E-18  4.9846489406E-19
            xcart9     4.7394046323E+00  4.7394046323E+00  4.7394046323E+00
                       1.4218213897E+01  1.4218213897E+01  1.4218213897E+01
                       9.4788092645E+00  1.4332115530E+01  9.4788092645E+00
                       9.4788092645E+00  9.4788092645E+00  4.6255029989E+00
                       9.4788092645E+00  9.4788092645E+00  1.4332115530E+01
                       9.4788092645E+00  4.6255029989E+00  9.4788092645E+00
                       1.4332115530E+01  9.4788092645E+00  9.4788092645E+00
                       4.6255029989E+00  9.4788092645E+00  9.4788092645E+00
                       3.3782852738E-19 -1.7599785813E-18  4.4473163438E-19
            xcart10    4.7346221859E+00  4.7346221859E+00  4.7346221859E+00
                       1.4203866558E+01  1.4203866558E+01  1.4203866558E+01
                       9.4692443718E+00  1.4313757745E+01  9.4692443718E+00
                       9.4692443718E+00  9.4692443718E+00  4.6247309986E+00
                       9.4692443718E+00  9.4692443718E+00  1.4313757745E+01
                       9.4692443718E+00  4.6247309986E+00  9.4692443718E+00
                       1.4313757745E+01  9.4692443718E+00  9.4692443718E+00
                       4.6247309986E+00  9.4692443718E+00  9.4692443718E+00
                       1.8479792789E-19 -1.8813171650E-18  5.7016161237E-19
            xcart11    4.7298397392E+00  4.7298397392E+00  4.7298397392E+00
                       1.4189519218E+01  1.4189519218E+01  1.4189519218E+01
                       9.4596794784E+00  1.4295591421E+01  9.4596794784E+00
                       9.4596794784E+00  9.4596794784E+00  4.6237675355E+00
                       9.4596794784E+00  9.4596794784E+00  1.4295591421E+01
                       9.4596794784E+00  4.6237675355E+00  9.4596794784E+00
                       1.4295591421E+01  9.4596794784E+00  9.4596794784E+00
                       4.6237675355E+00  9.4596794784E+00  9.4596794784E+00
                       9.3855750359E-20 -1.9352552594E-18  6.2322987471E-19
            xcart12    4.7250572925E+00  4.7250572925E+00  4.7250572925E+00
                       1.4175171877E+01  1.4175171877E+01  1.4175171877E+01
                       9.4501145850E+00  1.4277360512E+01  9.4501145850E+00
                       9.4501145850E+00  9.4501145850E+00  4.6228686578E+00
                       9.4501145850E+00  9.4501145850E+00  1.4277360512E+01
                       9.4501145850E+00  4.6228686578E+00  9.4501145850E+00
                       1.4277360512E+01  9.4501145850E+00  9.4501145850E+00
                       4.6228686578E+00  9.4501145850E+00  9.4501145850E+00
                       1.4287461390E-19 -1.9783897756E-18  6.3033802681E-19
            xcart13    4.7202748458E+00  4.7202748458E+00  4.7202748458E+00
                       1.4160824537E+01  1.4160824537E+01  1.4160824537E+01
                       9.4405496916E+00  1.4259155376E+01  9.4405496916E+00
                       9.4405496916E+00  9.4405496916E+00  4.6219440076E+00
                       9.4405496916E+00  9.4405496916E+00  1.4259155376E+01
                       9.4405496916E+00  4.6219440076E+00  9.4405496916E+00
                       1.4259155376E+01  9.4405496916E+00  9.4405496916E+00
                       4.6219440076E+00  9.4405496916E+00  9.4405496916E+00
                       1.6159795124E-19 -1.2985629357E-18  3.0517699415E-19
             xred1     2.5000000000E-01  2.5000000000E-01  2.5000000000E-01
                       7.5000000000E-01  7.5000000000E-01  7.5000000000E-01
                       7.5765309954E-01  2.4234690046E-01  7.5765309954E-01
                       2.4234690046E-01  2.4234690046E-01  7.5765309954E-01
                       7.5765309954E-01  7.5765309954E-01  2.4234690046E-01
                       2.4234690046E-01  7.5765309954E-01  2.4234690046E-01
                       2.4234690046E-01  7.5765309954E-01  7.5765309954E-01
                       7.5765309954E-01  2.4234690046E-01  2.4234690046E-01
                      -6.1171432307E-20  9.3497621366E-20 -7.6380191077E-20
             xred2     2.5000000000E-01  2.5000000000E-01  2.5000000000E-01
                       7.5000000000E-01  7.5000000000E-01  7.5000000000E-01
                       7.5744495222E-01  2.4255504778E-01  7.5744495222E-01
                       2.4255504778E-01  2.4255504778E-01  7.5744495222E-01
                       7.5744495222E-01  7.5744495222E-01  2.4255504778E-01
                       2.4255504778E-01  7.5744495222E-01  2.4255504778E-01
                       2.4255504778E-01  7.5744495222E-01  7.5744495222E-01
                       7.5744495222E-01  2.4255504778E-01  2.4255504778E-01
                      -5.9875024369E-20  8.1223081359E-20 -7.0923192786E-20
             xred3     2.5000000000E-01  2.5000000000E-01  2.5000000000E-01
                       7.5000000000E-01  7.5000000000E-01  7.5000000000E-01
                       7.5723724332E-01  2.4276275668E-01  7.5723724332E-01
                       2.4276275668E-01  2.4276275668E-01  7.5723724332E-01
                       7.5723724332E-01  7.5723724332E-01  2.4276275668E-01
                       2.4276275668E-01  7.5723724332E-01  2.4276275668E-01
                       2.4276275668E-01  7.5723724332E-01  7.5723724332E-01
                       7.5723724332E-01  2.4276275668E-01  2.4276275668E-01
                      -4.8079104632E-20  8.8008840453E-20 -8.3235943575E-20
             xred4     2.5000000000E-01  2.5000000000E-01  2.5000000000E-01
                       7.5000000000E-01  7.5000000000E-01  7.5000000000E-01
                       7.5703301882E-01  2.4296698118E-01  7.5703301882E-01
                       2.4296698118E-01  2.4296698118E-01  7.5703301882E-01
                       7.5703301882E-01  7.5703301882E-01  2.4296698118E-01
                       2.4296698118E-01  7.5703301882E-01  2.4296698118E-01
                       2.4296698118E-01  7.5703301882E-01  7.5703301882E-01
                       7.5703301882E-01  2.4296698118E-01  2.4296698118E-01
                      -5.4641692120E-20  8.0103040065E-20 -7.3905898814E-20
             xred5     2.5000000000E-01  2.5000000000E-01  2.5000000000E-01
                       7.5000000000E-01  7.5000000000E-01  7.5000000000E-01
                       7.5682690745E-01  2.4317309255E-01  7.5682690745E-01
                       2.4317309255E-01  2.4317309255E-01  7.5682690745E-01
                       7.5682690745E-01  7.5682690745E-01  2.4317309255E-01
                       2.4317309255E-01  7.5682690745E-01  2.4317309255E-01
                       2.4317309255E-01  7.5682690745E-01  7.5682690745E-01
                       7.5682690745E-01  2.4317309255E-01  2.4317309255E-01
                      -6.1171432307E-20  9.3497621366E-20 -7.6380191077E-20
             xred6     2.5000000000E-01  2.5000000000E-01  2.5000000000E-01
                       7.5000000000E-01  7.5000000000E-01  7.5000000000E-01
                       7.5662080347E-01  2.4337919653E-01  7.5662080347E-01
                       2.4337919653E-01  2.4337919653E-01  7.5662080347E-01
                       7.5662080347E-01  7.5662080347E-01  2.4337919653E-01
                       2.4337919653E-01  7.5662080347E-01  2.4337919653E-01
                       2.4337919653E-01  7.5662080347E-01  7.5662080347E-01
                       7.5662080347E-01  2.4337919653E-01  2.4337919653E-01
                      -7.4226529415E-20  1.1169095215E-19 -8.0827166690E-20
             xred7     2.5000000000E-01  2.5000000000E-01  2.5000000000E-01
                       7.5000000000E-01  7.5000000000E-01  7.5000000000E-01
                       7.5641323621E-01  2.4358676379E-01  7.5641323621E-01
                       2.4358676379E-01  2.4358676379E-01  7.5641323621E-01
                       7.5641323621E-01  7.5641323621E-01  2.4358676379E-01
                       2.4358676379E-01  7.5641323621E-01  2.4358676379E-01
                       2.4358676379E-01  7.5641323621E-01  7.5641323621E-01
                       7.5641323621E-01  2.4358676379E-01  2.4358676379E-01
                      -6.7945062497E-20  1.1043451402E-19 -9.0375542313E-20
             xred8     2.5000000000E-01  2.5000000000E-01  2.5000000000E-01
                       7.5000000000E-01  7.5000000000E-01  7.5000000000E-01
                       7.5620916852E-01  2.4379083148E-01  7.5620916852E-01
                       2.4379083148E-01  2.4379083148E-01  7.5620916852E-01
                       7.5620916852E-01  7.5620916852E-01  2.4379083148E-01
                       2.4379083148E-01  7.5620916852E-01  2.4379083148E-01
                       2.4379083148E-01  7.5620916852E-01  7.5620916852E-01
                       7.5620916852E-01  2.4379083148E-01  2.4379083148E-01
                      -7.8532038208E-20  1.3106631708E-19 -9.8649724262E-20
             xred9     2.5000000000E-01  2.5000000000E-01  2.5000000000E-01
                       7.5000000000E-01  7.5000000000E-01  7.5000000000E-01
                       7.5600822478E-01  2.4399177522E-01  7.5600822478E-01
                       2.4399177522E-01  2.4399177522E-01  7.5600822478E-01
                       7.5600822478E-01  7.5600822478E-01  2.4399177522E-01
                       2.4399177522E-01  7.5600822478E-01  2.4399177522E-01
                       2.4399177522E-01  7.5600822478E-01  7.5600822478E-01
                       7.5600822478E-01  2.4399177522E-01  2.4399177522E-01
                      -8.7198477580E-20  1.3411699044E-19 -9.8476593218E-20
             xred10    2.5000000000E-01  2.5000000000E-01  2.5000000000E-01
                       7.5000000000E-01  7.5000000000E-01  7.5000000000E-01
                       7.5580253202E-01  2.4419746798E-01  7.5580253202E-01
                       2.4419746798E-01  2.4419746798E-01  7.5580253202E-01
                       7.5580253202E-01  7.5580253202E-01  2.4419746798E-01
                       2.4419746798E-01  7.5580253202E-01  2.4419746798E-01
                       2.4419746798E-01  7.5580253202E-01  7.5580253202E-01
                       7.5580253202E-01  2.4419746798E-01  2.4419746798E-01
                      -7.8990119054E-20  1.3920206311E-19 -1.1968646919E-19
             xred11    2.5000000000E-01  2.5000000000E-01  2.5000000000E-01
                       7.5000000000E-01  7.5000000000E-01  7.5000000000E-01
                       7.5560654322E-01  2.4439345678E-01  7.5560654322E-01
                       2.4439345678E-01  2.4439345678E-01  7.5560654322E-01
                       7.5560654322E-01  7.5560654322E-01  2.4439345678E-01
                       2.4439345678E-01  7.5560654322E-01  2.4439345678E-01
                       2.4439345678E-01  7.5560654322E-01  7.5560654322E-01
                       7.5560654322E-01  2.4439345678E-01  2.4439345678E-01
                      -7.4309131626E-20  1.4019190029E-19 -1.3027023745E-19
             xred12    2.5000000000E-01  2.5000000000E-01  2.5000000000E-01
                       7.5000000000E-01  7.5000000000E-01  7.5000000000E-01
                       7.5540674051E-01  2.4459325949E-01  7.5540674051E-01
                       2.4459325949E-01  2.4459325949E-01  7.5540674051E-01
                       7.5540674051E-01  7.5540674051E-01  2.4459325949E-01
                       2.4459325949E-01  7.5540674051E-01  2.4459325949E-01
                       2.4459325949E-01  7.5540674051E-01  7.5540674051E-01
                       7.5540674051E-01  2.4459325949E-01  2.4459325949E-01
                      -7.8884036234E-20  1.4558566415E-19 -1.3046684071E-19
             xred13    2.5000000000E-01  2.5000000000E-01  2.5000000000E-01
                       7.5000000000E-01  7.5000000000E-01  7.5000000000E-01
                       7.5520789792E-01  2.4479210208E-01  7.5520789792E-01
                       2.4479210208E-01  2.4479210208E-01  7.5520789792E-01
                       7.5520789792E-01  7.5520789792E-01  2.4479210208E-01
                       2.4479210208E-01  7.5520789792E-01  2.4479210208E-01
                       2.4479210208E-01  7.5520789792E-01  7.5520789792E-01
                       7.5520789792E-01  2.4479210208E-01  2.4479210208E-01
                      -6.1171432307E-20  9.3497621366E-20 -7.6380191077E-20
            znucl       55.00000   17.00000   72.00000

================================================================================

 chkinp: Checking input parameters for consistency, jdtset=   1.

 chkinp: Checking input parameters for consistency, jdtset=   2.

 chkinp: Checking input parameters for consistency, jdtset=   3.

 chkinp: Checking input parameters for consistency, jdtset=   4.

 chkinp: Checking input parameters for consistency, jdtset=   5.

 chkinp: Checking input parameters for consistency, jdtset=   6.

 chkinp: Checking input parameters for consistency, jdtset=   7.

 chkinp: Checking input parameters for consistency, jdtset=   8.

 chkinp: Checking input parameters for consistency, jdtset=   9.

 chkinp: Checking input parameters for consistency, jdtset=  10.

 chkinp: Checking input parameters for consistency, jdtset=  11.

 chkinp: Checking input parameters for consistency, jdtset=  12.

 chkinp: Checking input parameters for consistency, jdtset=  13.

================================================================================
== DATASET  1 ==================================================================
-   mpi_nproc: 6, omp_nthreads: -1 (-1 if OMP is not activated)


--- !DatasetInfo
iteration_state: {dtset: 1, }
dimensions: {natom: 9, nkpt: 72, mband: 42, nsppol: 1, nspinor: 1, nspden: 1, mpw: 5365, }
cutoff_energies: {ecut:  16.0, pawecutdg:  40.0, }
electrons: {nelect:   7.20000000E+01, charge:   0.00000000E+00, occopt:   1.00000000E+00, tsmear:   1.00000000E-02, }
meta: {optdriver: 0, ionmov: 0, optcell: 0, iscf: 17, paral_kgb: 0, }
...

 Real(R)+Recip(G) space primitive vectors, cartesian coordinates (Bohr,Bohr^-1):
 R(1)=  0.0000000  9.5553284  9.5553284  G(1)= -0.0523268  0.0523268  0.0523268
 R(2)=  9.5553284  0.0000000  9.5553284  G(2)=  0.0523268 -0.0523268  0.0523268
 R(3)=  9.5553284  9.5553284  0.0000000  G(3)=  0.0523268  0.0523268 -0.0523268
 Unit cell volume ucvol=  1.7448852E+03 bohr^3
 Angles (23,13,12)=  6.00000000E+01  6.00000000E+01  6.00000000E+01 degrees

 Coarse grid specifications (used for wave-functions):

 getcut: wavevector=  0.0000  0.0000  0.0000  ngfft=  50  50  50
         ecut(hartree)=     16.000   => boxcut(ratio)=   2.05569

 Fine grid specifications (used for densities):

 getcut: wavevector=  0.0000  0.0000  0.0000  ngfft=  80  80  80
         ecut(hartree)=     40.000   => boxcut(ratio)=   2.07938

--- Pseudopotential description ------------------------------------------------
- pspini: atom type   1  psp file is ../../../Psps_for_tests/ATOMICDATA/Cs.GGA_PBE-JTH.xml
- pspatm: opening atomic psp file    ../../../Psps_for_tests/ATOMICDATA/Cs.GGA_PBE-JTH.xml
- pspatm : Reading pseudopotential header in XML form from ../../../Psps_for_tests/ATOMICDATA/Cs.GGA_PBE-JTH.xml
 Pseudopotential format is: paw10
 basis_size (lnmax)=  6 (lmn_size= 18), orbitals=   0   0   1   1   2   2
 Spheres core radius: rc_sph= 2.20660278
 1 radial meshes are used:
  - mesh 1: r(i)=AA*[exp(BB*(i-1))-1], size=1500 , AA= 0.15922E-03 BB= 0.87573E-02
 Shapefunction is SIN type: shapef(r)=[sin(pi*r/rshp)/(pi*r/rshp)]**2
 Radius for shape functions =  2.00394208
 mmax= 1500
 Radial grid used for partial waves is grid 1
 Radial grid used for projectors is grid 1
 Radial grid used for (t)core density is grid 1
 Radial grid used for Vloc is grid 1
 Radial grid used for pseudo valence density is grid 1
 Mesh size for Vloc has been set to 1341 to avoid numerical noise.
 Compensation charge density is not taken into account in XC energy/potential
 pspatm: atomic psp has been read  and splines computed

- pspini: atom type   2  psp file is ../../../Psps_for_tests/ATOMICDATA/Cl.GGA_PBE-JTH.xml
- pspatm: opening atomic psp file    ../../../Psps_for_tests/ATOMICDATA/Cl.GGA_PBE-JTH.xml
- pspatm : Reading pseudopotential header in XML form from ../../../Psps_for_tests/ATOMICDATA/Cl.GGA_PBE-JTH.xml
 Pseudopotential format is: paw10
 basis_size (lnmax)=  4 (lmn_size=  8), orbitals=   0   0   1   1
 Spheres core radius: rc_sph= 1.80315674
 1 radial meshes are used:
  - mesh 1: r(i)=AA*[exp(BB*(i-1))-1], size=1400 , AA= 0.50355E-03 BB= 0.85603E-02
 Shapefunction is SIN type: shapef(r)=[sin(pi*r/rshp)/(pi*r/rshp)]**2
 Radius for shape functions =  1.61320365
 mmax= 1400
 Radial grid used for partial waves is grid 1
 Radial grid used for projectors is grid 1
 Radial grid used for (t)core density is grid 1
 Radial grid used for Vloc is grid 1
 Radial grid used for pseudo valence density is grid 1
 Mesh size for Vloc has been set to 1238 to avoid numerical noise.
 Compensation charge density is not taken into account in XC energy/potential
 pspatm: atomic psp has been read  and splines computed

- pspini: atom type   3  psp file is ../../../Psps_for_tests/ATOMICDATA/Hf.GGA_PBE-JTH.xml
- pspatm: opening atomic psp file    ../../../Psps_for_tests/ATOMICDATA/Hf.GGA_PBE-JTH.xml
- pspatm : Reading pseudopotential header in XML form from ../../../Psps_for_tests/ATOMICDATA/Hf.GGA_PBE-JTH.xml
 Pseudopotential format is: paw10
 basis_size (lnmax)=  6 (lmn_size= 18), orbitals=   0   0   1   1   2   2
 Spheres core radius: rc_sph= 2.41000000
 1 radial meshes are used:
  - mesh 1: r(i)=AA*[exp(BB*(i-1))-1], size= 972 , AA= 0.19796E-03 BB= 0.14253E-01
 Shapefunction is SIN type: shapef(r)=[sin(pi*r/rshp)/(pi*r/rshp)]**2
 Radius for shape functions =  2.41000000
 mmax=  972
 Radial grid used for partial waves is grid 1
 Radial grid used for projectors is grid 1
 Radial grid used for (t)core density is grid 1
 Radial grid used for Vloc is grid 1
 Radial grid used for pseudo valence density is grid 1
 Mesh size for Vloc has been set to  809 to avoid numerical noise.
 Compensation charge density is not taken into account in XC energy/potential
 pspatm: atomic psp has been read  and splines computed

   1.56818020E+04                                ecore*ucvol(ha*bohr**3)
--------------------------------------------------------------------------------

_setup2: Arith. and geom. avg. npw (full set) are    5333.131    5333.123

================================================================================

--- !BeginCycle
iteration_state: {dtset: 1, }
solver: {iscf: 17, nstep: 2500, nline: 4, wfoptalg: 10, }
tolerances: {toldfe: 1.00E-08, }
...

     iter   Etot(hartree)      deltaE(h)  residm     nres2
 ETOT  1  -180.19428147223    -1.802E+02 9.206E+00 6.400E+00
 ETOT  2  -182.37319560185    -2.179E+00 5.836E-02 5.605E+00
 ETOT  3  -182.34323489195     2.996E-02 1.995E-02 8.133E-01
 ETOT  4  -182.34359809776    -3.632E-04 9.819E-03 1.318E-01
 ETOT  5  -182.34403384633    -4.357E-04 1.066E-02 7.848E-03
 ETOT  6  -182.34410104112    -6.719E-05 5.105E-03 1.170E-03
 ETOT  7  -182.34411562473    -1.458E-05 2.678E-03 9.062E-05
 ETOT  8  -182.34411631414    -6.894E-07 3.002E-03 2.068E-05
 ETOT  9  -182.34411662948    -3.153E-07 1.796E-03 1.231E-06
 ETOT 10  -182.34411664281    -1.333E-08 1.431E-03 1.603E-07
 ETOT 11  -182.34411664498    -2.172E-09 5.942E-04 1.869E-08
 ETOT 12  -182.34411664482     1.665E-10 5.227E-04 3.078E-09

 At SCF step   12, etot is converged : 
  for the second time, diff in etot=  1.665E-10 < toldfe=  1.000E-08

 Cartesian components of stress tensor (hartree/bohr^3)
  sigma(1 1)= -8.76671118E-05  sigma(3 2)=  0.00000000E+00
  sigma(2 2)= -8.76671118E-05  sigma(3 1)=  0.00000000E+00
  sigma(3 3)= -8.76671118E-05  sigma(2 1)=  0.00000000E+00


--- !ResultsGS
iteration_state: {dtset: 1, }
comment   : Summary of ground state results
lattice_vectors:
- [  0.0000000,   9.5553284,   9.5553284, ]
- [  9.5553284,   0.0000000,   9.5553284, ]
- [  9.5553284,   9.5553284,   0.0000000, ]
lattice_lengths: [  13.51328,   13.51328,   13.51328, ]
lattice_angles: [ 60.000,  60.000,  60.000, ] # degrees, (23, 13, 12)
lattice_volume:   1.7448852E+03
convergence: {deltae:  1.665E-10, res2:  3.078E-09, residm:  5.227E-04, diffor: null, }
etotal    :  -1.82344117E+02
entropy   :   0.00000000E+00
fermie    :  -8.89542981E-03
cartesian_stress_tensor: # hartree/bohr^3
- [ -8.76671118E-05,   0.00000000E+00,   0.00000000E+00, ]
- [  0.00000000E+00,  -8.76671118E-05,   0.00000000E+00, ]
- [  0.00000000E+00,   0.00000000E+00,  -8.76671118E-05, ]
pressure_GPa:   2.5793E+00
xred      :
- [  2.5000E-01,   2.5000E-01,   2.5000E-01, Cs]
- [  7.5000E-01,   7.5000E-01,   7.5000E-01, Cs]
- [  7.5765E-01,   2.4235E-01,   7.5765E-01, Cl]
- [  2.4235E-01,   2.4235E-01,   7.5765E-01, Cl]
- [  7.5765E-01,   7.5765E-01,   2.4235E-01, Cl]
- [  2.4235E-01,   7.5765E-01,   2.4235E-01, Cl]
- [  2.4235E-01,   7.5765E-01,   7.5765E-01, Cl]
- [  7.5765E-01,   2.4235E-01,   2.4235E-01, Cl]
- [ -6.1171E-20,   9.3498E-20,  -7.6380E-20, Hf]
cartesian_forces: # hartree/bohr
- [  7.52918112E-22,   3.15182521E-22,  -6.62627324E-22, ]
- [  7.52918189E-22,   3.15182627E-22,  -6.62627176E-22, ]
- [ -4.31466628E-21,   2.01082815E-05,   4.40495741E-21, ]
- [  1.08287502E-21,  -1.47743052E-23,  -2.01082815E-05, ]
- [  1.47216874E-22,   9.20883844E-22,   2.01082815E-05, ]
- [  1.01404941E-21,  -2.01082815E-05,  -9.23758279E-22, ]
- [  2.01082815E-05,  -2.74299240E-21,   2.39554789E-21, ]
- [ -2.01082815E-05,  -2.85141719E-21,   2.50397268E-21, ]
- [  7.52918175E-22,   3.15182542E-22,  -6.62627049E-22, ]
force_length_stats: {min:   1.05133269E-21, max:   2.01082815E-05, mean:   1.34055210E-05, }
...

 Integrated electronic density in atomic spheres:
 ------------------------------------------------
 Atom  Sphere_radius  Integrated_density
    1        2.20660          5.35634230
    2        2.20660          5.35634230
    3        1.80316          4.38725273
    4        1.80316          4.38725273
    5        1.80316          4.38725273
    6        1.80316          4.38725273
    7        1.80316          4.38725273
    8        1.80316          4.38725273
    9        2.41000          9.37332428

 PAW TEST:
 ==== Compensation charge inside spheres ============
 The following values must be close to each other ...
 Compensation charge over spherical meshes =     -1.455391561191280
 Compensation charge over fine fft grid    =     -1.455408333856894

 ==== Results concerning PAW augmentation regions ====

 Total pseudopotential strength Dij (hartree):
 Atom #  1
   0.40360  -0.13386   0.00000   0.00000   0.00000   0.00000   0.00000   0.00000   0.00000   0.00000   0.00000   0.00000 ...
  -0.13386   0.04007   0.00000   0.00000   0.00000   0.00000   0.00000   0.00000   0.00000   0.00000   0.00000   0.00000 ...
   0.00000   0.00000  -0.08907   0.00000   0.00000  -0.16928   0.00000   0.00000   0.00000   0.00000   0.00000  -0.00000 ...
   0.00000   0.00000   0.00000  -0.08907   0.00000   0.00000  -0.16928   0.00000  -0.00000   0.00000   0.00000   0.00000 ...
   0.00000   0.00000   0.00000   0.00000  -0.08907   0.00000   0.00000  -0.16928   0.00000  -0.00000   0.00000   0.00000 ...
   0.00000   0.00000  -0.16928   0.00000   0.00000   0.39294   0.00000   0.00000   0.00000   0.00000   0.00000   0.00000 ...
   0.00000   0.00000   0.00000  -0.16928   0.00000   0.00000   0.39294   0.00000   0.00000   0.00000   0.00000   0.00000 ...
   0.00000   0.00000   0.00000   0.00000  -0.16928   0.00000   0.00000   0.39294   0.00000   0.00000   0.00000   0.00000 ...
   0.00000   0.00000   0.00000  -0.00000   0.00000   0.00000   0.00000   0.00000   0.00586   0.00000   0.00000   0.00000 ...
   0.00000   0.00000   0.00000   0.00000  -0.00000   0.00000   0.00000   0.00000   0.00000   0.00586   0.00000   0.00000 ...
   0.00000   0.00000   0.00000   0.00000   0.00000   0.00000   0.00000   0.00000   0.00000   0.00000   0.00586   0.00000 ...
   0.00000   0.00000  -0.00000   0.00000   0.00000   0.00000   0.00000   0.00000   0.00000   0.00000   0.00000   0.00586 ...
   ...  only 12  components have been written...
 Atom #  9
  -3.46659   0.40967   0.00000   0.00000   0.00000   0.00000   0.00000   0.00000   0.00000   0.00000   0.00000   0.00000 ...
   0.40967   0.00647   0.00000   0.00000   0.00000   0.00000   0.00000   0.00000   0.00000   0.00000   0.00000   0.00000 ...
   0.00000   0.00000  -1.37106   0.00000   0.00000   0.10629   0.00000   0.00000   0.00000   0.00000   0.00000   0.00000 ...
   0.00000   0.00000   0.00000  -1.37106   0.00000   0.00000   0.10629   0.00000   0.00000   0.00000   0.00000   0.00000 ...
   0.00000   0.00000   0.00000   0.00000  -1.37106   0.00000   0.00000   0.10629   0.00000   0.00000   0.00000   0.00000 ...
   0.00000   0.00000   0.10629   0.00000   0.00000   0.01620   0.00000   0.00000   0.00000   0.00000   0.00000   0.00000 ...
   0.00000   0.00000   0.00000   0.10629   0.00000   0.00000   0.01620   0.00000   0.00000   0.00000   0.00000   0.00000 ...
   0.00000   0.00000   0.00000   0.00000   0.10629   0.00000   0.00000   0.01620   0.00000   0.00000   0.00000   0.00000 ...
   0.00000   0.00000   0.00000   0.00000   0.00000   0.00000   0.00000   0.00000  -0.37771   0.00000   0.00000   0.00000 ...
   0.00000   0.00000   0.00000   0.00000   0.00000   0.00000   0.00000   0.00000   0.00000  -0.37771   0.00000   0.00000 ...
   0.00000   0.00000   0.00000   0.00000   0.00000   0.00000   0.00000   0.00000   0.00000   0.00000  -0.37709   0.00000 ...
   0.00000   0.00000   0.00000   0.00000   0.00000   0.00000   0.00000   0.00000   0.00000   0.00000   0.00000  -0.37771 ...
   ...  only 12  components have been written...


 Augmentation waves occupancies Rhoij:
 Atom #  1
   2.00010  -0.00963   0.00000   0.00000   0.00000   0.00000   0.00000   0.00000   0.00000   0.00000   0.00000   0.00000 ...
  -0.00963   0.16936   0.00000   0.00000   0.00000   0.00000   0.00000   0.00000   0.00000   0.00000   0.00000   0.00000 ...
   0.00000   0.00000   2.01283   0.00000   0.00000  -0.00477   0.00000   0.00000   0.00000   0.00000   0.00000  -0.00106 ...
   0.00000   0.00000   0.00000   2.01283   0.00000   0.00000  -0.00477   0.00000  -0.00106   0.00000   0.00000   0.00000 ...
   0.00000   0.00000   0.00000   0.00000   2.01283   0.00000   0.00000  -0.00477   0.00000  -0.00106   0.00000   0.00000 ...
   0.00000   0.00000  -0.00477   0.00000   0.00000   0.00014   0.00000   0.00000   0.00000   0.00000   0.00000  -0.00016 ...
   0.00000   0.00000   0.00000  -0.00477   0.00000   0.00000   0.00014   0.00000  -0.00016   0.00000   0.00000   0.00000 ...
   0.00000   0.00000   0.00000   0.00000  -0.00477   0.00000   0.00000   0.00014   0.00000  -0.00016   0.00000   0.00000 ...
   0.00000   0.00000   0.00000  -0.00106   0.00000   0.00000  -0.00016   0.00000   0.06227   0.00000   0.00000   0.00000 ...
   0.00000   0.00000   0.00000   0.00000  -0.00106   0.00000   0.00000  -0.00016   0.00000   0.06227   0.00000   0.00000 ...
   0.00000   0.00000   0.00000   0.00000   0.00000   0.00000   0.00000   0.00000   0.00000   0.00000   0.03912   0.00000 ...
   0.00000   0.00000  -0.00106   0.00000   0.00000  -0.00016   0.00000   0.00000   0.00000   0.00000   0.00000   0.06227 ...
   ...  only 12  components have been written...
 Atom #  9
   1.99782  -0.02344   0.00000   0.00000   0.00000   0.00000   0.00000   0.00000   0.00000   0.00000   0.00000   0.00000 ...
  -0.02344   1.00997   0.00000   0.00000   0.00000   0.00000   0.00000   0.00000   0.00000   0.00000   0.00000   0.00000 ...
   0.00000   0.00000   1.99239   0.00000   0.00000  -0.07062   0.00000   0.00000   0.00000   0.00000   0.00000   0.00000 ...
   0.00000   0.00000   0.00000   1.99239   0.00000   0.00000  -0.07062   0.00000   0.00000   0.00000   0.00000   0.00000 ...
   0.00000   0.00000   0.00000   0.00000   1.99239   0.00000   0.00000  -0.07062   0.00000   0.00000   0.00000   0.00000 ...
   0.00000   0.00000  -0.07062   0.00000   0.00000   1.48584   0.00000   0.00000   0.00000   0.00000   0.00000   0.00000 ...
   0.00000   0.00000   0.00000  -0.07062   0.00000   0.00000   1.48584   0.00000   0.00000   0.00000   0.00000   0.00000 ...
   0.00000   0.00000   0.00000   0.00000  -0.07062   0.00000   0.00000   1.48584   0.00000   0.00000   0.00000   0.00000 ...
   0.00000   0.00000   0.00000   0.00000   0.00000   0.00000   0.00000   0.00000   0.55886   0.00000   0.00000   0.00000 ...
   0.00000   0.00000   0.00000   0.00000   0.00000   0.00000   0.00000   0.00000   0.00000   0.55886   0.00000   0.00000 ...
   0.00000   0.00000   0.00000   0.00000   0.00000   0.00000   0.00000   0.00000   0.00000   0.00000   1.72008   0.00000 ...
   0.00000   0.00000   0.00000   0.00000   0.00000   0.00000   0.00000   0.00000   0.00000   0.00000   0.00000   0.55886 ...
   ...  only 12  components have been written...


================================================================================

 ----iterations are completed or convergence reached----

 Mean square residual over all n,k,spin=   45.239E-07; max=  52.267E-05
 reduced coordinates (array xred) for    9 atoms
       0.250000000000      0.250000000000      0.250000000000
       0.750000000000      0.750000000000      0.750000000000
       0.757653099540      0.242346900460      0.757653099540
       0.242346900460      0.242346900460      0.757653099540
       0.757653099540      0.757653099540      0.242346900460
       0.242346900460      0.757653099540      0.242346900460
       0.242346900460      0.757653099540      0.757653099540
       0.757653099540      0.242346900460      0.242346900460
      -0.000000000000      0.000000000000     -0.000000000000
 rms dE/dt=  1.2809E-04; max dE/dt=  1.9214E-04; dE/dt below (all hartree)
    1       0.000000000000      0.000000000000      0.000000000000
    2       0.000000000000      0.000000000000     -0.000000000000
    3      -0.000192141234      0.000000000000     -0.000192141234
    4       0.000192141234      0.000192141234      0.000000000000
    5      -0.000192141234     -0.000192141234      0.000000000000
    6       0.000192141234      0.000000000000      0.000192141234
    7       0.000000000000     -0.000192141234     -0.000192141234
    8      -0.000000000000      0.000192141234      0.000192141234
    9       0.000000000000      0.000000000000      0.000000000000

 cartesian coordinates (angstrom) at end:
    1      2.52823100790313     2.52823100790313     2.52823100790313
    2      7.58469302370940     7.58469302370940     7.58469302370940
    3      5.05646201580626     7.66208823796378     5.05646201580626
    4      5.05646201580626     5.05646201580626     2.45083579364874
    5      5.05646201580626     5.05646201580626     7.66208823796378
    6      5.05646201580626     2.45083579364874     5.05646201580626
    7      7.66208823796378     5.05646201580626     5.05646201580626
    8      2.45083579364874     5.05646201580626     5.05646201580626
    9      0.00000000000000    -0.00000000000000     0.00000000000000

 cartesian forces (hartree/bohr) at end:
    1      0.00000000000000     0.00000000000000    -0.00000000000000
    2      0.00000000000000     0.00000000000000    -0.00000000000000
    3     -0.00000000000000     0.00002010828150     0.00000000000000
    4      0.00000000000000    -0.00000000000000    -0.00002010828150
    5      0.00000000000000     0.00000000000000     0.00002010828150
    6      0.00000000000000    -0.00002010828150    -0.00000000000000
    7      0.00002010828150    -0.00000000000000     0.00000000000000
    8     -0.00002010828150    -0.00000000000000     0.00000000000000
    9      0.00000000000000     0.00000000000000    -0.00000000000000
 frms,max,avg= 9.4791348E-06 2.0108282E-05   0.000E+00  0.000E+00  0.000E+00 h/b

 cartesian forces (eV/Angstrom) at end:
    1      0.00000000000000     0.00000000000000    -0.00000000000000
    2      0.00000000000000     0.00000000000000    -0.00000000000000
    3     -0.00000000000000     0.00103400932207     0.00000000000000
    4      0.00000000000000    -0.00000000000000    -0.00103400932207
    5      0.00000000000000     0.00000000000000     0.00103400932207
    6      0.00000000000000    -0.00103400932207    -0.00000000000000
    7      0.00103400932207    -0.00000000000000     0.00000000000000
    8     -0.00103400932207    -0.00000000000000     0.00000000000000
    9      0.00000000000000     0.00000000000000    -0.00000000000000
 frms,max,avg= 4.8743667E-04 1.0340093E-03   0.000E+00  0.000E+00  0.000E+00 e/A
 length scales= 13.513275032000 13.513275032000 13.513275032000 bohr
              =  7.150917160343  7.150917160343  7.150917160343 angstroms
 prteigrs : about to open file Cs2TiI6o_DS1_EIG
 Fermi (or HOMO) energy (hartree) =  -0.00890   Average Vxc (hartree)=  -0.31968
 Eigenvalues (hartree) for nkpt=  72  k points:
 kpt#   1, nband= 42, wtk=  0.00058, kpt=  0.0000  0.0000  0.0000 (reduced coord)
  -2.25266   -1.09899   -1.09899   -1.09899   -0.69373   -0.69244   -0.50396   -0.48137
  -0.48137   -0.47997   -0.47997   -0.47997   -0.22252   -0.22252   -0.22252   -0.21364
  -0.21364   -0.21364   -0.13922   -0.08189   -0.08189   -0.07590   -0.07590   -0.07590
  -0.07513   -0.07513   -0.07513   -0.03599   -0.03599   -0.03599   -0.01420   -0.01420
  -0.01420   -0.00890   -0.00890   -0.00890    0.14225    0.14225    0.14225    0.22332
   0.22740    0.22740
 prteigrs : prtvol=0 or 1, do not print more k-points.


--- !EnergyTerms
iteration_state     : {dtset: 1, }
comment             : Components of total free energy in Hartree
kinetic             :  5.48195015991849E+01
hartree             :  3.83308029259037E+01
xc                  : -5.55616523194683E+01
Ewald energy        : -1.34763787090451E+02
psp_core            :  8.98729748012773E+00
local_psp           : -1.09973638244439E+02
spherical_terms     :  1.58173422358807E+01
total_energy        : -1.82344133413261E+02
total_energy_eV     : -4.96183620892729E+03
...


--- !EnergyTermsDC
iteration_state     : {dtset: 1, }
comment             : '"Double-counting" decomposition of free energy'
band_energy         : -2.43158696740546E+01
Ewald energy        : -1.34763787090451E+02
psp_core            :  8.98729748012773E+00
xc_dc               : -5.15428584026368E+01
spherical_terms     :  1.92911010421992E+01
total_energy_dc     : -1.82344116644815E+02
total_energy_dc_eV  : -4.96183575263468E+03
...


 Cartesian components of stress tensor (hartree/bohr^3)
  sigma(1 1)= -8.76671118E-05  sigma(3 2)=  0.00000000E+00
  sigma(2 2)= -8.76671118E-05  sigma(3 1)=  0.00000000E+00
  sigma(3 3)= -8.76671118E-05  sigma(2 1)=  0.00000000E+00

-Cartesian components of stress tensor (GPa)         [Pressure=  2.5793E+00 GPa]
- sigma(1 1)= -2.57925504E+00  sigma(3 2)=  0.00000000E+00
- sigma(2 2)= -2.57925504E+00  sigma(3 1)=  0.00000000E+00
- sigma(3 3)= -2.57925504E+00  sigma(2 1)=  0.00000000E+00

================================================================================
== DATASET  2 ==================================================================
-   mpi_nproc: 6, omp_nthreads: -1 (-1 if OMP is not activated)


--- !DatasetInfo
iteration_state: {dtset: 2, }
dimensions: {natom: 9, nkpt: 72, mband: 42, nsppol: 1, nspinor: 1, nspden: 1, mpw: 5360, }
cutoff_energies: {ecut:  16.0, pawecutdg:  40.0, }
electrons: {nelect:   7.20000000E+01, charge:   0.00000000E+00, occopt:   1.00000000E+00, tsmear:   1.00000000E-02, }
meta: {optdriver: 0, ionmov: 0, optcell: 0, iscf: 17, paral_kgb: 0, }
...

 Real(R)+Recip(G) space primitive vectors, cartesian coordinates (Bohr,Bohr^-1):
 R(1)=  0.0000000  9.5457635  9.5457635  G(1)= -0.0523793  0.0523793  0.0523793
 R(2)=  9.5457635  0.0000000  9.5457635  G(2)=  0.0523793 -0.0523793  0.0523793
 R(3)=  9.5457635  9.5457635  0.0000000  G(3)=  0.0523793  0.0523793 -0.0523793
 Unit cell volume ucvol=  1.7396505E+03 bohr^3
 Angles (23,13,12)=  6.00000000E+01  6.00000000E+01  6.00000000E+01 degrees

 Coarse grid specifications (used for wave-functions):

 getcut: wavevector=  0.0000  0.0000  0.0000  ngfft=  50  50  50
         ecut(hartree)=     16.000   => boxcut(ratio)=   2.05775

 Fine grid specifications (used for densities):

 getcut: wavevector=  0.0000  0.0000  0.0000  ngfft=  80  80  80
         ecut(hartree)=     40.000   => boxcut(ratio)=   2.08147

--- Pseudopotential description ------------------------------------------------
- pspini: atom type   1  psp file is ../../../Psps_for_tests/ATOMICDATA/Cs.GGA_PBE-JTH.xml
- pspatm: opening atomic psp file    ../../../Psps_for_tests/ATOMICDATA/Cs.GGA_PBE-JTH.xml
- pspatm : Reading pseudopotential header in XML form from ../../../Psps_for_tests/ATOMICDATA/Cs.GGA_PBE-JTH.xml
 Pseudopotential format is: paw10
 basis_size (lnmax)=  6 (lmn_size= 18), orbitals=   0   0   1   1   2   2
 Spheres core radius: rc_sph= 2.20660278
 1 radial meshes are used:
  - mesh 1: r(i)=AA*[exp(BB*(i-1))-1], size=1500 , AA= 0.15922E-03 BB= 0.87573E-02
 Shapefunction is SIN type: shapef(r)=[sin(pi*r/rshp)/(pi*r/rshp)]**2
 Radius for shape functions =  2.00394208
 mmax= 1500
 Radial grid used for partial waves is grid 1
 Radial grid used for projectors is grid 1
 Radial grid used for (t)core density is grid 1
 Radial grid used for Vloc is grid 1
 Radial grid used for pseudo valence density is grid 1
[...]
                       1.4405547554E+01  9.5170688382E+00  9.5170688382E+00
                       4.6285901228E+00  9.5170688382E+00  9.5170688382E+00
                       1.6290776239E-19 -1.3090882686E-18  3.0765056655E-19
            xcart6     4.7537519724E+00  4.7537519724E+00  4.7537519724E+00
                       1.4261255917E+01  1.4261255917E+01  1.4261255917E+01
                       9.5075039448E+00  1.4387150547E+01  9.5075039448E+00
                       9.5075039448E+00  9.5075039448E+00  4.6278573422E+00
                       9.5075039448E+00  9.5075039448E+00  1.4387150547E+01
                       9.5075039448E+00  4.6278573422E+00  9.5075039448E+00
                       1.4387150547E+01  9.5075039448E+00  9.5075039448E+00
                       4.6278573422E+00  9.5075039448E+00  9.5075039448E+00
                       2.9343756201E-19 -1.4741736274E-18  3.5619314694E-19
            xcart7     4.7489695257E+00  4.7489695257E+00  4.7489695257E+00
                       1.4246908577E+01  1.4246908577E+01  1.4246908577E+01
                       9.4979390514E+00  1.4368733630E+01  9.4979390514E+00
                       9.4979390514E+00  9.4979390514E+00  4.6271444724E+00
                       9.4979390514E+00  9.4979390514E+00  1.4368733630E+01
                       9.4979390514E+00  4.6271444724E+00  9.4979390514E+00
                       1.4368733630E+01  9.4979390514E+00  9.4979390514E+00
                       4.6271444724E+00  9.4979390514E+00  9.4979390514E+00
                       1.9051889071E-19 -1.5037194551E-18  4.0356222089E-19
            xcart8     4.7441870790E+00  4.7441870790E+00  4.7441870790E+00
                       1.4232561237E+01  1.4232561237E+01  1.4232561237E+01
                       9.4883741580E+00  1.4350391065E+01  9.4883741580E+00
                       9.4883741580E+00  9.4883741580E+00  4.6263572507E+00
                       9.4883741580E+00  9.4883741580E+00  1.4350391065E+01
                       9.4883741580E+00  4.6263572507E+00  9.4883741580E+00
                       1.4350391065E+01  9.4883741580E+00  9.4883741580E+00
                       4.6263572507E+00  9.4883741580E+00  9.4883741580E+00
                       3.0758076158E-19 -1.6811668563E-18  4.9846489406E-19
            xcart9     4.7394046323E+00  4.7394046323E+00  4.7394046323E+00
                       1.4218213897E+01  1.4218213897E+01  1.4218213897E+01
                       9.4788092645E+00  1.4332115530E+01  9.4788092645E+00
                       9.4788092645E+00  9.4788092645E+00  4.6255029989E+00
                       9.4788092645E+00  9.4788092645E+00  1.4332115530E+01
                       9.4788092645E+00  4.6255029989E+00  9.4788092645E+00
                       1.4332115530E+01  9.4788092645E+00  9.4788092645E+00
                       4.6255029989E+00  9.4788092645E+00  9.4788092645E+00
                       3.3782852738E-19 -1.7599785813E-18  4.4473163438E-19
            xcart10    4.7346221859E+00  4.7346221859E+00  4.7346221859E+00
                       1.4203866558E+01  1.4203866558E+01  1.4203866558E+01
                       9.4692443718E+00  1.4313757745E+01  9.4692443718E+00
                       9.4692443718E+00  9.4692443718E+00  4.6247309986E+00
                       9.4692443718E+00  9.4692443718E+00  1.4313757745E+01
                       9.4692443718E+00  4.6247309986E+00  9.4692443718E+00
                       1.4313757745E+01  9.4692443718E+00  9.4692443718E+00
                       4.6247309986E+00  9.4692443718E+00  9.4692443718E+00
                       1.8479792789E-19 -1.8813171650E-18  5.7016161237E-19
            xcart11    4.7298397392E+00  4.7298397392E+00  4.7298397392E+00
                       1.4189519218E+01  1.4189519218E+01  1.4189519218E+01
                       9.4596794784E+00  1.4295591421E+01  9.4596794784E+00
                       9.4596794784E+00  9.4596794784E+00  4.6237675355E+00
                       9.4596794784E+00  9.4596794784E+00  1.4295591421E+01
                       9.4596794784E+00  4.6237675355E+00  9.4596794784E+00
                       1.4295591421E+01  9.4596794784E+00  9.4596794784E+00
                       4.6237675355E+00  9.4596794784E+00  9.4596794784E+00
                       9.3855750359E-20 -1.9352552594E-18  6.2322987471E-19
            xcart12    4.7250572925E+00  4.7250572925E+00  4.7250572925E+00
                       1.4175171877E+01  1.4175171877E+01  1.4175171877E+01
                       9.4501145850E+00  1.4277360512E+01  9.4501145850E+00
                       9.4501145850E+00  9.4501145850E+00  4.6228686578E+00
                       9.4501145850E+00  9.4501145850E+00  1.4277360512E+01
                       9.4501145850E+00  4.6228686578E+00  9.4501145850E+00
                       1.4277360512E+01  9.4501145850E+00  9.4501145850E+00
                       4.6228686578E+00  9.4501145850E+00  9.4501145850E+00
                       1.4287461390E-19 -1.9783897756E-18  6.3033802681E-19
            xcart13    4.7202748458E+00  4.7202748458E+00  4.7202748458E+00
                       1.4160824537E+01  1.4160824537E+01  1.4160824537E+01
                       9.4405496916E+00  1.4259155376E+01  9.4405496916E+00
                       9.4405496916E+00  9.4405496916E+00  4.6219440076E+00
                       9.4405496916E+00  9.4405496916E+00  1.4259155376E+01
                       9.4405496916E+00  4.6219440076E+00  9.4405496916E+00
                       1.4259155376E+01  9.4405496916E+00  9.4405496916E+00
                       4.6219440076E+00  9.4405496916E+00  9.4405496916E+00
                       1.6159795124E-19 -1.2985629357E-18  3.0517699415E-19
             xred1     2.5000000000E-01  2.5000000000E-01  2.5000000000E-01
                       7.5000000000E-01  7.5000000000E-01  7.5000000000E-01
                       7.5765309954E-01  2.4234690046E-01  7.5765309954E-01
                       2.4234690046E-01  2.4234690046E-01  7.5765309954E-01
                       7.5765309954E-01  7.5765309954E-01  2.4234690046E-01
                       2.4234690046E-01  7.5765309954E-01  2.4234690046E-01
                       2.4234690046E-01  7.5765309954E-01  7.5765309954E-01
                       7.5765309954E-01  2.4234690046E-01  2.4234690046E-01
                      -6.1171432307E-20  9.3497621366E-20 -7.6380191077E-20
             xred2     2.5000000000E-01  2.5000000000E-01  2.5000000000E-01
                       7.5000000000E-01  7.5000000000E-01  7.5000000000E-01
                       7.5744495222E-01  2.4255504778E-01  7.5744495222E-01
                       2.4255504778E-01  2.4255504778E-01  7.5744495222E-01
                       7.5744495222E-01  7.5744495222E-01  2.4255504778E-01
                       2.4255504778E-01  7.5744495222E-01  2.4255504778E-01
                       2.4255504778E-01  7.5744495222E-01  7.5744495222E-01
                       7.5744495222E-01  2.4255504778E-01  2.4255504778E-01
                      -5.9875024369E-20  8.1223081359E-20 -7.0923192786E-20
             xred3     2.5000000000E-01  2.5000000000E-01  2.5000000000E-01
                       7.5000000000E-01  7.5000000000E-01  7.5000000000E-01
                       7.5723724332E-01  2.4276275668E-01  7.5723724332E-01
                       2.4276275668E-01  2.4276275668E-01  7.5723724332E-01
                       7.5723724332E-01  7.5723724332E-01  2.4276275668E-01
                       2.4276275668E-01  7.5723724332E-01  2.4276275668E-01
                       2.4276275668E-01  7.5723724332E-01  7.5723724332E-01
                       7.5723724332E-01  2.4276275668E-01  2.4276275668E-01
                      -4.8079104632E-20  8.8008840453E-20 -8.3235943575E-20
             xred4     2.5000000000E-01  2.5000000000E-01  2.5000000000E-01
                       7.5000000000E-01  7.5000000000E-01  7.5000000000E-01
                       7.5703301882E-01  2.4296698118E-01  7.5703301882E-01
                       2.4296698118E-01  2.4296698118E-01  7.5703301882E-01
                       7.5703301882E-01  7.5703301882E-01  2.4296698118E-01
                       2.4296698118E-01  7.5703301882E-01  2.4296698118E-01
                       2.4296698118E-01  7.5703301882E-01  7.5703301882E-01
                       7.5703301882E-01  2.4296698118E-01  2.4296698118E-01
                      -5.4641692120E-20  8.0103040065E-20 -7.3905898814E-20
             xred5     2.5000000000E-01  2.5000000000E-01  2.5000000000E-01
                       7.5000000000E-01  7.5000000000E-01  7.5000000000E-01
                       7.5682690745E-01  2.4317309255E-01  7.5682690745E-01
                       2.4317309255E-01  2.4317309255E-01  7.5682690745E-01
                       7.5682690745E-01  7.5682690745E-01  2.4317309255E-01
                       2.4317309255E-01  7.5682690745E-01  2.4317309255E-01
                       2.4317309255E-01  7.5682690745E-01  7.5682690745E-01
                       7.5682690745E-01  2.4317309255E-01  2.4317309255E-01
                      -6.1171432307E-20  9.3497621366E-20 -7.6380191077E-20
             xred6     2.5000000000E-01  2.5000000000E-01  2.5000000000E-01
                       7.5000000000E-01  7.5000000000E-01  7.5000000000E-01
                       7.5662080347E-01  2.4337919653E-01  7.5662080347E-01
                       2.4337919653E-01  2.4337919653E-01  7.5662080347E-01
                       7.5662080347E-01  7.5662080347E-01  2.4337919653E-01
                       2.4337919653E-01  7.5662080347E-01  2.4337919653E-01
                       2.4337919653E-01  7.5662080347E-01  7.5662080347E-01
                       7.5662080347E-01  2.4337919653E-01  2.4337919653E-01
                      -7.4226529415E-20  1.1169095215E-19 -8.0827166690E-20
             xred7     2.5000000000E-01  2.5000000000E-01  2.5000000000E-01
                       7.5000000000E-01  7.5000000000E-01  7.5000000000E-01
                       7.5641323621E-01  2.4358676379E-01  7.5641323621E-01
                       2.4358676379E-01  2.4358676379E-01  7.5641323621E-01
                       7.5641323621E-01  7.5641323621E-01  2.4358676379E-01
                       2.4358676379E-01  7.5641323621E-01  2.4358676379E-01
                       2.4358676379E-01  7.5641323621E-01  7.5641323621E-01
                       7.5641323621E-01  2.4358676379E-01  2.4358676379E-01
                      -6.7945062497E-20  1.1043451402E-19 -9.0375542313E-20
             xred8     2.5000000000E-01  2.5000000000E-01  2.5000000000E-01
                       7.5000000000E-01  7.5000000000E-01  7.5000000000E-01
                       7.5620916852E-01  2.4379083148E-01  7.5620916852E-01
                       2.4379083148E-01  2.4379083148E-01  7.5620916852E-01
                       7.5620916852E-01  7.5620916852E-01  2.4379083148E-01
                       2.4379083148E-01  7.5620916852E-01  2.4379083148E-01
                       2.4379083148E-01  7.5620916852E-01  7.5620916852E-01
                       7.5620916852E-01  2.4379083148E-01  2.4379083148E-01
                      -7.8532038208E-20  1.3106631708E-19 -9.8649724262E-20
             xred9     2.5000000000E-01  2.5000000000E-01  2.5000000000E-01
                       7.5000000000E-01  7.5000000000E-01  7.5000000000E-01
                       7.5600822478E-01  2.4399177522E-01  7.5600822478E-01
                       2.4399177522E-01  2.4399177522E-01  7.5600822478E-01
                       7.5600822478E-01  7.5600822478E-01  2.4399177522E-01
                       2.4399177522E-01  7.5600822478E-01  2.4399177522E-01
                       2.4399177522E-01  7.5600822478E-01  7.5600822478E-01
                       7.5600822478E-01  2.4399177522E-01  2.4399177522E-01
                      -8.7198477580E-20  1.3411699044E-19 -9.8476593218E-20
             xred10    2.5000000000E-01  2.5000000000E-01  2.5000000000E-01
                       7.5000000000E-01  7.5000000000E-01  7.5000000000E-01
                       7.5580253202E-01  2.4419746798E-01  7.5580253202E-01
                       2.4419746798E-01  2.4419746798E-01  7.5580253202E-01
                       7.5580253202E-01  7.5580253202E-01  2.4419746798E-01
                       2.4419746798E-01  7.5580253202E-01  2.4419746798E-01
                       2.4419746798E-01  7.5580253202E-01  7.5580253202E-01
                       7.5580253202E-01  2.4419746798E-01  2.4419746798E-01
                      -7.8990119054E-20  1.3920206311E-19 -1.1968646919E-19
             xred11    2.5000000000E-01  2.5000000000E-01  2.5000000000E-01
                       7.5000000000E-01  7.5000000000E-01  7.5000000000E-01
                       7.5560654322E-01  2.4439345678E-01  7.5560654322E-01
                       2.4439345678E-01  2.4439345678E-01  7.5560654322E-01
                       7.5560654322E-01  7.5560654322E-01  2.4439345678E-01
                       2.4439345678E-01  7.5560654322E-01  2.4439345678E-01
                       2.4439345678E-01  7.5560654322E-01  7.5560654322E-01
                       7.5560654322E-01  2.4439345678E-01  2.4439345678E-01
                      -7.4309131626E-20  1.4019190029E-19 -1.3027023745E-19
             xred12    2.5000000000E-01  2.5000000000E-01  2.5000000000E-01
                       7.5000000000E-01  7.5000000000E-01  7.5000000000E-01
                       7.5540674051E-01  2.4459325949E-01  7.5540674051E-01
                       2.4459325949E-01  2.4459325949E-01  7.5540674051E-01
                       7.5540674051E-01  7.5540674051E-01  2.4459325949E-01
                       2.4459325949E-01  7.5540674051E-01  2.4459325949E-01
                       2.4459325949E-01  7.5540674051E-01  7.5540674051E-01
                       7.5540674051E-01  2.4459325949E-01  2.4459325949E-01
                      -7.8884036234E-20  1.4558566415E-19 -1.3046684071E-19
             xred13    2.5000000000E-01  2.5000000000E-01  2.5000000000E-01
                       7.5000000000E-01  7.5000000000E-01  7.5000000000E-01
                       7.5520789792E-01  2.4479210208E-01  7.5520789792E-01
                       2.4479210208E-01  2.4479210208E-01  7.5520789792E-01
                       7.5520789792E-01  7.5520789792E-01  2.4479210208E-01
                       2.4479210208E-01  7.5520789792E-01  2.4479210208E-01
                       2.4479210208E-01  7.5520789792E-01  7.5520789792E-01
                       7.5520789792E-01  2.4479210208E-01  2.4479210208E-01
                      -6.1171432307E-20  9.3497621366E-20 -7.6380191077E-20
            znucl       55.00000   17.00000   72.00000

================================================================================


- Timing analysis has been suppressed with timopt=0



================================================================================

 Suggested references for the acknowledgment of ABINIT usage.

 The users of ABINIT have little formal obligations with respect to the ABINIT group
 (those specified in the GNU General Public License, http://www.gnu.org/copyleft/gpl.txt).
 However, it is common practice in the scientific literature,
 to acknowledge the efforts of people that have made the research possible.
 In this spirit, please find below suggested citations of work written by ABINIT developers,
 corresponding to implementations inside of ABINIT that you have used in the present run.
 Note also that it will be of great value to readers of publications presenting these results,
 to read papers enabling them to understand the theoretical formalism and details
 of the ABINIT implementation.
 For information on why they are suggested, see also https://docs.abinit.org/theory/acknowledgments.
-
- [1] Implementation of the Projector Augmented-Wave Method in the ABINIT code.
- M. Torrent, F. Jollet, F. Bottin, G. Zerah, and X. Gonze Comput. Mat. Science 42, 337, (2008).
- Comment: PAW calculations. Strong suggestion to cite this paper.
- DOI and bibtex: see https://docs.abinit.org/theory/bibliography/#torrent2008
-
- [2] Libxc: A library of exchange and correlation functionals for density functional theory.
- M.A.L. Marques, M.J.T. Oliveira, T. Burnus, Computer Physics Communications 183, 2227 (2012).
- Comment: to be cited when LibXC is used (negative value of ixc)
- Strong suggestion to cite this paper.
- DOI and bibtex: see https://docs.abinit.org/theory/bibliography/#marques2012
-
- [3] The Abinit project: Impact, environment and recent developments.
- Computer Phys. Comm. 248, 107042 (2020).
- X.Gonze, B. Amadon, G. Antonius, F.Arnardi, L.Baguet, J.-M.Beuken,
- J.Bieder, F.Bottin, J.Bouchet, E.Bousquet, N.Brouwer, F.Bruneval,
- G.Brunin, T.Cavignac, J.-B. Charraud, Wei Chen, M.Cote, S.Cottenier,
- J.Denier, G.Geneste, Ph.Ghosez, M.Giantomassi, Y.Gillet, O.Gingras,
- D.R.Hamann, G.Hautier, Xu He, N.Helbig, N.Holzwarth, Y.Jia, F.Jollet,
- W.Lafargue-Dit-Hauret, K.Lejaeghere, M.A.L.Marques, A.Martin, C.Martins,
- H.P.C. Miranda, F.Naccarato, K. Persson, G.Petretto, V.Planes, Y.Pouillon,
- S.Prokhorenko, F.Ricci, G.-M.Rignanese, A.H.Romero, M.M.Schmitt, M.Torrent,
- M.J.van Setten, B.Van Troeye, M.J.Verstraete, G.Zerah and J.W.Zwanzig
- Comment: the fifth generic paper describing the ABINIT project.
- Note that a version of this paper, that is not formatted for Computer Phys. Comm. 
- is available at https://www.abinit.org/sites/default/files/ABINIT20.pdf .
- The licence allows the authors to put it on the Web.
- DOI and bibtex: see https://docs.abinit.org/theory/bibliography/#gonze2020
-
- [4] ABINIT: Overview, and focus on selected capabilities
- J. Chem. Phys. 152, 124102 (2020).
- A. Romero, D.C. Allan, B. Amadon, G. Antonius, T. Applencourt, L.Baguet,
- J.Bieder, F.Bottin, J.Bouchet, E.Bousquet, F.Bruneval,
- G.Brunin, D.Caliste, M.Cote,
- J.Denier, C. Dreyer, Ph.Ghosez, M.Giantomassi, Y.Gillet, O.Gingras,
- D.R.Hamann, G.Hautier, F.Jollet, G. Jomard,
- A.Martin, 
- H.P.C. Miranda, F.Naccarato, G.Petretto, N.A. Pike, V.Planes,
- S.Prokhorenko, T. Rangel, F.Ricci, G.-M.Rignanese, M.Royo, M.Stengel, M.Torrent,
- M.J.van Setten, B.Van Troeye, M.J.Verstraete, J.Wiktor, J.W.Zwanziger, and X.Gonze.
- Comment: a global overview of ABINIT, with focus on selected capabilities .
- Note that a version of this paper, that is not formatted for J. Chem. Phys 
- is available at https://www.abinit.org/sites/default/files/ABINIT20_JPC.pdf .
- The licence allows the authors to put it on the Web.
- DOI and bibtex: see https://docs.abinit.org/theory/bibliography/#romero2020
-
- [5] Recent developments in the ABINIT software package.
- Computer Phys. Comm. 205, 106 (2016).
- X.Gonze, F.Jollet, F.Abreu Araujo, D.Adams, B.Amadon, T.Applencourt,
- C.Audouze, J.-M.Beuken, J.Bieder, A.Bokhanchuk, E.Bousquet, F.Bruneval
- D.Caliste, M.Cote, F.Dahm, F.Da Pieve, M.Delaveau, M.Di Gennaro,
- B.Dorado, C.Espejo, G.Geneste, L.Genovese, A.Gerossier, M.Giantomassi,
- Y.Gillet, D.R.Hamann, L.He, G.Jomard, J.Laflamme Janssen, S.Le Roux,
- A.Levitt, A.Lherbier, F.Liu, I.Lukacevic, A.Martin, C.Martins,
- M.J.T.Oliveira, S.Ponce, Y.Pouillon, T.Rangel, G.-M.Rignanese,
- A.H.Romero, B.Rousseau, O.Rubel, A.A.Shukri, M.Stankovski, M.Torrent,
- M.J.Van Setten, B.Van Troeye, M.J.Verstraete, D.Waroquier, J.Wiktor,
- B.Xu, A.Zhou, J.W.Zwanziger.
- Comment: the fourth generic paper describing the ABINIT project.
- Note that a version of this paper, that is not formatted for Computer Phys. Comm. 
- is available at https://www.abinit.org/sites/default/files/ABINIT16.pdf .
- The licence allows the authors to put it on the Web.
- DOI and bibtex: see https://docs.abinit.org/theory/bibliography/#gonze2016
-
- Proc.   0 individual time (sec): cpu=       2907.7  wall=       2908.0

================================================================================

 Calculation completed.
.Delivered   0 WARNINGs and   0 COMMENTs to log file.
+Overall time at end (sec) : cpu=      17444.9  wall=      17448.0
