
.Version 9.2.2 of ABINIT 
.(MPI version, prepared for a x86_64_linux_gnu9.3 computer) 

.Copyright (C) 1998-2020 ABINIT group . 
 ABINIT comes with ABSOLUTELY NO WARRANTY.
 It is free software, and you are welcome to redistribute it
 under certain conditions (GNU General Public License,
 see ~abinit/COPYING or http://www.gnu.org/copyleft/gpl.txt).

 ABINIT is a project of the Universite Catholique de Louvain,
 Corning Inc. and other collaborators, see ~abinit/doc/developers/contributors.txt .
 Please read https://docs.abinit.org/theory/acknowledgments for suggested
 acknowledgments of the ABINIT effort.
 For more information, see https://www.abinit.org .

.Starting date : Sun 11 Dec 2022.
- ( at 21h31 )
  
- The starting date is more than 2 years after the initial release
- of this version of ABINIT, namely Nov 2020.
- Note that the use beyond 3 years after the release will not be supported.
- Action: please, switch to a more recent version of ABINIT.

- input  file    -> Cs2TiI6.in
- output file    -> Cs2TiI6.out
- root for input  files -> Cs2TiI6i
- root for output files -> Cs2TiI6o

- inpspheads : Reading pseudopotential header in XML form from 
-   ../../../Psps_for_tests/ATOMICDATA/Cs.GGA_PBE-JTH.xml
- inpspheads : Reading pseudopotential header in XML form from 
-   ../../../Psps_for_tests/ATOMICDATA/I.GGA_PBE-JTH.xml
- inpspheads : Reading pseudopotential header in XML form from 
-   ../../../Psps_for_tests/ATOMICDATA/Zr.GGA_PBE-JTH.xml
- inpspheads : Reading pseudopotential header in XML form from 
-   ../../../Psps_for_tests/ATOMICDATA/Cl.GGA_PBE-JTH.xml

 DATASET    1 : space group Fm m 2 (# 42); Bravais oF (face-center ortho.)
================================================================================
 Values of the parameters that define the memory need for DATASET  1.
     intxc =       0    ionmov =       2      iscf =      17    lmnmax =      18
     lnmax =       6     mgfft =      60  mpssoang =       3    mqgrid =    3776
     natom =       9  nloc_mem =       2    nspden =       1   nspinor =       1
    nsppol =       1      nsym =       4    n1xccc =       1    ntypat =       4
    occopt =       1   xclevel =       2
-    mband =          42        mffmem =           1         mkmem =           8
       mpw =        9293          nfft =      216000          nkpt =          32
Pmy_natom=         3
 PAW method is used; the additional fine FFT grid is defined by:
   mgfftf=        96    nfftf =    884736
================================================================================
P This job should need less than                     322.895 Mbytes of memory.
  Rough estimation (10% accuracy) of disk space for files :
_ WF disk file :    190.581 Mbytes ; DEN or POT disk file :      6.752 Mbytes.
================================================================================


 DATASET    2 : space group Fm m 2 (# 42); Bravais oF (face-center ortho.)
================================================================================
 Values of the parameters that define the memory need for DATASET  2.
     intxc =       0    ionmov =       2      iscf =      17    lmnmax =      18
     lnmax =       6     mgfft =      60  mpssoang =       3    mqgrid =    3772
     natom =       9  nloc_mem =       2    nspden =       1   nspinor =       1
    nsppol =       1      nsym =       4    n1xccc =       1    ntypat =       4
    occopt =       1   xclevel =       2
-    mband =          42        mffmem =           1         mkmem =           8
       mpw =        9268          nfft =      216000          nkpt =          32
Pmy_natom=         3
 PAW method is used; the additional fine FFT grid is defined by:
   mgfftf=        96    nfftf =    884736
================================================================================
P This job should need less than                     322.828 Mbytes of memory.
  Rough estimation (10% accuracy) of disk space for files :
_ WF disk file :    190.068 Mbytes ; DEN or POT disk file :      6.752 Mbytes.
================================================================================


 DATASET    3 : space group Fm m 2 (# 42); Bravais oF (face-center ortho.)
================================================================================
 Values of the parameters that define the memory need for DATASET  3.
     intxc =       0    ionmov =       2      iscf =      17    lmnmax =      18
     lnmax =       6     mgfft =      60  mpssoang =       3    mqgrid =    3769
     natom =       9  nloc_mem =       2    nspden =       1   nspinor =       1
    nsppol =       1      nsym =       4    n1xccc =       1    ntypat =       4
    occopt =       1   xclevel =       2
-    mband =          42        mffmem =           1         mkmem =           8
       mpw =        9239          nfft =      216000          nkpt =          32
Pmy_natom=         3
 PAW method is used; the additional fine FFT grid is defined by:
   mgfftf=        96    nfftf =    884736
================================================================================
P This job should need less than                     322.738 Mbytes of memory.
  Rough estimation (10% accuracy) of disk space for files :
_ WF disk file :    189.474 Mbytes ; DEN or POT disk file :      6.752 Mbytes.
================================================================================


 DATASET    4 : space group Fm m 2 (# 42); Bravais oF (face-center ortho.)
================================================================================
 Values of the parameters that define the memory need for DATASET  4.
     intxc =       0    ionmov =       2      iscf =      17    lmnmax =      18
     lnmax =       6     mgfft =      60  mpssoang =       3    mqgrid =    3765
     natom =       9  nloc_mem =       2    nspden =       1   nspinor =       1
    nsppol =       1      nsym =       4    n1xccc =       1    ntypat =       4
    occopt =       1   xclevel =       2
-    mband =          42        mffmem =           1         mkmem =           8
       mpw =        9214          nfft =      216000          nkpt =          32
Pmy_natom=         3
 PAW method is used; the additional fine FFT grid is defined by:
   mgfftf=        96    nfftf =    884736
================================================================================
P This job should need less than                     322.672 Mbytes of memory.
  Rough estimation (10% accuracy) of disk space for files :
_ WF disk file :    188.961 Mbytes ; DEN or POT disk file :      6.752 Mbytes.
================================================================================


 DATASET    5 : space group Fm m 2 (# 42); Bravais oF (face-center ortho.)
================================================================================
 Values of the parameters that define the memory need for DATASET  5.
     intxc =       0    ionmov =       2      iscf =      17    lmnmax =      18
     lnmax =       6     mgfft =      60  mpssoang =       3    mqgrid =    3761
     natom =       9  nloc_mem =       2    nspden =       1   nspinor =       1
    nsppol =       1      nsym =       4    n1xccc =       1    ntypat =       4
    occopt =       1   xclevel =       2
-    mband =          42        mffmem =           1         mkmem =           8
       mpw =        9194          nfft =      216000          nkpt =          32
Pmy_natom=         3
 PAW method is used; the additional fine FFT grid is defined by:
   mgfftf=        96    nfftf =    884736
================================================================================
P This job should need less than                     322.633 Mbytes of memory.
  Rough estimation (10% accuracy) of disk space for files :
_ WF disk file :    188.551 Mbytes ; DEN or POT disk file :      6.752 Mbytes.
================================================================================


 DATASET    6 : space group Fm m 2 (# 42); Bravais oF (face-center ortho.)
================================================================================
 Values of the parameters that define the memory need for DATASET  6.
     intxc =       0    ionmov =       2      iscf =      17    lmnmax =      18
     lnmax =       6     mgfft =      60  mpssoang =       3    mqgrid =    3753
     natom =       9  nloc_mem =       2    nspden =       1   nspinor =       1
    nsppol =       1      nsym =       4    n1xccc =       1    ntypat =       4
    occopt =       1   xclevel =       2
-    mband =          42        mffmem =           1         mkmem =           8
       mpw =        9134          nfft =      216000          nkpt =          32
Pmy_natom=         3
 PAW method is used; the additional fine FFT grid is defined by:
   mgfftf=        96    nfftf =    884736
================================================================================
P This job should need less than                     322.444 Mbytes of memory.
  Rough estimation (10% accuracy) of disk space for files :
_ WF disk file :    187.320 Mbytes ; DEN or POT disk file :      6.752 Mbytes.
================================================================================


 DATASET    7 : space group Fm m 2 (# 42); Bravais oF (face-center ortho.)
================================================================================
 Values of the parameters that define the memory need for DATASET  7.
     intxc =       0    ionmov =       2      iscf =      17    lmnmax =      18
     lnmax =       6     mgfft =      60  mpssoang =       3    mqgrid =    3750
     natom =       9  nloc_mem =       2    nspden =       1   nspinor =       1
    nsppol =       1      nsym =       4    n1xccc =       1    ntypat =       4
    occopt =       1   xclevel =       2
-    mband =          42        mffmem =           1         mkmem =           8
       mpw =        9109          nfft =      216000          nkpt =          32
Pmy_natom=         3
 PAW method is used; the additional fine FFT grid is defined by:
   mgfftf=        96    nfftf =    884736
================================================================================
P This job should need less than                     322.379 Mbytes of memory.
  Rough estimation (10% accuracy) of disk space for files :
_ WF disk file :    186.808 Mbytes ; DEN or POT disk file :      6.752 Mbytes.
================================================================================


 DATASET    8 : space group Fm m 2 (# 42); Bravais oF (face-center ortho.)
================================================================================
 Values of the parameters that define the memory need for DATASET  8.
     intxc =       0    ionmov =       2      iscf =      17    lmnmax =      18
     lnmax =       6     mgfft =      60  mpssoang =       3    mqgrid =    3746
     natom =       9  nloc_mem =       2    nspden =       1   nspinor =       1
    nsppol =       1      nsym =       4    n1xccc =       1    ntypat =       4
    occopt =       1   xclevel =       2
-    mband =          42        mffmem =           1         mkmem =           8
       mpw =        9076          nfft =      216000          nkpt =          32
Pmy_natom=         3
 PAW method is used; the additional fine FFT grid is defined by:
   mgfftf=        96    nfftf =    884736
================================================================================
P This job should need less than                     322.268 Mbytes of memory.
  Rough estimation (10% accuracy) of disk space for files :
_ WF disk file :    186.131 Mbytes ; DEN or POT disk file :      6.752 Mbytes.
================================================================================


 DATASET    9 : space group Fm m 2 (# 42); Bravais oF (face-center ortho.)
================================================================================
 Values of the parameters that define the memory need for DATASET  9.
     intxc =       0    ionmov =       2      iscf =      17    lmnmax =      18
     lnmax =       6     mgfft =      60  mpssoang =       3    mqgrid =    3742
     natom =       9  nloc_mem =       2    nspden =       1   nspinor =       1
    nsppol =       1      nsym =       4    n1xccc =       1    ntypat =       4
    occopt =       1   xclevel =       2
-    mband =          42        mffmem =           1         mkmem =           8
       mpw =        9047          nfft =      216000          nkpt =          32
Pmy_natom=         3
 PAW method is used; the additional fine FFT grid is defined by:
   mgfftf=        96    nfftf =    884736
================================================================================
P This job should need less than                     322.180 Mbytes of memory.
  Rough estimation (10% accuracy) of disk space for files :
_ WF disk file :    185.536 Mbytes ; DEN or POT disk file :      6.752 Mbytes.
================================================================================


 DATASET   10 : space group Fm m 2 (# 42); Bravais oF (face-center ortho.)
================================================================================
 Values of the parameters that define the memory need for DATASET 10.
     intxc =       0    ionmov =       2      iscf =      17    lmnmax =      18
     lnmax =       6     mgfft =      60  mpssoang =       3    mqgrid =    3738
     natom =       9  nloc_mem =       2    nspden =       1   nspinor =       1
    nsppol =       1      nsym =       4    n1xccc =       1    ntypat =       4
    occopt =       1   xclevel =       2
-    mband =          42        mffmem =           1         mkmem =           8
       mpw =        9016          nfft =      216000          nkpt =          32
Pmy_natom=         3
 PAW method is used; the additional fine FFT grid is defined by:
   mgfftf=        96    nfftf =    884736
================================================================================
P This job should need less than                     322.082 Mbytes of memory.
  Rough estimation (10% accuracy) of disk space for files :
_ WF disk file :    184.900 Mbytes ; DEN or POT disk file :      6.752 Mbytes.
================================================================================

--------------------------------------------------------------------------------
------------- Echo of variables that govern the present computation ------------
--------------------------------------------------------------------------------
-
- outvars: echo of selected default values                                      
-   iomode0 =  0 , fftalg0 =112 , wfoptalg0 = 10
-
- outvars: echo of global parameters not present in the input file              
-  max_nthreads =    0
-
 -outvars: echo values of preprocessed input variables --------
            acell1     1.4168255854E+01  1.3946336795E+01  1.4285571064E+01 Bohr
            acell2     1.4154158087E+01  1.3932459843E+01  1.4271356565E+01 Bohr
            acell3     1.4140060320E+01  1.3918582891E+01  1.4257142067E+01 Bohr
            acell4     1.4125962553E+01  1.3904705939E+01  1.4242927568E+01 Bohr
            acell5     1.4111864786E+01  1.3890828987E+01  1.4228713070E+01 Bohr
            acell6     1.4083669252E+01  1.3863075083E+01  1.4200284072E+01 Bohr
            acell7     1.4069571485E+01  1.3849198131E+01  1.4186069574E+01 Bohr
            acell8     1.4055473718E+01  1.3835321179E+01  1.4171855075E+01 Bohr
            acell9     1.4041375951E+01  1.3821444227E+01  1.4157640577E+01 Bohr
            acell10    1.4027278184E+01  1.3807567275E+01  1.4143426078E+01 Bohr
              amu      1.32905430E+02  1.26904470E+02  9.12240000E+01
                       3.54527000E+01
           diemac      1.20000000E+01
          dilatmx      1.15000000E+00
             ecut      1.60000000E+01 Hartree
           ecutsm      5.00000000E-01 Hartree
-          fftalg         112
           ionmov           2
              ixc     -101130
           jdtset        1    2    3    4    5    6    7    8    9   10
              kpt     -1.25000000E-01 -2.50000000E-01  0.00000000E+00
                      -1.25000000E-01  5.00000000E-01  0.00000000E+00
                      -2.50000000E-01 -3.75000000E-01  0.00000000E+00
                      -1.25000000E-01 -3.75000000E-01  1.25000000E-01
                      -3.75000000E-01 -1.25000000E-01  1.25000000E-01
                      -1.25000000E-01  2.50000000E-01  0.00000000E+00
                      -2.50000000E-01  3.75000000E-01  0.00000000E+00
                      -1.25000000E-01  3.75000000E-01  1.25000000E-01
                      -3.75000000E-01  5.00000000E-01  0.00000000E+00
                      -2.50000000E-01  5.00000000E-01  1.25000000E-01
                      -1.25000000E-01  5.00000000E-01  2.50000000E-01
                       5.00000000E-01 -2.50000000E-01  1.25000000E-01
                       3.75000000E-01 -1.25000000E-01  1.25000000E-01
                       5.00000000E-01 -1.25000000E-01  2.50000000E-01
                      -1.25000000E-01  0.00000000E+00  0.00000000E+00
                      -1.25000000E-01  1.25000000E-01  1.25000000E-01
                      -1.25000000E-01  2.50000000E-01  2.50000000E-01
                      -1.25000000E-01  3.75000000E-01  3.75000000E-01
                       1.25000000E-01 -1.25000000E-01  1.25000000E-01
                       2.50000000E-01 -1.25000000E-01  2.50000000E-01
                       3.75000000E-01 -1.25000000E-01  3.75000000E-01
                      -3.75000000E-01  0.00000000E+00  0.00000000E+00
                      -2.50000000E-01  0.00000000E+00  1.25000000E-01
                      -3.75000000E-01  1.25000000E-01  1.25000000E-01
                      -2.50000000E-01  1.25000000E-01  2.50000000E-01
                      -3.75000000E-01  2.50000000E-01  2.50000000E-01
                      -2.50000000E-01  2.50000000E-01  3.75000000E-01
                       1.25000000E-01 -3.75000000E-01  1.25000000E-01
                       2.50000000E-01 -3.75000000E-01  2.50000000E-01
                       0.00000000E+00 -2.50000000E-01  1.25000000E-01
                       1.25000000E-01 -2.50000000E-01  2.50000000E-01
                       2.50000000E-01 -2.50000000E-01  3.75000000E-01
         kptrlatt        4   -4    4     -4    4    4     -4   -4    4
          kptrlen1     7.82124785E+01
          kptrlen2     7.81346551E+01
          kptrlen3     7.80568317E+01
          kptrlen4     7.79790084E+01
          kptrlen5     7.79011850E+01
          kptrlen6     7.77455383E+01
          kptrlen7     7.76677149E+01
          kptrlen8     7.75898916E+01
          kptrlen9     7.75120682E+01
          kptrlen10    7.74342448E+01
P           mkmem           8
            natom           9
            nband          42
           ndtset          10
            ngfft          60      60      60
          ngfftdg          96      96      96
             nkpt          32
            nstep        2500
             nsym           4
            ntime        1000
           ntypat           4
              occ      2.000000  2.000000  2.000000  2.000000  2.000000  2.000000
                       2.000000  2.000000  2.000000  2.000000  2.000000  2.000000
                       2.000000  2.000000  2.000000  2.000000  2.000000  2.000000
                       2.000000  2.000000  2.000000  2.000000  2.000000  2.000000
                       2.000000  2.000000  2.000000  2.000000  2.000000  2.000000
                       2.000000  2.000000  2.000000  2.000000  2.000000  2.000000
                       0.000000  0.000000  0.000000  0.000000  0.000000  0.000000
          optcell           3
        optforces           1
        pawecutdg      4.00000000E+01 Hartree
            prtwf           0
            rprim      0.0000000000E+00  7.2377819548E-01  6.9003269760E-01
                       7.1314874649E-01  0.0000000000E+00  7.0101274267E-01
                       6.9621386217E-01  7.1783442250E-01  0.0000000000E+00
           shiftk      5.00000000E-01  5.00000000E-01  5.00000000E-01
          spgroup          42
           symrel      1  0  0   0  1  0   0  0  1       1  0  0   1  0 -1   1 -1  0
                       0 -1  1   0 -1  0   1 -1  0       0 -1  1  -1  0  1   0  0  1
           toldff      1.00000000E-08
           tolmxf      1.00000000E-05
            typat      1  1  4  4  2  4  2  2  3
           useylm           1
              wtk        0.03125    0.03125    0.03125    0.03125    0.03125    0.03125
                         0.03125    0.03125    0.03125    0.03125    0.03125    0.03125
                         0.03125    0.03125    0.03125    0.03125    0.03125    0.03125
                         0.03125    0.03125    0.03125    0.03125    0.03125    0.03125
                         0.03125    0.03125    0.03125    0.03125    0.03125    0.03125
                         0.03125    0.03125
           xangst1     2.6315486754E+00  2.7227806289E+00  2.5867663142E+00
                       7.8946460261E+00  8.1493207378E+00  7.7602989425E+00
                       5.2630973508E+00  5.3565460647E+00  2.4557306418E+00
                       5.2630973507E+00  5.3565460648E+00  7.8913346149E+00
                       7.6887981554E+00  5.4756780681E+00  5.1735326283E+00
                       5.2630973508E+00  8.2647196991E+00  5.1735326284E+00
                       5.2630973507E+00  2.7362921198E+00  5.1735326283E+00
                       2.8373965461E+00  5.4756780682E+00  5.1735326284E+00
                      -3.9123895955E-13 -1.2524058002E-01 -1.8502762232E-12
           xangst2     2.6289302190E+00  2.7200713945E+00  2.5841924173E+00
                       7.8867906569E+00  8.1412119610E+00  7.7525772520E+00
                       5.2578604380E+00  5.3512161681E+00  2.4532871287E+00
                       5.2578604380E+00  5.3512161683E+00  7.8834825406E+00
                       7.6811476100E+00  5.4702296322E+00  5.1683848347E+00
                       5.2578604380E+00  8.2564960974E+00  5.1683848347E+00
                       5.2578604380E+00  2.7335694411E+00  5.1683848347E+00
                       2.8345732659E+00  5.4702296323E+00  5.1683848347E+00
                      -3.9084079546E-13 -1.2511596253E-01 -1.8484212236E-12
           xangst3     2.6263117626E+00  2.7173621600E+00  2.5816185205E+00
                       7.8789352878E+00  8.1331031841E+00  7.7448555616E+00
                       5.2526235252E+00  5.3458862715E+00  2.4508436157E+00
                       5.2526235252E+00  5.3458862717E+00  7.8756304664E+00
                       7.6734970646E+00  5.4647811963E+00  5.1632370410E+00
                       5.2526235252E+00  8.2482724957E+00  5.1632370411E+00
                       5.2526235252E+00  2.7308467624E+00  5.1632370410E+00
                       2.8317499858E+00  5.4647811964E+00  5.1632370411E+00
                      -3.9046289477E-13 -1.2499134503E-01 -1.8465847699E-12
           xangst4     2.6236933062E+00  2.7146529256E+00  2.5790446237E+00
                       7.8710799186E+00  8.1249944073E+00  7.7371338711E+00
                       5.2473866124E+00  5.3405563750E+00  2.4484001026E+00
                       5.2473866124E+00  5.3405563751E+00  7.8677783921E+00
                       7.6658465191E+00  5.4593327604E+00  5.1580892473E+00
                       5.2473866124E+00  8.2400488940E+00  5.1580892474E+00
                       5.2473866124E+00  2.7281240836E+00  5.1580892473E+00
                       2.8289267057E+00  5.4593327605E+00  5.1580892474E+00
                      -3.9006825768E-13 -1.2486672754E-01 -1.8447566496E-12
           xangst5     2.6210748498E+00  2.7119436911E+00  2.5764707269E+00
                       7.8632245494E+00  8.1168856304E+00  7.7294121806E+00
                       5.2421496996E+00  5.3352264784E+00  2.4459565895E+00
                       5.2421496996E+00  5.3352264785E+00  7.8599263179E+00
                       7.6581959737E+00  5.4538843245E+00  5.1529414537E+00
                       5.2421496996E+00  8.2318252924E+00  5.1529414538E+00
                       5.2421496996E+00  2.7254014049E+00  5.1529414537E+00
                       2.8261034255E+00  5.4538843246E+00  5.1529414538E+00
                      -3.8970121341E-13 -1.2474211005E-01 -1.8429055172E-12
           xangst6     2.6158379370E+00  2.7065252222E+00  2.5713229332E+00
                       7.8475138110E+00  8.1006680767E+00  7.7139687996E+00
                       5.2316758740E+00  5.3245666852E+00  2.4410695634E+00
                       5.2316758740E+00  5.3245666854E+00  7.8442221694E+00
                       7.6428948828E+00  5.4429874527E+00  5.1426458664E+00
                       5.2316758740E+00  8.2153780890E+00  5.1426458664E+00
                       5.2316758740E+00  2.7199560475E+00  5.1426458664E+00
                       2.8204568652E+00  5.4429874529E+00  5.1426458664E+00
                      -3.8889927314E-13 -1.2449287506E-01 -1.8392188849E-12
           xangst7     2.6132194806E+00  2.7038159877E+00  2.5687490364E+00
                       7.8396584419E+00  8.0925592999E+00  7.7062471091E+00
                       5.2264389613E+00  5.3192367886E+00  2.4386260503E+00
                       5.2264389612E+00  5.3192367888E+00  7.8363700952E+00
                       7.6352443374E+00  5.4375390168E+00  5.1374980727E+00
                       5.2264389613E+00  8.2071544873E+00  5.1374980728E+00
                       5.2264389612E+00  2.7172333687E+00  5.1374980727E+00
                       2.8176335851E+00  5.4375390170E+00  5.1374980728E+00
                      -3.8851022470E-13 -1.2436825757E-01 -1.8373766914E-12
           xangst8     2.6106010242E+00  2.7011067533E+00  2.5661751395E+00
                       7.8318030727E+00  8.0844505230E+00  7.6985254186E+00
                       5.2212020485E+00  5.3139068921E+00  2.4361825372E+00
                       5.2212020484E+00  5.3139068922E+00  7.8285180209E+00
                       7.6275937920E+00  5.4320905810E+00  5.1323502790E+00
                       5.2212020485E+00  8.1989308856E+00  5.1323502791E+00
                       5.2212020484E+00  2.7145106900E+00  5.1323502790E+00
                       2.8148103049E+00  5.4320905811E+00  5.1323502791E+00
                      -3.8810863355E-13 -1.2424364008E-01 -1.8355348826E-12
           xangst9     2.6079825678E+00  2.6983975188E+00  2.5636012427E+00
                       7.8239477035E+00  8.0763417462E+00  7.6908037281E+00
                       5.2159651357E+00  5.3085769955E+00  2.4337390241E+00
                       5.2159651357E+00  5.3085769956E+00  7.8206659467E+00
                       7.6199432466E+00  5.4266421451E+00  5.1272024854E+00
                       5.2159651357E+00  8.1907072839E+00  5.1272024855E+00
                       5.2159651357E+00  2.7117880113E+00  5.1272024854E+00
                       2.8119870248E+00  5.4266421452E+00  5.1272024855E+00
                      -3.8773763241E-13 -1.2411902259E-01 -1.8336780193E-12
           xangst10    2.6053641114E+00  2.6956882844E+00  2.5610273459E+00
                       7.8160923343E+00  8.0682329693E+00  7.6830820376E+00
                       5.2107282229E+00  5.3032470989E+00  2.4312955111E+00
                       5.2107282229E+00  5.3032470990E+00  7.8128138724E+00
                       7.6122927011E+00  5.4211937092E+00  5.1220546917E+00
                       5.2107282229E+00  8.1824836822E+00  5.1220546918E+00
                       5.2107282229E+00  2.7090653326E+00  5.1220546917E+00
                       2.8091637446E+00  5.4211937093E+00  5.1220546918E+00
                      -3.8733957205E-13 -1.2399440509E-01 -1.8318555763E-12
            xcart1     4.9729063018E+00  5.1453097086E+00  4.8882799036E+00
                       1.4918718905E+01  1.5399984364E+01  1.4664839711E+01
                       9.9458126037E+00  1.0122405080E+01  4.6406583692E+00
                       9.9458126036E+00  1.0122405081E+01  1.4912461245E+01
                       1.4529722805E+01  1.0347531941E+01  9.7765598071E+00
                       9.9458126037E+00  1.5618056796E+01  9.7765598072E+00
                       9.9458126036E+00  5.1708427260E+00  9.7765598071E+00
                       5.3619024025E+00  1.0347531941E+01  9.7765598072E+00
                      -7.3933448606E-13 -2.3667039696E-01 -3.4965153320E-12
            xcart2     4.9679581363E+00  5.1401899975E+00  4.8834159435E+00
                       1.4903874409E+01  1.5384660996E+01  1.4650247830E+01
                       9.9359162727E+00  1.0112333036E+01  4.6360407987E+00
                       9.9359162727E+00  1.0112333036E+01  1.4897622975E+01
                       1.4515265369E+01  1.0337235889E+01  9.7668318869E+00
                       9.9359162727E+00  1.5602516441E+01  9.7668318870E+00
                       9.9359162727E+00  5.1656976089E+00  9.7668318869E+00
                       5.3565671762E+00  1.0337235889E+01  9.7668318870E+00
                      -7.3858206499E-13 -2.3643490403E-01 -3.4930098909E-12
            xcart3     4.9630099709E+00  5.1350702863E+00  4.8785519834E+00
                       1.4889029913E+01  1.5369337629E+01  1.4635655950E+01
                       9.9260199418E+00  1.0102260991E+01  4.6314232282E+00
                       9.9260199417E+00  1.0102260991E+01  1.4882784705E+01
                       1.4500807934E+01  1.0326939837E+01  9.7571039667E+00
                       9.9260199418E+00  1.5586976086E+01  9.7571039668E+00
                       9.9260199417E+00  5.1605524918E+00  9.7571039666E+00
                       5.3512319500E+00  1.0326939837E+01  9.7571039668E+00
                      -7.3786793617E-13 -2.3619941110E-01 -3.4895394962E-12
            xcart4     4.9580618054E+00  5.1299505752E+00  4.8736880233E+00
                       1.4874185416E+01  1.5354014261E+01  1.4621064070E+01
                       9.9161236108E+00  1.0092188946E+01  4.6268056576E+00
                       9.9161236108E+00  1.0092188946E+01  1.4867946435E+01
                       1.4486350498E+01  1.0316643785E+01  9.7473760465E+00
                       9.9161236108E+00  1.5571435731E+01  9.7473760466E+00
                       9.9161236108E+00  5.1554073746E+00  9.7473760464E+00
                       5.3458967237E+00  1.0316643786E+01  9.7473760466E+00
                      -7.3712218015E-13 -2.3596391816E-01 -3.4860848496E-12
            xcart5     4.9531136399E+00  5.1248308640E+00  4.8688240632E+00
                       1.4859340920E+01  1.5338690893E+01  1.4606472189E+01
                       9.9062272799E+00  1.0082116901E+01  4.6221880871E+00
                       9.9062272798E+00  1.0082116901E+01  1.4853108166E+01
                       1.4471893062E+01  1.0306347734E+01  9.7376481262E+00
                       9.9062272799E+00  1.5555895376E+01  9.7376481264E+00
                       9.9062272798E+00  5.1502622575E+00  9.7376481262E+00
                       5.3405614974E+00  1.0306347734E+01  9.7376481264E+00
                      -7.3642856701E-13 -2.3572842523E-01 -3.4825867162E-12
            xcart6     4.9432173090E+00  5.1145914417E+00  4.8590961430E+00
                       1.4829651927E+01  1.5308044158E+01  1.4577288429E+01
                       9.8864346180E+00  1.0061972811E+01  4.6129529461E+00
                       9.8864346179E+00  1.0061972812E+01  1.4823431626E+01
                       1.4442978191E+01  1.0285755630E+01  9.7181922858E+00
                       9.8864346180E+00  1.5524814666E+01  9.7181922860E+00
                       9.8864346179E+00  5.1399720232E+00  9.7181922858E+00
                       5.3298910449E+00  1.0285755631E+01  9.7181922860E+00
                      -7.3491311952E-13 -2.3525743937E-01 -3.4756199909E-12
            xcart7     4.9382691435E+00  5.1094717306E+00  4.8542321828E+00
                       1.4814807430E+01  1.5292720791E+01  1.4562696549E+01
                       9.8765382870E+00  1.0051900766E+01  4.6083353756E+00
                       9.8765382870E+00  1.0051900767E+01  1.4808593356E+01
                       1.4428520755E+01  1.0275459579E+01  9.7084643656E+00
                       9.8765382870E+00  1.5509274311E+01  9.7084643658E+00
                       9.8765382870E+00  5.1348269061E+00  9.7084643656E+00
                       5.3245558186E+00  1.0275459579E+01  9.7084643658E+00
                      -7.3417792451E-13 -2.3502194643E-01 -3.4721387497E-12
            xcart8     4.9333209780E+00  5.1043520194E+00  4.8493682227E+00
                       1.4799962934E+01  1.5277397423E+01  1.4548104668E+01
                       9.8666419561E+00  1.0041828722E+01  4.6037178051E+00
                       9.8666419560E+00  1.0041828722E+01  1.4793755086E+01
                       1.4414063320E+01  1.0265163527E+01  9.6987364454E+00
                       9.8666419561E+00  1.5493733956E+01  9.6987364456E+00
                       9.8666419560E+00  5.1296817889E+00  9.6987364454E+00
                       5.3192205923E+00  1.0265163527E+01  9.6987364456E+00
                      -7.3341902723E-13 -2.3478645350E-01 -3.4686582355E-12
            xcart9     4.9283728125E+00  5.0992323082E+00  4.8445042626E+00
                       1.4785118438E+01  1.5262074056E+01  1.4533512788E+01
                       9.8567456251E+00  1.0031756677E+01  4.5991002345E+00
                       9.8567456251E+00  1.0031756677E+01  1.4778916816E+01
                       1.4399605884E+01  1.0254867475E+01  9.6890085252E+00
                       9.8567456251E+00  1.5478193601E+01  9.6890085254E+00
                       9.8567456251E+00  5.1245366718E+00  9.6890085252E+00
                       5.3138853661E+00  1.0254867476E+01  9.6890085254E+00
                      -7.3271793667E-13 -2.3455096057E-01 -3.4651492724E-12
            xcart10    4.9234246471E+00  5.0941125971E+00  4.8396403025E+00
                       1.4770273941E+01  1.5246750688E+01  1.4518920908E+01
                       9.8468492942E+00  1.0021684632E+01  4.5944826640E+00
                       9.8468492941E+00  1.0021684632E+01  1.4764078546E+01
                       1.4385148449E+01  1.0244571424E+01  9.6792806050E+00
                       9.8468492942E+00  1.5462653246E+01  9.6792806052E+00
                       9.8468492941E+00  5.1193915546E+00  9.6792806050E+00
                       5.3085501398E+00  1.0244571424E+01  9.6792806051E+00
                      -7.3196571161E-13 -2.3431546764E-01 -3.4617053542E-12
             xred      2.5087630187E-01  2.4912369813E-01  2.5087630187E-01
                       7.5087630187E-01  7.4912369813E-01  7.5087630187E-01
                       2.3088672458E-01  2.4378519077E-01  7.5621480923E-01
                       7.5621480923E-01  7.6911327542E-01  2.3088672458E-01
                       2.7408333151E-01  7.2591666849E-01  7.3497178616E-01
                       7.6150913227E-01  2.3849086773E-01  7.6150913227E-01
                       2.5212124714E-01  7.4787875286E-01  2.5212124714E-01
                       7.3497178616E-01  2.6502821384E-01  2.7408333151E-01
                      -1.1539634602E-02  1.1539634602E-02 -1.1539634602E-02
            znucl       55.00000   53.00000   40.00000   17.00000

================================================================================

 chkinp: Checking input parameters for consistency, jdtset=   1.

 chkinp: Checking input parameters for consistency, jdtset=   2.

 chkinp: Checking input parameters for consistency, jdtset=   3.

 chkinp: Checking input parameters for consistency, jdtset=   4.

 chkinp: Checking input parameters for consistency, jdtset=   5.

 chkinp: Checking input parameters for consistency, jdtset=   6.

 chkinp: Checking input parameters for consistency, jdtset=   7.

 chkinp: Checking input parameters for consistency, jdtset=   8.

 chkinp: Checking input parameters for consistency, jdtset=   9.

 chkinp: Checking input parameters for consistency, jdtset=  10.

================================================================================
== DATASET  1 ==================================================================
-   mpi_nproc: 4, omp_nthreads: -1 (-1 if OMP is not activated)


--- !DatasetInfo
iteration_state: {dtset: 1, }
dimensions: {natom: 9, nkpt: 32, mband: 42, nsppol: 1, nspinor: 1, nspden: 1, mpw: 9293, }
cutoff_energies: {ecut:  16.0, pawecutdg:  40.0, }
electrons: {nelect:   7.20000000E+01, charge:   0.00000000E+00, occopt:   1.00000000E+00, tsmear:   1.00000000E-02, }
meta: {optdriver: 0, ionmov: 2, optcell: 3, iscf: 17, paral_kgb: 0, }
...

 Real(R)+Recip(G) space primitive vectors, cartesian coordinates (Bohr,Bohr^-1):
 R(1)=  0.0000000 10.2546747  9.7765598  G(1)= -0.0502724  0.0487583  0.0511427
 R(2)=  9.9458126  0.0000000  9.7765598  G(2)=  0.0502724 -0.0487583  0.0511427
 R(3)=  9.9458126 10.2546747  0.0000000  G(3)=  0.0502724  0.0487583 -0.0511427
 Unit cell volume ucvol=  1.9942436E+03 bohr^3
 Angles (23,13,12)=  6.02310224E+01  5.86977341E+01  6.10712435E+01 degrees

 Coarse grid specifications (used for wave-functions):

 getcut: wavevector=  0.0000  0.0000  0.0000  ngfft=  60  60  60
         ecut(hartree)=     21.160   => boxcut(ratio)=   2.02890

 Fine grid specifications (used for densities):

 getcut: wavevector=  0.0000  0.0000  0.0000  ngfft=  96  96  96
         ecut(hartree)=     52.900   => boxcut(ratio)=   2.05261

--- Pseudopotential description ------------------------------------------------
- pspini: atom type   1  psp file is ../../../Psps_for_tests/ATOMICDATA/Cs.GGA_PBE-JTH.xml
- pspatm: opening atomic psp file    ../../../Psps_for_tests/ATOMICDATA/Cs.GGA_PBE-JTH.xml
- pspatm : Reading pseudopotential header in XML form from ../../../Psps_for_tests/ATOMICDATA/Cs.GGA_PBE-JTH.xml
 Pseudopotential format is: paw10
 basis_size (lnmax)=  6 (lmn_size= 18), orbitals=   0   0   1   1   2   2
 Spheres core radius: rc_sph= 2.20660278
 1 radial meshes are used:
  - mesh 1: r(i)=AA*[exp(BB*(i-1))-1], size=1500 , AA= 0.15922E-03 BB= 0.87573E-02
 Shapefunction is SIN type: shapef(r)=[sin(pi*r/rshp)/(pi*r/rshp)]**2
 Radius for shape functions =  2.00394208
 mmax= 1500
 Radial grid used for partial waves is grid 1
 Radial grid used for projectors is grid 1
 Radial grid used for (t)core density is grid 1
 Radial grid used for Vloc is grid 1
 Radial grid used for pseudo valence density is grid 1
 Mesh size for Vloc has been set to 1341 to avoid numerical noise.
 Compensation charge density is not taken into account in XC energy/potential
 pspatm: atomic psp has been read  and splines computed

- pspini: atom type   2  psp file is ../../../Psps_for_tests/ATOMICDATA/I.GGA_PBE-JTH.xml
- pspatm: opening atomic psp file    ../../../Psps_for_tests/ATOMICDATA/I.GGA_PBE-JTH.xml
- pspatm : Reading pseudopotential header in XML form from ../../../Psps_for_tests/ATOMICDATA/I.GGA_PBE-JTH.xml
 Pseudopotential format is: paw10
 basis_size (lnmax)=  4 (lmn_size=  8), orbitals=   0   0   1   1
 Spheres core radius: rc_sph= 2.30022271
 1 radial meshes are used:
  - mesh 1: r(i)=AA*[exp(BB*(i-1))-1], size=2000 , AA= 0.12610E-03 BB= 0.66836E-02
 Shapefunction is SIN type: shapef(r)=[sin(pi*r/rshp)/(pi*r/rshp)]**2
 Radius for shape functions =  2.10879093
 mmax= 2000
 Radial grid used for partial waves is grid 1
 Radial grid used for projectors is grid 1
 Radial grid used for (t)core density is grid 1
 Radial grid used for Vloc is grid 1
 Radial grid used for pseudo valence density is grid 1
 Mesh size for Vloc has been set to 1792 to avoid numerical noise.
 Compensation charge density is not taken into account in XC energy/potential
 pspatm: atomic psp has been read  and splines computed

- pspini: atom type   3  psp file is ../../../Psps_for_tests/ATOMICDATA/Zr.GGA_PBE-JTH.xml
- pspatm: opening atomic psp file    ../../../Psps_for_tests/ATOMICDATA/Zr.GGA_PBE-JTH.xml
- pspatm : Reading pseudopotential header in XML form from ../../../Psps_for_tests/ATOMICDATA/Zr.GGA_PBE-JTH.xml
 Pseudopotential format is: paw10
 basis_size (lnmax)=  6 (lmn_size= 18), orbitals=   0   0   1   1   2   2
 Spheres core radius: rc_sph= 2.21000000
 1 radial meshes are used:
  - mesh 1: r(i)=AA*[exp(BB*(i-1))-1], size= 941 , AA= 0.35256E-03 BB= 0.14102E-01
 Shapefunction is BESSEL type: shapef(r,l)=aa(1,l)*jl(q(1,l)*r)+aa(2,l)*jl(q(2,l)*r)
 Radius for shape functions =  2.21000000
 mmax=  941
 Radial grid used for partial waves is grid 1
 Radial grid used for projectors is grid 1
 Radial grid used for (t)core density is grid 1
 Radial grid used for Vloc is grid 1
 Radial grid used for pseudo valence density is grid 1
 Mesh size for Vloc has been set to  777 to avoid numerical noise.
 Compensation charge density is not taken into account in XC energy/potential
 pspatm: atomic psp has been read  and splines computed

- pspini: atom type   4  psp file is ../../../Psps_for_tests/ATOMICDATA/Cl.GGA_PBE-JTH.xml
- pspatm: opening atomic psp file    ../../../Psps_for_tests/ATOMICDATA/Cl.GGA_PBE-JTH.xml
- pspatm : Reading pseudopotential header in XML form from ../../../Psps_for_tests/ATOMICDATA/Cl.GGA_PBE-JTH.xml
 Pseudopotential format is: paw10
 basis_size (lnmax)=  4 (lmn_size=  8), orbitals=   0   0   1   1
 Spheres core radius: rc_sph= 1.80315674
 1 radial meshes are used:
  - mesh 1: r(i)=AA*[exp(BB*(i-1))-1], size=1400 , AA= 0.50355E-03 BB= 0.85603E-02
 Shapefunction is SIN type: shapef(r)=[sin(pi*r/rshp)/(pi*r/rshp)]**2
 Radius for shape functions =  1.61320365
 mmax= 1400
 Radial grid used for partial waves is grid 1
 Radial grid used for projectors is grid 1
 Radial grid used for (t)core density is grid 1
 Radial grid used for Vloc is grid 1
 Radial grid used for pseudo valence density is grid 1
 Mesh size for Vloc has been set to 1238 to avoid numerical noise.
 Compensation charge density is not taken into account in XC energy/potential
 pspatm: atomic psp has been read  and splines computed

   2.74620051E+04                                ecore*ucvol(ha*bohr**3)
--------------------------------------------------------------------------------

_setup2: Arith. and geom. avg. npw (full set) are    9272.594    9272.590

================================================================================

=== [ionmov= 2] Broyden-Fletcher-Goldfard-Shanno method (forces)            
================================================================================

--- Iteration: (   1/1000) Internal Cycle: (1/1)
--------------------------------------------------------------------------------

---SELF-CONSISTENT-FIELD CONVERGENCE--------------------------------------------

--- !BeginCycle
iteration_state: {dtset: 1, itime: 1, icycle: 1, }
solver: {iscf: 17, nstep: 2500, nline: 4, wfoptalg: 10, }
tolerances: {toldff: 1.00E-08, }
...

     iter   Etot(hartree)      deltaE(h)  residm     nres2    diffor    maxfor
 ETOT  1  -169.09549679445    -1.691E+02 2.047E-01 2.713E+01 9.716E-02 9.716E-02
 ETOT  2  -169.29248460549    -1.970E-01 1.528E-02 6.295E+00 1.909E-01 9.433E-02
 ETOT  3  -169.28947044606     3.014E-03 2.677E-03 1.300E+00 8.224E-02 1.223E-02
 ETOT  4  -169.29017967298    -7.092E-04 1.941E-03 8.734E-02 1.551E-02 2.761E-02
 ETOT  5  -169.28989404252     2.856E-04 8.885E-04 7.116E-03 2.320E-02 4.715E-03
 ETOT  6  -169.28993551073    -4.147E-05 1.500E-03 9.086E-04 1.675E-03 3.062E-03
 ETOT  7  -169.28993715695    -1.646E-06 4.135E-04 1.576E-04 5.342E-04 2.995E-03
 ETOT  8  -169.28993820182    -1.045E-06 9.555E-04 3.238E-05 3.604E-04 2.646E-03
 ETOT  9  -169.28993837564    -1.738E-07 1.664E-04 4.317E-06 7.510E-05 2.721E-03
 ETOT 10  -169.28993840285    -2.721E-08 2.962E-04 6.192E-07 2.308E-05 2.709E-03
 ETOT 11  -169.28993840508    -2.226E-09 1.025E-04 8.484E-08 4.991E-06 2.711E-03
 ETOT 12  -169.28993840576    -6.812E-10 1.802E-04 3.206E-08 6.871E-06 2.708E-03
 ETOT 13  -169.28993840576    -5.684E-12 5.293E-05 6.664E-09 3.151E-06 2.708E-03
 ETOT 14  -169.28993840578    -2.066E-11 9.034E-05 1.096E-09 9.471E-07 2.707E-03
 ETOT 15  -169.28993840578     5.542E-12 2.491E-05 4.676E-10 8.223E-07 2.707E-03
 ETOT 16  -169.28993840577     5.457E-12 4.110E-05 6.779E-11 5.075E-07 2.707E-03
 ETOT 17  -169.28993840577     7.304E-12 1.122E-05 2.493E-11 8.750E-08 2.707E-03
 ETOT 18  -169.28993840577    -1.705E-13 1.789E-05 4.673E-12 4.604E-08 2.707E-03
 ETOT 19  -169.28993840577    -1.137E-12 4.950E-06 2.331E-12 2.757E-08 2.707E-03
 ETOT 20  -169.28993840577     2.387E-12 7.647E-06 2.979E-13 1.236E-08 2.707E-03
 ETOT 21  -169.28993840577    -4.405E-12 2.421E-06 1.611E-13 5.916E-09 2.707E-03
 ETOT 22  -169.28993840577     2.274E-13 3.244E-06 7.043E-14 1.320E-09 2.707E-03

 At SCF step   22, forces are converged : 
  for the second time, max diff in force=  1.320E-09 < toldff=  1.000E-08

 Cartesian components of stress tensor (hartree/bohr^3)
  sigma(1 1)= -1.39479717E-04  sigma(3 2)= -2.62908677E-13
  sigma(2 2)= -1.38395157E-04  sigma(3 1)=  1.25266400E-13
  sigma(3 3)= -1.36970693E-04  sigma(2 1)=  1.39009458E-13


--- !ResultsGS
iteration_state: {dtset: 1, itime: 1, icycle: 1, }
comment   : Summary of ground state results
lattice_vectors:
- [  0.0000000,  10.2546747,   9.7765598, ]
- [  9.9458126,   0.0000000,   9.7765598, ]
- [  9.9458126,  10.2546747,   0.0000000, ]
lattice_lengths: [  14.16826,   13.94634,   14.28557, ]
lattice_angles: [ 60.231,  58.698,  61.071, ] # degrees, (23, 13, 12)
lattice_volume:   1.9942436E+03
convergence: {deltae:  2.274E-13, res2:  7.043E-14, residm:  3.244E-06, diffor:  1.320E-09, }
etotal    :  -1.69289938E+02
entropy   :   0.00000000E+00
fermie    :  -2.91097502E-03
cartesian_stress_tensor: # hartree/bohr^3
- [ -1.39479717E-04,   1.39009458E-13,   1.25266400E-13, ]
- [  1.39009458E-13,  -1.38395157E-04,  -2.62908677E-13, ]
- [  1.25266400E-13,  -2.62908677E-13,  -1.36970693E-04, ]
pressure_GPa:   4.0684E+00
xred      :
- [  2.5088E-01,   2.4912E-01,   2.5088E-01, Cs]
- [  7.5088E-01,   7.4912E-01,   7.5088E-01, Cs]
- [  2.3089E-01,   2.4379E-01,   7.5621E-01, Cl]
- [  7.5621E-01,   7.6911E-01,   2.3089E-01, Cl]
- [  2.7408E-01,   7.2592E-01,   7.3497E-01,  I]
- [  7.6151E-01,   2.3849E-01,   7.6151E-01, Cl]
- [  2.5212E-01,   7.4788E-01,   2.5212E-01,  I]
- [  7.3497E-01,   2.6503E-01,   2.7408E-01,  I]
- [ -1.1540E-02,   1.1540E-02,  -1.1540E-02, Zr]
cartesian_forces: # hartree/bohr
- [  1.04830118E-16,   4.42829080E-06,  -1.06676536E-16, ]
- [  1.04830118E-16,   4.42829080E-06,  -1.06676536E-16, ]
- [ -4.41713672E-14,  -1.24055316E-04,  -2.70705051E-03, ]
- [  3.82992653E-14,  -1.24055316E-04,   2.70705051E-03, ]
- [  1.92521921E-03,  -1.56513824E-04,   1.00764762E-14, ]
- [  6.25187088E-14,   2.64168709E-03,  -6.36012665E-14, ]
- [ -4.26557141E-14,  -1.80238941E-03,   4.33941618E-14, ]
- [ -1.92521921E-03,  -1.56513824E-04,  -2.54006922E-15, ]
- [ -6.79256456E-15,  -2.87015977E-04,   6.91013119E-15, ]
force_length_stats: {min:   4.42829080E-06, max:   2.70989155E-03, mean:   1.55809707E-03, }
...

 Integrated electronic density in atomic spheres:
 ------------------------------------------------
 Atom  Sphere_radius  Integrated_density
    1        2.20660          5.38016488
    2        2.20660          5.38016488
    3        1.80316          4.37245934
    4        1.80316          4.37245934
    5        2.30022          4.04557524
    6        1.80316          4.36105295
    7        2.30022          4.05537414
    8        2.30022          4.04557524
    9        2.21000          8.85714285

 PAW TEST:
 ==== Compensation charge inside spheres ============
 The following values must be close to each other ...
 Compensation charge over spherical meshes =     -5.651514761993990
 Compensation charge over fine fft grid    =     -5.651510678588257

 ==== Results concerning PAW augmentation regions ====

 Total pseudopotential strength Dij (hartree):
 Atom #  1
   0.41831  -0.13864   0.00000   0.00000   0.00000  -0.00000   0.00000   0.00000   0.00000   0.00000  -0.00000  -0.00000 ...
  -0.13864   0.04162  -0.00000   0.00000   0.00000   0.00000   0.00000   0.00000   0.00000   0.00000   0.00000   0.00000 ...
   0.00000  -0.00000  -0.09086   0.00000   0.00000  -0.16821   0.00000   0.00000   0.00000   0.00000   0.00000  -0.00000 ...
   0.00000   0.00000   0.00000  -0.09086   0.00000   0.00000  -0.16821   0.00000  -0.00000  -0.00000   0.00000   0.00000 ...
   0.00000   0.00000   0.00000   0.00000  -0.09086   0.00000   0.00000  -0.16822  -0.00000  -0.00000   0.00000   0.00000 ...
  -0.00000   0.00000  -0.16821   0.00000   0.00000   0.39742   0.00000   0.00000   0.00000   0.00000   0.00000   0.00000 ...
   0.00000   0.00000   0.00000  -0.16821   0.00000   0.00000   0.39742  -0.00001   0.00000   0.00000   0.00000   0.00000 ...
   0.00000   0.00000   0.00000   0.00000  -0.16822   0.00000  -0.00001   0.39743  -0.00000   0.00000   0.00000   0.00000 ...
   0.00000   0.00000   0.00000  -0.00000  -0.00000   0.00000   0.00000  -0.00000   0.00561  -0.00000   0.00000   0.00000 ...
   0.00000   0.00000   0.00000  -0.00000  -0.00000   0.00000   0.00000   0.00000  -0.00000   0.00561   0.00000   0.00000 ...
  -0.00000   0.00000   0.00000   0.00000   0.00000   0.00000   0.00000   0.00000   0.00000   0.00000   0.00561  -0.00000 ...
  -0.00000   0.00000  -0.00000   0.00000   0.00000   0.00000   0.00000   0.00000   0.00000   0.00000  -0.00000   0.00561 ...
   ...  only 12  components have been written...
 Atom #  9
   3.05508  -0.88938   0.00003   0.00000   0.00000   0.00000   0.00000   0.00000   0.00000   0.00000   0.00006   0.00000 ...
  -0.88938   0.26566  -0.00002   0.00000   0.00000   0.00000   0.00000   0.00000   0.00000   0.00000  -0.00000   0.00000 ...
   0.00003  -0.00002   0.27631   0.00000   0.00000  -0.05645   0.00000   0.00000   0.00000   0.00000   0.00006   0.00000 ...
   0.00000   0.00000   0.00000   0.27641   0.00000   0.00000  -0.05647   0.00000   0.00000  -0.00010   0.00000   0.00000 ...
   0.00000   0.00000   0.00000   0.00000   0.27623   0.00000   0.00000  -0.05644  -0.00009   0.00000   0.00000   0.00000 ...
   0.00000   0.00000  -0.05645   0.00000   0.00000   0.01539   0.00000   0.00000   0.00000   0.00000  -0.00001   0.00000 ...
   0.00000   0.00000   0.00000  -0.05647   0.00000   0.00000   0.01539   0.00000   0.00000   0.00002   0.00000   0.00000 ...
   0.00000   0.00000   0.00000   0.00000  -0.05644   0.00000   0.00000   0.01539   0.00002   0.00000   0.00000   0.00000 ...
   0.00000   0.00000   0.00000   0.00000  -0.00009   0.00000   0.00000   0.00002  -0.00607   0.00000   0.00000   0.00000 ...
   0.00000   0.00000   0.00000  -0.00010   0.00000   0.00000   0.00002   0.00000   0.00000  -0.00604   0.00000   0.00000 ...
   0.00006  -0.00000   0.00006   0.00000   0.00000  -0.00001   0.00000   0.00000   0.00000   0.00000  -0.00594   0.00000 ...
   0.00000   0.00000   0.00000   0.00000   0.00000   0.00000   0.00000   0.00000   0.00000   0.00000   0.00000  -0.00604 ...
   ...  only 12  components have been written...


 Augmentation waves occupancies Rhoij:
 Atom #  1
   1.99924  -0.01094   0.00005   0.00000   0.00000  -0.00000   0.00000   0.00000   0.00000   0.00000  -0.00180  -0.00417 ...
  -0.01094   0.22268   0.00027   0.00000   0.00000  -0.00006   0.00000   0.00000   0.00000   0.00000   0.03120   0.03788 ...
   0.00005   0.00027   2.00880   0.00000   0.00000  -0.00492   0.00000   0.00000   0.00000   0.00000   0.00359  -0.00314 ...
   0.00000   0.00000   0.00000   2.00974   0.00313   0.00000  -0.00517  -0.00050  -0.00291   0.00341   0.00000   0.00000 ...
   0.00000   0.00000   0.00000   0.00313   2.00690   0.00000  -0.00050  -0.00458  -0.00422  -0.00307   0.00000   0.00000 ...
  -0.00000  -0.00006  -0.00492   0.00000   0.00000   0.00017   0.00000   0.00000   0.00000   0.00000  -0.00019   0.00011 ...
   0.00000   0.00000   0.00000  -0.00517  -0.00050   0.00000   0.00020   0.00004   0.00010  -0.00021   0.00000   0.00000 ...
   0.00000   0.00000   0.00000  -0.00050  -0.00458   0.00000   0.00004   0.00014   0.00022   0.00011   0.00000   0.00000 ...
   0.00000   0.00000   0.00000  -0.00291  -0.00422   0.00000   0.00010   0.00022   0.03997  -0.00034   0.00000   0.00000 ...
   0.00000   0.00000   0.00000   0.00341  -0.00307   0.00000  -0.00021   0.00011  -0.00034   0.11215   0.00000   0.00000 ...
  -0.00180   0.03120   0.00359   0.00000   0.00000  -0.00019   0.00000   0.00000   0.00000   0.00000   0.03877   0.01126 ...
  -0.00417   0.03788  -0.00314   0.00000   0.00000   0.00011   0.00000   0.00000   0.00000   0.00000   0.01126   0.09087 ...
   ...  only 12  components have been written...
 Atom #  9
   1.99353  -0.06502  -0.00046   0.00000   0.00000  -0.00112   0.00000   0.00000   0.00000   0.00000  -0.00643   0.00000 ...
  -0.06502   1.06994   0.00260   0.00000   0.00000  -0.02241   0.00000   0.00000   0.00000   0.00000   0.05281   0.00000 ...
  -0.00046   0.00260   1.96800   0.00000   0.00000  -0.19372   0.00000   0.00000   0.00000   0.00000  -0.00044   0.00000 ...
   0.00000   0.00000   0.00000   1.96599   0.00000   0.00000  -0.20680   0.00000   0.00000  -0.00419   0.00000   0.00000 ...
   0.00000   0.00000   0.00000   0.00000   1.96920   0.00000   0.00000  -0.18333  -0.00458   0.00000   0.00000   0.00000 ...
  -0.00112  -0.02241  -0.19372   0.00000   0.00000   1.68193   0.00000   0.00000   0.00000   0.00000   0.06582   0.00000 ...
   0.00000   0.00000   0.00000  -0.20680   0.00000   0.00000   1.88794   0.00000   0.00000   0.04168   0.00000   0.00000 ...
   0.00000   0.00000   0.00000   0.00000  -0.18333   0.00000   0.00000   1.55256   0.09915   0.00000   0.00000   0.00000 ...
   0.00000   0.00000   0.00000   0.00000  -0.00458   0.00000   0.00000   0.09915   0.51372   0.00000   0.00000   0.00000 ...
   0.00000   0.00000   0.00000  -0.00419   0.00000   0.00000   0.04168   0.00000   0.00000   0.52603   0.00000   0.00000 ...
  -0.00643   0.05281  -0.00044   0.00000   0.00000   0.06582   0.00000   0.00000   0.00000   0.00000   1.58887   0.00000 ...
   0.00000   0.00000   0.00000   0.00000   0.00000   0.00000   0.00000   0.00000   0.00000   0.00000   0.00000   0.52242 ...
   ...  only 12  components have been written...



---OUTPUT-----------------------------------------------------------------------

 Cartesian coordinates (xcart) [bohr]
  4.97290630181928E+00  5.14530970862295E+00  4.88827990356860E+00
  1.49187189054577E+01  1.53999843635634E+01  1.46648397107053E+01
  9.94581260365487E+00  1.01224050804906E+01  4.64065836918543E+00
  9.94581260362121E+00  1.01224050807379E+01  1.49124612450840E+01
  1.45297228047682E+01  1.03475319405000E+01  9.77655980706821E+00
  9.94581260365520E+00  1.56180567963897E+01  9.77655980721590E+00
  9.94581260362257E+00  5.17084272603707E+00  9.77655980706156E+00
  5.36190240250932E+00  1.03475319407170E+01  9.77655980720786E+00
 -7.39334486057096E-13 -2.36670396960806E-01 -3.49651533197135E-12
 Reduced coordinates (xred)
  2.50876301870000E-01  2.49123698130000E-01  2.50876301870000E-01
  7.50876301870000E-01  7.49123698130000E-01  7.50876301870000E-01
  2.30886724580000E-01  2.43785190770000E-01  7.56214809230000E-01
  7.56214809230000E-01  7.69113275420000E-01  2.30886724580000E-01
  2.74083331510000E-01  7.25916668490000E-01  7.34971786160000E-01
  7.61509132270000E-01  2.38490867730000E-01  7.61509132270000E-01
  2.52121247140000E-01  7.47878752860000E-01  2.52121247140000E-01
  7.34971786160000E-01  2.65028213840000E-01  2.74083331510000E-01
 -1.15396346020000E-02  1.15396346020000E-02 -1.15396346020000E-02
 Cartesian forces (fcart) [Ha/bohr]; max,rms= 2.70705E-03 1.09643E-03 (free atoms)
  1.04830117854127E-16  4.42829080467553E-06 -1.06676535954863E-16
  1.04830117854127E-16  4.42829080467553E-06 -1.06676535954863E-16
 -4.41713672329249E-14 -1.24055316226070E-04 -2.70705051336303E-03
  3.82992653134167E-14 -1.24055316306056E-04  2.70705051336900E-03
  1.92521921337209E-03 -1.56513824372331E-04  1.00764761837222E-14
  6.25187088190062E-14  2.64168708810986E-03 -6.36012665172140E-14
 -4.26557141230786E-14 -1.80238941100541E-03  4.33941617741471E-14
 -1.92521921337949E-03 -1.56513824360303E-04 -2.54006921870551E-15
 -6.79256456368781E-15 -2.87015977449041E-04  6.91013118942506E-15
 Reduced forces (fred)
 -4.54106814794114E-05  3.08826373599446E-19 -4.54106814794123E-05
 -4.54106814794114E-05  3.08826373599446E-19 -4.54106814794123E-05
  2.77377881523871E-02  2.64656412448629E-02  1.27214690752422E-03
 -2.51934943373387E-02 -2.64656412448629E-02  1.27214690752422E-03
  1.60499834787707E-03 -1.91478695171598E-02 -1.75428711692828E-02
 -2.70896416287236E-02  2.22377227496995E-18 -2.70896416287236E-02
  1.84829170113702E-02  1.21282208705759E-19  1.84829170113702E-02
  1.60499834787707E-03  1.91478695171598E-02  2.07528678650369E-02
  2.94325546950964E-03  2.63400808865254E-19  2.94325546950964E-03
 Scale of Primitive Cell (acell) [bohr]
  1.41682558540950E+01  1.39463367951750E+01  1.42855710638550E+01
 Real space primitive translations (rprimd) [bohr]
  0.00000000000000E+00  1.02546746551758E+01  9.77655980728816E+00
  9.94581260360642E+00  0.00000000000000E+00  9.77655980698517E+00
  9.94581260367049E+00  1.02546746547051E+01  0.00000000000000E+00
 Unitary Cell Volume (ucvol) [Bohr^3]=  1.99424363879848E+03
 Angles (23,13,12)= [degrees]
  6.02310223710537E+01  5.86977341096921E+01  6.10712435192542E+01
 Lengths [Bohr]
  1.41682558541617E+01  1.39463367952167E+01  1.42855710638805E+01
 Stress tensor in cartesian coordinates (strten) [Ha/bohr^3]
 -1.39479716763380E-04  1.39009458486432E-13  1.25266399541520E-13
  1.39009458486432E-13 -1.38395157089259E-04 -2.62908677398907E-13
  1.25266399541520E-13 -2.62908677398907E-13 -1.36970692781472E-04
 Total energy (etotal) [Ha]= -1.69289938405769E+02

--- Iteration: (   2/1000) Internal Cycle: (1/1)
--------------------------------------------------------------------------------

---SELF-CONSISTENT-FIELD CONVERGENCE--------------------------------------------

--- !BeginCycle
iteration_state: {dtset: 1, itime: 2, icycle: 1, }
solver: {iscf: 17, nstep: 2500, nline: 4, wfoptalg: 10, }
tolerances: {toldff: 1.00E-08, }
...

     iter   Etot(hartree)      deltaE(h)  residm     nres2    diffor    maxfor
 ETOT  1  -169.29005803525    -1.693E+02 4.996E-03 1.777E-02 1.687E-02 1.951E-02
 ETOT  2  -169.28997866929     7.937E-05 2.966E-04 3.820E-03 1.931E-02 8.553E-04
 ETOT  3  -169.28996898014     9.689E-06 1.679E-04 2.074E-04 3.286E-03 3.489E-03
 ETOT  4  -169.28996876983     2.103E-07 1.666E-04 3.732E-05 1.014E-03 2.476E-03
 ETOT  5  -169.28996880086    -3.103E-08 1.880E-05 1.204E-05 6.392E-05 2.443E-03
 ETOT  6  -169.28996884418    -4.332E-08 3.880E-05 1.675E-06 1.005E-04 2.360E-03
 ETOT  7  -169.28996886171    -1.754E-08 3.943E-06 3.984E-07 2.087E-05 2.351E-03
 ETOT  8  -169.28996887529    -1.357E-08 7.564E-06 2.618E-08 2.112E-05 2.335E-03
 ETOT  9  -169.28996887717    -1.888E-09 7.527E-07 8.030E-09 3.061E-06 2.337E-03
 ETOT 10  -169.28996887929    -2.114E-09 1.386E-06 1.394E-09 3.144E-06 2.334E-03
 ETOT 11  -169.28996887964    -3.568E-10 1.387E-07 5.630E-10 7.640E-07 2.335E-03
 ETOT 12  -169.28996888041    -7.656E-10 2.475E-07 2.091E-10 3.319E-07 2.335E-03
 ETOT 13  -169.28996888067    -2.622E-10 2.619E-08 3.445E-11 9.009E-08 2.335E-03
 ETOT 14  -169.28996888095    -2.729E-10 4.415E-08 1.193E-11 5.913E-08 2.335E-03
 ETOT 15  -169.28996888111    -1.662E-10 5.719E-09 5.693E-13 5.894E-08 2.335E-03
 ETOT 16  -169.28996888124    -1.296E-10 8.064E-09 1.899E-12 4.263E-08 2.335E-03
 ETOT 17  -169.28996888131    -7.361E-11 3.014E-09 1.227E-13 7.428E-09 2.335E-03
 ETOT 18  -169.28996888140    -9.052E-11 2.349E-09 1.495E-13 3.740E-09 2.335E-03

 At SCF step   18, forces are converged : 
  for the second time, max diff in force=  3.740E-09 < toldff=  1.000E-08

 Cartesian components of stress tensor (hartree/bohr^3)
  sigma(1 1)= -1.40293172E-04  sigma(3 2)= -2.62871813E-13
  sigma(2 2)= -1.39441940E-04  sigma(3 1)=  1.25240806E-13
  sigma(3 3)= -1.38339912E-04  sigma(2 1)=  1.38981272E-13


--- !ResultsGS
iteration_state: {dtset: 1, itime: 2, icycle: 1, }
comment   : Summary of ground state results
lattice_vectors:
- [  0.0000000,  10.2547095,   9.7761753, ]
- [  9.9461700,   0.0000000,   9.7761753, ]
- [  9.9461700,  10.2547095,   0.0000000, ]
lattice_lengths: [  14.16802,   13.94632,   14.28584, ]
lattice_angles: [ 60.229,  58.698,  61.073, ] # degrees, (23, 13, 12)
lattice_volume:   1.9942436E+03
convergence: {deltae: -9.052E-11, res2:  1.495E-13, residm:  2.349E-09, diffor:  3.740E-09, }
etotal    :  -1.69289969E+02
entropy   :   0.00000000E+00
fermie    :  -2.91747547E-03
cartesian_stress_tensor: # hartree/bohr^3
- [ -1.40293172E-04,   1.38981272E-13,   1.25240806E-13, ]
- [  1.38981272E-13,  -1.39441940E-04,  -2.62871813E-13, ]
- [  1.25240806E-13,  -2.62871813E-13,  -1.38339912E-04, ]
pressure_GPa:   4.1001E+00
xred      :
- [  2.5088E-01,   2.4912E-01,   2.5088E-01, Cs]
- [  7.5088E-01,   7.4912E-01,   7.5088E-01, Cs]
- [  2.3074E-01,   2.4365E-01,   7.5635E-01, Cl]
- [  7.5635E-01,   7.6926E-01,   2.3074E-01, Cl]
- [  2.7398E-01,   7.2602E-01,   7.3506E-01,  I]
- [  7.6164E-01,   2.3836E-01,   7.6164E-01, Cl]
- [  2.5203E-01,   7.4797E-01,   2.5203E-01,  I]
- [  7.3506E-01,   2.6494E-01,   2.7398E-01,  I]
- [ -1.1554E-02,   1.1554E-02,  -1.1554E-02, Zr]
cartesian_forces: # hartree/bohr
- [  1.02898523E-16,   4.34897903E-06,  -1.04724488E-16, ]
- [  1.02898523E-16,   4.34897903E-06,  -1.04724488E-16, ]
- [ -3.83035428E-14,  -1.15609609E-04,  -2.33503506E-03, ]
- [  3.28318020E-14,  -1.15609609E-04,   2.33503506E-03, ]
- [  1.68453883E-03,  -1.55899348E-04,   9.27349754E-15, ]
- [  5.43484034E-14,   2.29653892E-03,  -5.52932920E-14, ]
- [ -3.70051319E-14,  -1.56368612E-03,   3.76485514E-14, ]
- [ -1.68453883E-03,  -1.55899348E-04,  -1.76632056E-15, ]
- [ -4.69838566E-15,  -1.98532839E-04,   4.78005024E-15, ]
force_length_stats: {min:   4.34897903E-06, max:   2.33789528E-03, mean:   1.34741348E-03, }
...

 Integrated electronic density in atomic spheres:
 ------------------------------------------------
 Atom  Sphere_radius  Integrated_density
    1        2.20660          5.38016422
    2        2.20660          5.38016422
    3        1.80316          4.37243391
    4        1.80316          4.37243391
    5        2.30022          4.04622549
    6        1.80316          4.36080807
    7        2.30022          4.05505922
    8        2.30022          4.04622549
    9        2.21000          8.85836245

 PAW TEST:
 ==== Compensation charge inside spheres ============
 The following values must be close to each other ...
 Compensation charge over spherical meshes =     -5.651430753840832
 Compensation charge over fine fft grid    =     -5.651425686636275

 ==== Results concerning PAW augmentation regions ====

 Total pseudopotential strength Dij (hartree):
 Atom #  1
   0.41832  -0.13865   0.00000   0.00000   0.00000  -0.00000   0.00000   0.00000   0.00000   0.00000  -0.00000  -0.00000 ...
  -0.13865   0.04162  -0.00000   0.00000   0.00000   0.00000   0.00000   0.00000   0.00000   0.00000   0.00000   0.00000 ...
   0.00000  -0.00000  -0.09086   0.00000   0.00000  -0.16821   0.00000   0.00000   0.00000   0.00000   0.00000  -0.00000 ...
   0.00000   0.00000   0.00000  -0.09086   0.00000   0.00000  -0.16821   0.00000  -0.00000  -0.00000   0.00000   0.00000 ...
   0.00000   0.00000   0.00000   0.00000  -0.09086   0.00000   0.00000  -0.16822  -0.00000  -0.00000   0.00000   0.00000 ...
  -0.00000   0.00000  -0.16821   0.00000   0.00000   0.39742   0.00000   0.00000   0.00000   0.00000   0.00000   0.00000 ...
   0.00000   0.00000   0.00000  -0.16821   0.00000   0.00000   0.39742  -0.00001   0.00000   0.00000   0.00000   0.00000 ...
   0.00000   0.00000   0.00000   0.00000  -0.16822   0.00000  -0.00001   0.39743  -0.00000   0.00000   0.00000   0.00000 ...
   0.00000   0.00000   0.00000  -0.00000  -0.00000   0.00000   0.00000  -0.00000   0.00561  -0.00000   0.00000   0.00000 ...
   0.00000   0.00000   0.00000  -0.00000  -0.00000   0.00000   0.00000   0.00000  -0.00000   0.00561   0.00000   0.00000 ...
  -0.00000   0.00000   0.00000   0.00000   0.00000   0.00000   0.00000   0.00000   0.00000   0.00000   0.00561  -0.00000 ...
  -0.00000   0.00000  -0.00000   0.00000   0.00000   0.00000   0.00000   0.00000   0.00000   0.00000  -0.00000   0.00561 ...
   ...  only 12  components have been written...
 Atom #  9
   3.05497  -0.88934   0.00003   0.00000   0.00000   0.00000   0.00000   0.00000   0.00000   0.00000   0.00006   0.00000 ...
  -0.88934   0.26565  -0.00002   0.00000   0.00000   0.00000   0.00000   0.00000   0.00000   0.00000  -0.00000   0.00000 ...
   0.00003  -0.00002   0.27634   0.00000   0.00000  -0.05646   0.00000   0.00000   0.00000   0.00000   0.00006   0.00000 ...
   0.00000   0.00000   0.00000   0.27643   0.00000   0.00000  -0.05647   0.00000   0.00000  -0.00010   0.00000   0.00000 ...
   0.00000   0.00000   0.00000   0.00000   0.27626   0.00000   0.00000  -0.05645  -0.00010   0.00000   0.00000   0.00000 ...
   0.00000   0.00000  -0.05646   0.00000   0.00000   0.01539   0.00000   0.00000   0.00000   0.00000  -0.00001   0.00000 ...
   0.00000   0.00000   0.00000  -0.05647   0.00000   0.00000   0.01539   0.00000   0.00000   0.00002   0.00000   0.00000 ...
   0.00000   0.00000   0.00000   0.00000  -0.05645   0.00000   0.00000   0.01539   0.00002   0.00000   0.00000   0.00000 ...
   0.00000   0.00000   0.00000   0.00000  -0.00010   0.00000   0.00000   0.00002  -0.00604   0.00000   0.00000   0.00000 ...
   0.00000   0.00000   0.00000  -0.00010   0.00000   0.00000   0.00002   0.00000   0.00000  -0.00601   0.00000   0.00000 ...
   0.00006  -0.00000   0.00006   0.00000   0.00000  -0.00001   0.00000   0.00000   0.00000   0.00000  -0.00591   0.00000 ...
   0.00000   0.00000   0.00000   0.00000   0.00000   0.00000   0.00000   0.00000   0.00000   0.00000   0.00000  -0.00601 ...
   ...  only 12  components have been written...


 Augmentation waves occupancies Rhoij:
 Atom #  1
   1.99924  -0.01093   0.00005   0.00000   0.00000  -0.00000   0.00000   0.00000   0.00000   0.00000  -0.00181  -0.00419 ...
  -0.01093   0.22270   0.00025   0.00000   0.00000  -0.00006   0.00000   0.00000   0.00000   0.00000   0.03122   0.03792 ...
   0.00005   0.00025   2.00880   0.00000   0.00000  -0.00492   0.00000   0.00000   0.00000   0.00000   0.00359  -0.00313 ...
   0.00000   0.00000   0.00000   2.00975   0.00315   0.00000  -0.00517  -0.00050  -0.00290   0.00339   0.00000   0.00000 ...
   0.00000   0.00000   0.00000   0.00315   2.00689   0.00000  -0.00050  -0.00458  -0.00423  -0.00306   0.00000   0.00000 ...
  -0.00000  -0.00006  -0.00492   0.00000   0.00000   0.00017   0.00000   0.00000   0.00000   0.00000  -0.00019   0.00011 ...
   0.00000   0.00000   0.00000  -0.00517  -0.00050   0.00000   0.00020   0.00004   0.00010  -0.00021   0.00000   0.00000 ...
   0.00000   0.00000   0.00000  -0.00050  -0.00458   0.00000   0.00004   0.00014   0.00022   0.00011   0.00000   0.00000 ...
   0.00000   0.00000   0.00000  -0.00290  -0.00423   0.00000   0.00010   0.00022   0.03993  -0.00034   0.00000   0.00000 ...
   0.00000   0.00000   0.00000   0.00339  -0.00306   0.00000  -0.00021   0.00011  -0.00034   0.11219   0.00000   0.00000 ...
  -0.00181   0.03122   0.00359   0.00000   0.00000  -0.00019   0.00000   0.00000   0.00000   0.00000   0.03876   0.01127 ...
  -0.00419   0.03792  -0.00313   0.00000   0.00000   0.00011   0.00000   0.00000   0.00000   0.00000   0.01127   0.09087 ...
   ...  only 12  components have been written...
 Atom #  9
   1.99357  -0.06492  -0.00046   0.00000   0.00000  -0.00110   0.00000   0.00000   0.00000   0.00000  -0.00640   0.00000 ...
  -0.06492   1.07103   0.00262   0.00000   0.00000  -0.02314   0.00000   0.00000   0.00000   0.00000   0.05362   0.00000 ...
  -0.00046   0.00262   1.96808   0.00000   0.00000  -0.19330   0.00000   0.00000   0.00000   0.00000  -0.00042   0.00000 ...
   0.00000   0.00000   0.00000   1.96605   0.00000   0.00000  -0.20639   0.00000   0.00000  -0.00419   0.00000   0.00000 ...
   0.00000   0.00000   0.00000   0.00000   1.96928   0.00000   0.00000  -0.18289  -0.00458   0.00000   0.00000   0.00000 ...
  -0.00110  -0.02314  -0.19330   0.00000   0.00000   1.68560   0.00000   0.00000   0.00000   0.00000   0.06666   0.00000 ...
   0.00000   0.00000   0.00000  -0.20639   0.00000   0.00000   1.89389   0.00000   0.00000   0.04183   0.00000   0.00000 ...
   0.00000   0.00000   0.00000   0.00000  -0.18289   0.00000   0.00000   1.55464   0.09920   0.00000   0.00000   0.00000 ...
   0.00000   0.00000   0.00000   0.00000  -0.00458   0.00000   0.00000   0.09920   0.51471   0.00000   0.00000   0.00000 ...
   0.00000   0.00000   0.00000  -0.00419   0.00000   0.00000   0.04183   0.00000   0.00000   0.52776   0.00000   0.00000 ...
  -0.00640   0.05362  -0.00042   0.00000   0.00000   0.06666   0.00000   0.00000   0.00000   0.00000   1.59380   0.00000 ...
   0.00000   0.00000   0.00000   0.00000   0.00000   0.00000   0.00000   0.00000   0.00000   0.00000   0.00000   0.52380 ...
   ...  only 12  components have been written...



---OUTPUT-----------------------------------------------------------------------

 Cartesian coordinates (xcart) [bohr]
  4.97308500972974E+00  5.14533162851911E+00  4.88808762597301E+00
  1.49192550291891E+01  1.54000411444452E+01  1.46642628779185E+01
  9.94617001947579E+00  1.01223154360849E+01  4.63776888760314E+00
  9.94617001944211E+00  1.01223154363323E+01  1.49145816162839E+01
  1.45321702378131E+01  1.03474106027995E+01  9.77617525187700E+00
  9.94617001947613E+00  1.56207515863761E+01  9.77617525202477E+00
  9.94617001944347E+00  5.16905790888914E+00  9.77617525187035E+00
  5.36016980110621E+00  1.03474106030165E+01  9.77617525201671E+00
 -7.40197996603048E-13 -2.36958218480044E-01 -3.50079199785927E-12
 Reduced coordinates (xred)
  2.50876517785714E-01  2.49123482214286E-01  2.50876517785714E-01
  7.50876517785714E-01  7.49123482214286E-01  7.50876517785714E-01
  2.30742229894781E-01  2.43652793525259E-01  7.56347206474741E-01
  7.56347206474741E-01  7.69257770105219E-01  2.30742229894781E-01
  2.73978914754041E-01  7.26021085245959E-01  7.35060940235315E-01
  7.61637936311913E-01  2.38362063688087E-01  7.61637936311913E-01
  2.52033365784830E-01  7.47966634215170E-01  2.52033365784830E-01
  7.35060940235315E-01  2.64939059764685E-01  2.73978914754041E-01
 -1.15536289990485E-02  1.15536289990485E-02 -1.15536289990485E-02
 Cartesian forces (fcart) [Ha/bohr]; max,rms= 2.33504E-03 9.50908E-04 (free atoms)
  1.02898523235704E-16  4.34897903012674E-06 -1.04724487820181E-16
  1.02898523235704E-16  4.34897903012674E-06 -1.04724487820181E-16
 -3.83035428209584E-14 -1.15609608899396E-04 -2.33503506254328E-03
  3.28318019724992E-14 -1.15609608968392E-04  2.33503506254884E-03
  1.68453883196496E-03 -1.55899347771284E-04  9.27349754459728E-15
  5.43484033899536E-14  2.29653891902381E-03 -5.52932919515152E-14
 -3.70051318911947E-14 -1.56368612438936E-03  3.76485514030295E-14
 -1.68453883197234E-03 -1.55899347760760E-04 -1.76632055776320E-15
 -4.69838566201403E-15 -1.98532839294878E-04  4.78005024091452E-15
 Reduced forces (fred)
 -4.45975166448034E-05  3.58739234151656E-19 -4.45975166448033E-05
 -4.45975166448034E-05  3.58739234151656E-19 -4.45975166448033E-05
  2.40132549477547E-02  2.28277119908878E-02  1.18554295686689E-03
 -2.16421690340209E-02 -2.28277119908878E-02  1.18554295686689E-03
  1.59870252506289E-03 -1.67547096271417E-02 -1.51560071020788E-02
 -2.35503395066080E-02 -1.54803427707106E-18 -2.35503395066080E-02
  1.60351469796970E-02  4.96888963997093E-19  1.60351469796970E-02
  1.59870252506289E-03  1.67547096271417E-02  1.83534121522046E-02
  2.03589659634100E-03  3.33743670761970E-19  2.03589659634100E-03
 Scale of Primitive Cell (acell) [bohr]
  1.41680157333540E+01  1.39463221176461E+01  1.42858449280337E+01
 Real space primitive translations (rprimd) [bohr]
  0.00000000000000E+00  1.02547095161614E+01  9.77617525209699E+00
  9.94617001942733E+00  0.00000000000000E+00  9.77617525179399E+00
  9.94617001949140E+00  1.02547095156907E+01  0.00000000000000E+00
 Unitary Cell Volume (ucvol) [Bohr^3]=  1.99424363879848E+03
 Angles (23,13,12)= [degrees]
  6.02292606837584E+01  5.86975746670434E+01  6.10731646491982E+01
 Lengths [Bohr]
  1.41680157333540E+01  1.39463221176461E+01  1.42858449280337E+01
 Stress tensor in cartesian coordinates (strten) [Ha/bohr^3]
 -1.40293171818241E-04  1.38981271535240E-13  1.25240806232727E-13
  1.38981271535240E-13 -1.39441939887308E-04 -2.62871812976995E-13
  1.25240806232727E-13 -2.62871812976995E-13 -1.38339911512139E-04
 Total energy (etotal) [Ha]= -1.69289968881405E+02

 Difference of energy with previous step (new-old):
           Absolute (Ha)=-3.04756E-05
           Relative     =-1.80020E-07

--- Iteration: (   3/1000) Internal Cycle: (1/1)
--------------------------------------------------------------------------------

---SELF-CONSISTENT-FIELD CONVERGENCE--------------------------------------------

--- !BeginCycle
iteration_state: {dtset: 1, itime: 3, icycle: 1, }
solver: {iscf: 17, nstep: 2500, nline: 4, wfoptalg: 10, }
tolerances: {toldff: 1.00E-08, }
...

     iter   Etot(hartree)      deltaE(h)  residm     nres2    diffor    maxfor
 ETOT  1  -169.29384024138    -1.693E+02 1.070E-03 7.571E-01 1.100E-01 1.123E-01
 ETOT  2  -169.29050710686     3.333E-03 2.108E-04 1.680E-01 1.264E-01 1.467E-02
 ETOT  3  -169.29006716174     4.399E-04 5.043E-05 9.149E-03 2.135E-02 7.224E-03
 ETOT  4  -169.29005784751     9.314E-06 6.823E-06 1.526E-03 5.848E-03 1.376E-03
 ETOT  5  -169.29005838170    -5.342E-07 1.334E-06 5.082E-04 4.022E-04 9.741E-04
 ETOT  6  -169.29005919946    -8.178E-07 1.573E-06 7.785E-05 7.021E-04 3.492E-04
 ETOT  7  -169.29005948719    -2.877E-07 1.217E-07 1.801E-05 1.103E-04 3.548E-04
 ETOT  8  -169.29005967124    -1.840E-07 3.463E-07 1.204E-06 1.515E-04 3.726E-04
 ETOT  9  -169.29005968732    -1.607E-08 3.859E-08 3.690E-07 2.627E-05 3.666E-04
 ETOT 10  -169.29005970175    -1.443E-08 1.356E-07 6.496E-08 2.123E-05 3.632E-04
 ETOT 11  -169.29005970385    -2.095E-09 1.546E-08 2.613E-08 4.655E-06 3.648E-04
 ETOT 12  -169.29005970811    -4.263E-09 5.811E-08 9.964E-09 1.993E-06 3.644E-04
 ETOT 13  -169.29005970959    -1.483E-09 6.627E-09 1.327E-09 6.658E-07 3.641E-04
 ETOT 14  -169.29005971113    -1.535E-09 2.583E-08 6.325E-10 4.313E-07 3.637E-04
 ETOT 15  -169.29005971203    -9.040E-10 2.931E-09 2.361E-11 3.957E-07 3.640E-04
 ETOT 16  -169.29005971285    -8.235E-10 1.158E-08 1.410E-10 3.051E-07 3.639E-04
 ETOT 17  -169.29005971324    -3.821E-10 1.307E-09 9.038E-12 4.964E-08 3.639E-04
 ETOT 18  -169.29005971373    -4.926E-10 5.222E-09 6.313E-12 3.693E-08 3.639E-04
 ETOT 19  -169.29005971382    -9.331E-11 5.853E-10 2.308E-12 2.178E-08 3.639E-04
 ETOT 20  -169.29005971422    -3.944E-10 2.358E-09 6.342E-13 1.193E-08 3.639E-04
 ETOT 21  -169.29005971451    -2.974E-10 2.627E-10 2.253E-13 6.325E-09 3.639E-04
 ETOT 22  -169.29005971468    -1.679E-10 1.067E-09 5.136E-14 1.195E-08 3.639E-04
 ETOT 23  -169.29005971477    -9.055E-11 1.182E-10 2.832E-14 2.972E-09 3.639E-04
 ETOT 24  -169.29005971481    -3.575E-11 4.830E-10 1.331E-14 8.741E-10 3.639E-04

 At SCF step   24, forces are converged : 
  for the second time, max diff in force=  8.741E-10 < toldff=  1.000E-08

 Cartesian components of stress tensor (hartree/bohr^3)
  sigma(1 1)= -1.45761665E-04  sigma(3 2)= -2.62613642E-13
  sigma(2 2)= -1.46388028E-04  sigma(3 1)=  1.25078668E-13
  sigma(3 3)= -1.47411371E-04  sigma(2 1)=  1.38798965E-13


--- !ResultsGS
iteration_state: {dtset: 1, itime: 3, icycle: 1, }
comment   : Summary of ground state results
lattice_vectors:
- [  0.0000000,  10.2549030,   9.7739312, ]
- [  9.9482659,   0.0000000,   9.7739312, ]
- [  9.9482659,  10.2549030,   0.0000000, ]
lattice_lengths: [  14.16661,   13.94624,   14.28744, ]
lattice_angles: [ 60.219,  58.697,  61.084, ] # degrees, (23, 13, 12)
lattice_volume:   1.9942436E+03
convergence: {deltae: -3.575E-11, res2:  1.331E-14, residm:  4.830E-10, diffor:  8.741E-10, }
etotal    :  -1.69290060E+02
entropy   :   0.00000000E+00
fermie    :  -2.96295878E-03
cartesian_stress_tensor: # hartree/bohr^3
- [ -1.45761665E-04,   1.38798965E-13,   1.25078668E-13, ]
- [  1.38798965E-13,  -1.46388028E-04,  -2.62613642E-13, ]
- [  1.25078668E-13,  -2.62613642E-13,  -1.47411371E-04, ]
pressure_GPa:   4.3108E+00
xred      :
- [  2.5088E-01,   2.4912E-01,   2.5088E-01, Cs]
- [  7.5088E-01,   7.4912E-01,   7.5088E-01, Cs]
- [  2.2980E-01,   2.4280E-01,   7.5720E-01, Cl]
- [  7.5720E-01,   7.7020E-01,   2.2980E-01, Cl]
- [  2.7329E-01,   7.2671E-01,   7.3564E-01,  I]
- [  7.6248E-01,   2.3752E-01,   7.6248E-01, Cl]
- [  2.5146E-01,   7.4854E-01,   2.5146E-01,  I]
- [  7.3564E-01,   2.6436E-01,   2.7329E-01,  I]
- [ -1.1626E-02,   1.1626E-02,  -1.1626E-02, Zr]
cartesian_forces: # hartree/bohr
- [  1.24733225E-16,   5.27203126E-06,  -1.26960573E-16, ]
- [  1.24733566E-16,   5.27203126E-06,  -1.26960919E-16, ]
- [  6.24032917E-16,  -6.09434506E-05,   1.35641924E-04, ]
- [ -3.50786834E-15,  -6.09434506E-05,  -1.35641924E-04, ]
- [  8.52423318E-05,  -1.42457221E-04,   3.71001045E-15, ]
- [  3.46466836E-16,   1.46436387E-05,  -3.52648906E-16, ]
- [  4.19750919E-16,   1.77410924E-05,  -4.27240176E-16, ]
- [ -8.52423318E-05,  -1.42457221E-04,   3.15129376E-15, ]
- [  8.60922263E-15,   3.63872549E-04,  -8.76277773E-15, ]
force_length_stats: {min:   5.27203126E-06, max:   3.63872549E-04, mean:   1.15137227E-04, }
...

 Integrated electronic density in atomic spheres:
 ------------------------------------------------
 Atom  Sphere_radius  Integrated_density
    1        2.20660          5.38015722
    2        2.20660          5.38015722
    3        1.80316          4.37068615
    4        1.80316          4.37068615
    5        2.30022          4.04660676
    6        1.80316          4.36722256
    7        2.30022          4.04934845
    8        2.30022          4.04660676
    9        2.21000          8.86605676

 PAW TEST:
 ==== Compensation charge inside spheres ============
 The following values must be close to each other ...
 Compensation charge over spherical meshes =     -5.650884536895294
 Compensation charge over fine fft grid    =     -5.650874857008033

 ==== Results concerning PAW augmentation regions ====

 Total pseudopotential strength Dij (hartree):
 Atom #  1
   0.41836  -0.13866  -0.00000   0.00000   0.00000  -0.00000   0.00000   0.00000   0.00000   0.00000  -0.00000  -0.00000 ...
  -0.13866   0.04162  -0.00000   0.00000   0.00000   0.00000   0.00000   0.00000   0.00000   0.00000   0.00000   0.00000 ...
  -0.00000  -0.00000  -0.09086   0.00000   0.00000  -0.16821   0.00000   0.00000   0.00000   0.00000   0.00000  -0.00000 ...
   0.00000   0.00000   0.00000  -0.09086   0.00000   0.00000  -0.16821   0.00000  -0.00000  -0.00000   0.00000   0.00000 ...
   0.00000   0.00000   0.00000   0.00000  -0.09086   0.00000   0.00000  -0.16821  -0.00000  -0.00000   0.00000   0.00000 ...
  -0.00000   0.00000  -0.16821   0.00000   0.00000   0.39743   0.00000   0.00000   0.00000   0.00000   0.00000   0.00000 ...
   0.00000   0.00000   0.00000  -0.16821   0.00000   0.00000   0.39743  -0.00001   0.00000   0.00000   0.00000   0.00000 ...
   0.00000   0.00000   0.00000   0.00000  -0.16821   0.00000  -0.00001   0.39744  -0.00000   0.00000   0.00000   0.00000 ...
   0.00000   0.00000   0.00000  -0.00000  -0.00000   0.00000   0.00000  -0.00000   0.00561  -0.00000   0.00000   0.00000 ...
   0.00000   0.00000   0.00000  -0.00000  -0.00000   0.00000   0.00000   0.00000  -0.00000   0.00561   0.00000   0.00000 ...
  -0.00000   0.00000   0.00000   0.00000   0.00000   0.00000   0.00000   0.00000   0.00000   0.00000   0.00561  -0.00000 ...
  -0.00000   0.00000  -0.00000   0.00000   0.00000   0.00000   0.00000   0.00000   0.00000   0.00000  -0.00000   0.00561 ...
[...]
                       5.2177622427E+00  2.7163605211E+00  5.1251661261E+00
                       2.8180252173E+00  5.4290020391E+00  5.1251661262E+00
                      -3.9375682757E-13 -1.2605745448E-01 -1.8625083008E-12
           xangst10    2.6065888685E+00  2.6972614230E+00  2.5597486903E+00
                       7.8197666054E+00  8.0699641655E+00  7.6792460708E+00
                       5.2131777370E+00  5.3041159979E+00  2.4413168945E+00
                       5.2131777369E+00  5.3041159980E+00  7.7976778666E+00
                       7.6096693233E+00  5.4239243664E+00  5.1194973805E+00
                       5.2131777370E+00  8.1699915729E+00  5.1194973806E+00
                       5.2131777369E+00  2.7147447051E+00  5.1194973805E+00
                       2.8166861506E+00  5.4239243665E+00  5.1194973806E+00
                      -3.9467591097E-13 -1.2642065469E-01 -1.8683671528E-12
            xcart1     4.9710632456E+00  5.1427445895E+00  4.8903722599E+00
                       1.4913189737E+01  1.5396832125E+01  1.4671116780E+01
                       9.9421264911E+00  1.0119833376E+01  4.6213557868E+00
                       9.9421264911E+00  1.0119833376E+01  1.4940133253E+01
                       1.4537181534E+01  1.0342453771E+01  9.7807445197E+00
                       9.9421264911E+00  1.5641303791E+01  9.7807445198E+00
                       9.9421264911E+00  5.1595880400E+00  9.7807445196E+00
                       5.3470714478E+00  1.0342453771E+01  9.7807445198E+00
                      -7.2577575205E-13 -2.3234255484E-01 -3.4323740121E-12
            xcart2     4.9670316034E+00  5.1375841999E+00  4.8847660874E+00
                       1.4901094810E+01  1.5381134078E+01  1.4654298262E+01
                       9.9340632068E+00  1.0109559686E+01  4.6207171522E+00
                       9.9340632067E+00  1.0109559686E+01  1.4918347197E+01
                       1.4523271978E+01  1.0332936967E+01  9.7695321747E+00
                       9.9340632068E+00  1.5620481094E+01  9.7695321748E+00
                       9.9340632067E+00  5.1569023064E+00  9.7695321747E+00
                       5.3448544353E+00  1.0332936968E+01  9.7695321748E+00
                      -7.2706730678E-13 -2.3269595941E-01 -3.4375798252E-12
            xcart3     4.9624098299E+00  5.1330071587E+00  4.8794729292E+00
                       1.4887229490E+01  1.5366580370E+01  1.4638418787E+01
                       9.9248196598E+00  1.0100268664E+01  4.6199334237E+00
                       9.9248196598E+00  1.0100268665E+01  1.4897958293E+01
                       1.4507152564E+01  1.0323603829E+01  9.7589458583E+00
                       9.9248196598E+00  1.5600560492E+01  9.7589458584E+00
                       9.9248196598E+00  5.1539990719E+00  9.7589458583E+00
                       5.3424867556E+00  1.0323603829E+01  9.7589458584E+00
                      -7.2869478498E-13 -2.3330638888E-01 -3.4469060161E-12
            xcart4     4.9576299570E+00  5.1286404280E+00  4.8742650226E+00
                       1.4872889871E+01  1.5352384314E+01  1.4622795068E+01
                       9.9152599140E+00  1.0090976180E+01  4.6191295608E+00
                       9.9152599140E+00  1.0090976181E+01  1.4877930530E+01
                       1.4490438079E+01  1.0314529625E+01  9.7485300452E+00
                       9.9152599140E+00  1.5580852277E+01  9.7485300454E+00
                       9.9152599140E+00  5.1510512521E+00  9.7485300452E+00
                       5.3400817489E+00  1.0314529626E+01  9.7485300454E+00
                      -7.3206723434E-13 -2.3398879794E-01 -3.4543878631E-12
            xcart5     4.9530830230E+00  5.1245059710E+00  4.8689372667E+00
                       1.4859249069E+01  1.5338191661E+01  1.4606811800E+01
                       9.9061660461E+00  1.0081338886E+01  4.6182935687E+00
                       9.9061660460E+00  1.0081338886E+01  1.4857455498E+01
                       1.4474584673E+01  1.0305197808E+01  9.7378745333E+00
                       9.9061660461E+00  1.5560473419E+01  9.7378745335E+00
                       9.9061660461E+00  5.1480945178E+00  9.7378745333E+00
                       5.3377474187E+00  1.0305197808E+01  9.7378745335E+00
                      -7.3372216941E-13 -2.3485343730E-01 -3.4696991385E-12
            xcart6     4.9433173108E+00  5.1149434233E+00  4.8588583408E+00
                       1.4829951932E+01  1.5308688807E+01  1.4576575022E+01
                       9.8866346217E+00  1.0062649759E+01  4.6168010250E+00
                       9.8866346216E+00  1.0062649759E+01  1.4818632338E+01
                       1.4440543827E+01  1.0287192500E+01  9.7177166815E+00
                       9.8866346217E+00  1.5520521577E+01  9.7177166817E+00
                       9.8866346216E+00  5.1422003406E+00  9.7177166815E+00
                       5.3327254164E+00  1.0287192500E+01  9.7177166817E+00
                      -7.3747288261E-13 -2.3607559524E-01 -3.4876968672E-12
            xcart7     4.9388468924E+00  5.1109695619E+00  4.8534320123E+00
                       1.4816540677E+01  1.5294706065E+01  1.4560296037E+01
                       9.8776937847E+00  1.0053089431E+01  4.6158452930E+00
                       9.8776937847E+00  1.0053089431E+01  1.4797882756E+01
                       1.4425095389E+01  1.0277890886E+01  9.7068640245E+00
                       9.8776937847E+00  1.5500233701E+01  9.7068640246E+00
                       9.8776937847E+00  5.1390951484E+00  9.7068640245E+00
                       5.3302921805E+00  1.0277890886E+01  9.7068640246E+00
                      -7.4042035673E-13 -2.3707308386E-01 -3.5027176048E-12
            xcart8     4.9342873700E+00  5.1065288447E+00  4.8481377543E+00
                       1.4802862110E+01  1.5280163270E+01  1.4544413263E+01
                       9.8685747400E+00  1.0043595341E+01  4.6150536065E+00
                       9.8685747400E+00  1.0043595341E+01  1.4777497411E+01
                       1.4409346119E+01  1.0268476407E+01  9.6962755086E+00
                       9.8685747400E+00  1.5479975689E+01  9.6962755088E+00
                       9.8685747400E+00  5.1360438280E+00  9.6962755086E+00
                       5.3278033613E+00  1.0268476408E+01  9.6962755088E+00
                      -7.4266911415E-13 -2.3777972683E-01 -3.5131362954E-12
            xcart9     4.9300708326E+00  5.1017836753E+00  4.8425801820E+00
                       1.4790212498E+01  1.5265161692E+01  1.4527740546E+01
                       9.8601416652E+00  1.0033303328E+01  4.6142688027E+00
                       9.8601416652E+00  1.0033303328E+01  1.4756051925E+01
                       1.4394987434E+01  1.0259327029E+01  9.6851603639E+00
                       9.8601416652E+00  1.5459854657E+01  9.6851603640E+00
                       9.8601416652E+00  5.1331774630E+00  9.6851603639E+00
                       5.3252958963E+00  1.0259327029E+01  9.6851603640E+00
                      -7.4409256705E-13 -2.3821406597E-01 -3.5196306087E-12
            xcart10    4.9257391024E+00  5.0970853982E+00  4.8372239936E+00
                       1.4777217307E+01  1.5250022175E+01  1.4511671981E+01
                       9.8514782049E+00  1.0023326613E+01  4.6134203342E+00
                       9.8514782049E+00  1.0023326613E+01  1.4735475640E+01
                       1.4380190983E+01  1.0249731618E+01  9.6744479872E+00
                       9.8514782049E+00  1.5439046581E+01  9.6744479873E+00
                       9.8514782049E+00  5.1301240134E+00  9.6744479872E+00
                       5.3227654269E+00  1.0249731618E+01  9.6744479873E+00
                      -7.4582938298E-13 -2.3890041491E-01 -3.5307022344E-12
             xred1     2.5076558844E-01  2.4923441156E-01  2.5076558844E-01
                       7.5076558844E-01  7.4923441156E-01  7.5076558844E-01
                       2.2970127571E-01  2.4279402130E-01  7.5720597870E-01
                       7.5720597870E-01  7.7029872429E-01  2.2970127571E-01
                       2.7321867782E-01  7.2678132218E-01  7.3539898175E-01
                       7.6268628176E-01  2.3731371824E-01  7.6268628176E-01
                       2.5158689265E-01  7.4841310735E-01  2.5158689265E-01
                       7.3539898175E-01  2.6460101825E-01  2.7321867782E-01
                      -1.1329265234E-02  1.1329265234E-02 -1.1329265234E-02
             xred2     2.5077166905E-01  2.4922833095E-01  2.5077166905E-01
                       7.5077166905E-01  7.4922833095E-01  7.5077166905E-01
                       2.2994587880E-01  2.4302632392E-01  7.5697367608E-01
                       7.5697367608E-01  7.7005412120E-01  2.2994587880E-01
                       2.7337962192E-01  7.2662037808E-01  7.3534656092E-01
                       7.6245448502E-01  2.3754551498E-01  7.6245448502E-01
                       2.5171460908E-01  7.4828539092E-01  2.5171460908E-01
                       7.3534656092E-01  2.6465343908E-01  2.7337962192E-01
                      -1.1358169881E-02  1.1358169881E-02 -1.1358169881E-02
             xred3     2.5079251659E-01  2.4920748341E-01  2.5079251659E-01
                       7.5079251659E-01  7.4920748341E-01  7.5079251659E-01
                       2.3018938377E-01  2.4321558136E-01  7.5678441864E-01
                       7.5678441864E-01  7.6981061623E-01  2.3018938377E-01
                       2.7354658710E-01  7.2645341290E-01  7.3525098691E-01
                       7.6222450213E-01  2.3777549787E-01  7.6222450213E-01
                       2.5181815606E-01  7.4818184394E-01  2.5181815606E-01
                       7.3525098691E-01  2.6474901309E-01  2.7354658710E-01
                      -1.1399067758E-02  1.1399067758E-02 -1.1399067758E-02
             xred4     2.5082007557E-01  2.4917992443E-01  2.5082007557E-01
                       7.5082007557E-01  7.4917992443E-01  7.5082007557E-01
                       2.3042105130E-01  2.4340726326E-01  7.5659273674E-01
                       7.5659273674E-01  7.6957894870E-01  2.3042105130E-01
                       2.7372596541E-01  7.2627403459E-01  7.3515392643E-01
                       7.6199347576E-01  2.3800652424E-01  7.6199347576E-01
                       2.5191609403E-01  7.4808390597E-01  2.5191609403E-01
                       7.3515392643E-01  2.6484607357E-01  2.7372596541E-01
                      -1.1443400801E-02  1.1443400801E-02 -1.1443400801E-02
             xred5     2.5086467934E-01  2.4913532066E-01  2.5086467934E-01
                       7.5086467934E-01  7.4913532066E-01  7.5086467934E-01
                       2.3065157654E-01  2.4360936745E-01  7.5639063255E-01
                       7.5639063255E-01  7.6934842346E-01  2.3065157654E-01
                       2.7389527951E-01  7.2610472049E-01  7.3506447515E-01
                       7.6174624379E-01  2.3825375621E-01  7.6174624379E-01
                       2.5201943129E-01  7.4798056871E-01  2.5201943129E-01
                       7.3506447515E-01  2.6493552485E-01  2.7389527951E-01
                      -1.1496997481E-02  1.1496997481E-02 -1.1496997481E-02
             xred6     2.5088636368E-01  2.4911363632E-01  2.5088636368E-01
                       7.5088636368E-01  7.4911363632E-01  7.5088636368E-01
                       2.3111536723E-01  2.4397576541E-01  7.5602423459E-01
                       7.5602423459E-01  7.6888463277E-01  2.3111536723E-01
                       2.7427721484E-01  7.2572278516E-01  7.3488988837E-01
                       7.6127669432E-01  2.3872330568E-01  7.6127669432E-01
                       2.5222330689E-01  7.4777669311E-01  2.5222330689E-01
                       7.3488988837E-01  2.6511011163E-01  2.7427721484E-01
                      -1.1579433582E-02  1.1579433582E-02 -1.1579433582E-02
             xred7     2.5093783407E-01  2.4906216593E-01  2.5093783407E-01
                       7.5093783407E-01  7.4906216593E-01  7.5093783407E-01
                       2.3134742603E-01  2.4417641785E-01  7.5582358215E-01
                       7.5582358215E-01  7.6865257397E-01  2.3134742603E-01
                       2.7443739116E-01  7.2556260884E-01  7.3480817237E-01
                       7.6102880785E-01  2.3897119215E-01  7.6102880785E-01
                       2.5231874110E-01  7.4768125890E-01  2.5231874110E-01
                       7.3480817237E-01  2.6519182763E-01  2.7443739116E-01
                      -1.1639788784E-02  1.1639788784E-02 -1.1639788784E-02
             xred8     2.5096876059E-01  2.4903123941E-01  2.5096876059E-01
                       7.5096876059E-01  7.4903123941E-01  7.5096876059E-01
                       2.3158975347E-01  2.4437172291E-01  7.5562827709E-01
                       7.5562827709E-01  7.6841024653E-01  2.3158975347E-01
                       2.7459899829E-01  7.2540100171E-01  7.3472333219E-01
                       7.6078887064E-01  2.3921112936E-01  7.6078887064E-01
                       2.5241932300E-01  7.4758067700E-01  2.5241932300E-01
                       7.3472333219E-01  2.6527666781E-01  2.7459899829E-01
                      -1.1686075835E-02  1.1686075835E-02 -1.1686075835E-02
             xred9     2.5098858209E-01  2.4901141791E-01  2.5098858209E-01
                       7.5098858209E-01  7.4901141791E-01  7.5098858209E-01
                       2.3181415446E-01  2.4461252609E-01  7.5538747391E-01
                       7.5538747391E-01  7.6818584554E-01  2.3181415446E-01
                       2.7476188175E-01  7.2523811825E-01  7.3467877979E-01
                       7.6056674423E-01  2.3943325577E-01  7.6056674423E-01
                       2.5253303845E-01  7.4746696155E-01  2.5253303845E-01
                       7.3467877979E-01  2.6532122021E-01  2.7476188175E-01
                      -1.1719236733E-02  1.1719236733E-02 -1.1719236733E-02
             xred10    2.5101532248E-01  2.4898467752E-01  2.5101532248E-01
                       7.5101532248E-01  7.4898467752E-01  7.5101532248E-01
                       2.3205036915E-01  2.4481614978E-01  7.5518385022E-01
                       7.5518385022E-01  7.6794963085E-01  2.3205036915E-01
                       2.7491743606E-01  7.2508256394E-01  7.3461624305E-01
                       7.6032417615E-01  2.3967582385E-01  7.6032417615E-01
                       2.5264236970E-01  7.4735763030E-01  2.5264236970E-01
                       7.3461624305E-01  2.6538375695E-01  2.7491743606E-01
                      -1.1765089263E-02  1.1765089263E-02 -1.1765089263E-02
            znucl       55.00000   53.00000   40.00000   17.00000

================================================================================


- Timing analysis has been suppressed with timopt=0



================================================================================

 Suggested references for the acknowledgment of ABINIT usage.

 The users of ABINIT have little formal obligations with respect to the ABINIT group
 (those specified in the GNU General Public License, http://www.gnu.org/copyleft/gpl.txt).
 However, it is common practice in the scientific literature,
 to acknowledge the efforts of people that have made the research possible.
 In this spirit, please find below suggested citations of work written by ABINIT developers,
 corresponding to implementations inside of ABINIT that you have used in the present run.
 Note also that it will be of great value to readers of publications presenting these results,
 to read papers enabling them to understand the theoretical formalism and details
 of the ABINIT implementation.
 For information on why they are suggested, see also https://docs.abinit.org/theory/acknowledgments.
-
- [1] Implementation of the Projector Augmented-Wave Method in the ABINIT code.
- M. Torrent, F. Jollet, F. Bottin, G. Zerah, and X. Gonze Comput. Mat. Science 42, 337, (2008).
- Comment: PAW calculations. Strong suggestion to cite this paper.
- DOI and bibtex: see https://docs.abinit.org/theory/bibliography/#torrent2008
-
- [2] Libxc: A library of exchange and correlation functionals for density functional theory.
- M.A.L. Marques, M.J.T. Oliveira, T. Burnus, Computer Physics Communications 183, 2227 (2012).
- Comment: to be cited when LibXC is used (negative value of ixc)
- Strong suggestion to cite this paper.
- DOI and bibtex: see https://docs.abinit.org/theory/bibliography/#marques2012
-
- [3] The Abinit project: Impact, environment and recent developments.
- Computer Phys. Comm. 248, 107042 (2020).
- X.Gonze, B. Amadon, G. Antonius, F.Arnardi, L.Baguet, J.-M.Beuken,
- J.Bieder, F.Bottin, J.Bouchet, E.Bousquet, N.Brouwer, F.Bruneval,
- G.Brunin, T.Cavignac, J.-B. Charraud, Wei Chen, M.Cote, S.Cottenier,
- J.Denier, G.Geneste, Ph.Ghosez, M.Giantomassi, Y.Gillet, O.Gingras,
- D.R.Hamann, G.Hautier, Xu He, N.Helbig, N.Holzwarth, Y.Jia, F.Jollet,
- W.Lafargue-Dit-Hauret, K.Lejaeghere, M.A.L.Marques, A.Martin, C.Martins,
- H.P.C. Miranda, F.Naccarato, K. Persson, G.Petretto, V.Planes, Y.Pouillon,
- S.Prokhorenko, F.Ricci, G.-M.Rignanese, A.H.Romero, M.M.Schmitt, M.Torrent,
- M.J.van Setten, B.Van Troeye, M.J.Verstraete, G.Zerah and J.W.Zwanzig
- Comment: the fifth generic paper describing the ABINIT project.
- Note that a version of this paper, that is not formatted for Computer Phys. Comm. 
- is available at https://www.abinit.org/sites/default/files/ABINIT20.pdf .
- The licence allows the authors to put it on the Web.
- DOI and bibtex: see https://docs.abinit.org/theory/bibliography/#gonze2020
-
- [4] ABINIT: Overview, and focus on selected capabilities
- J. Chem. Phys. 152, 124102 (2020).
- A. Romero, D.C. Allan, B. Amadon, G. Antonius, T. Applencourt, L.Baguet,
- J.Bieder, F.Bottin, J.Bouchet, E.Bousquet, F.Bruneval,
- G.Brunin, D.Caliste, M.Cote,
- J.Denier, C. Dreyer, Ph.Ghosez, M.Giantomassi, Y.Gillet, O.Gingras,
- D.R.Hamann, G.Hautier, F.Jollet, G. Jomard,
- A.Martin, 
- H.P.C. Miranda, F.Naccarato, G.Petretto, N.A. Pike, V.Planes,
- S.Prokhorenko, T. Rangel, F.Ricci, G.-M.Rignanese, M.Royo, M.Stengel, M.Torrent,
- M.J.van Setten, B.Van Troeye, M.J.Verstraete, J.Wiktor, J.W.Zwanziger, and X.Gonze.
- Comment: a global overview of ABINIT, with focus on selected capabilities .
- Note that a version of this paper, that is not formatted for J. Chem. Phys 
- is available at https://www.abinit.org/sites/default/files/ABINIT20_JPC.pdf .
- The licence allows the authors to put it on the Web.
- DOI and bibtex: see https://docs.abinit.org/theory/bibliography/#romero2020
-
- [5] Recent developments in the ABINIT software package.
- Computer Phys. Comm. 205, 106 (2016).
- X.Gonze, F.Jollet, F.Abreu Araujo, D.Adams, B.Amadon, T.Applencourt,
- C.Audouze, J.-M.Beuken, J.Bieder, A.Bokhanchuk, E.Bousquet, F.Bruneval
- D.Caliste, M.Cote, F.Dahm, F.Da Pieve, M.Delaveau, M.Di Gennaro,
- B.Dorado, C.Espejo, G.Geneste, L.Genovese, A.Gerossier, M.Giantomassi,
- Y.Gillet, D.R.Hamann, L.He, G.Jomard, J.Laflamme Janssen, S.Le Roux,
- A.Levitt, A.Lherbier, F.Liu, I.Lukacevic, A.Martin, C.Martins,
- M.J.T.Oliveira, S.Ponce, Y.Pouillon, T.Rangel, G.-M.Rignanese,
- A.H.Romero, B.Rousseau, O.Rubel, A.A.Shukri, M.Stankovski, M.Torrent,
- M.J.Van Setten, B.Van Troeye, M.J.Verstraete, D.Waroquier, J.Wiktor,
- B.Xu, A.Zhou, J.W.Zwanziger.
- Comment: the fourth generic paper describing the ABINIT project.
- Note that a version of this paper, that is not formatted for Computer Phys. Comm. 
- is available at https://www.abinit.org/sites/default/files/ABINIT16.pdf .
- The licence allows the authors to put it on the Web.
- DOI and bibtex: see https://docs.abinit.org/theory/bibliography/#gonze2016
-
- Proc.   0 individual time (sec): cpu=      90562.7  wall=      91062.6

================================================================================

 Calculation completed.
.Delivered   0 WARNINGs and 209 COMMENTs to log file.
+Overall time at end (sec) : cpu=     362140.4  wall=     364250.6
