
.Version 9.2.2 of ABINIT 
.(MPI version, prepared for a x86_64_linux_gnu9.3 computer) 

.Copyright (C) 1998-2020 ABINIT group . 
 ABINIT comes with ABSOLUTELY NO WARRANTY.
 It is free software, and you are welcome to redistribute it
 under certain conditions (GNU General Public License,
 see ~abinit/COPYING or http://www.gnu.org/copyleft/gpl.txt).

 ABINIT is a project of the Universite Catholique de Louvain,
 Corning Inc. and other collaborators, see ~abinit/doc/developers/contributors.txt .
 Please read https://docs.abinit.org/theory/acknowledgments for suggested
 acknowledgments of the ABINIT effort.
 For more information, see https://www.abinit.org .

.Starting date : Sun 16 Jul 2023.
- ( at 11h00 )
  
- The starting date is more than 2 years after the initial release
- of this version of ABINIT, namely Nov 2020.
- Note that the use beyond 3 years after the release will not be supported.
- Action: please, switch to a more recent version of ABINIT.

- input  file    -> Cs2TiI6.in
- output file    -> Cs2TiI6.out
- root for input  files -> Cs2TiI6i
- root for output files -> Cs2TiI6o


 DATASET    1 : space group Fm -3 m (#225); Bravais cF (face-center cubic)
================================================================================
 Values of the parameters that define the memory need for DATASET  1.
     intxc =       0    ionmov =       0      iscf =      17    lmnmax =       8
     lnmax =       8     mgfft =      72  mpssoang =       4    mqgrid =    3001
     natom =       9  nloc_mem =       1    nspden =       1   nspinor =       1
    nsppol =       1      nsym =      48    n1xccc =    2501    ntypat =       3
    occopt =       1   xclevel =       2
-    mband =          42        mffmem =           1         mkmem =          12
       mpw =       13617          nfft =      373248          nkpt =          72
================================================================================
P This job should need less than                     236.934 Mbytes of memory.
  Rough estimation (10% accuracy) of disk space for files :
_ WF disk file :    628.325 Mbytes ; DEN or POT disk file :      2.850 Mbytes.
================================================================================


 DATASET    2 : space group Fm -3 m (#225); Bravais cF (face-center cubic)
================================================================================
 Values of the parameters that define the memory need for DATASET  2.
     intxc =       0    ionmov =       0      iscf =      17    lmnmax =       8
     lnmax =       8     mgfft =      72  mpssoang =       4    mqgrid =    3001
     natom =       9  nloc_mem =       1    nspden =       1   nspinor =       1
    nsppol =       1      nsym =      48    n1xccc =    2501    ntypat =       3
    occopt =       1   xclevel =       2
-    mband =          42        mffmem =           1         mkmem =          12
       mpw =       13593          nfft =      373248          nkpt =          72
================================================================================
P This job should need less than                     236.746 Mbytes of memory.
  Rough estimation (10% accuracy) of disk space for files :
_ WF disk file :    627.218 Mbytes ; DEN or POT disk file :      2.850 Mbytes.
================================================================================


 DATASET    3 : space group Fm -3 m (#225); Bravais cF (face-center cubic)
================================================================================
 Values of the parameters that define the memory need for DATASET  3.
     intxc =       0    ionmov =       0      iscf =      17    lmnmax =       8
     lnmax =       8     mgfft =      72  mpssoang =       4    mqgrid =    3001
     natom =       9  nloc_mem =       1    nspden =       1   nspinor =       1
    nsppol =       1      nsym =      48    n1xccc =    2501    ntypat =       3
    occopt =       1   xclevel =       2
-    mband =          42        mffmem =           1         mkmem =          12
       mpw =       13545          nfft =      373248          nkpt =          72
================================================================================
P This job should need less than                     236.370 Mbytes of memory.
  Rough estimation (10% accuracy) of disk space for files :
_ WF disk file :    625.003 Mbytes ; DEN or POT disk file :      2.850 Mbytes.
================================================================================


 DATASET    4 : space group Fm -3 m (#225); Bravais cF (face-center cubic)
================================================================================
 Values of the parameters that define the memory need for DATASET  4.
     intxc =       0    ionmov =       0      iscf =      17    lmnmax =       8
     lnmax =       8     mgfft =      72  mpssoang =       4    mqgrid =    3001
     natom =       9  nloc_mem =       1    nspden =       1   nspinor =       1
    nsppol =       1      nsym =      48    n1xccc =    2501    ntypat =       3
    occopt =       1   xclevel =       2
-    mband =          42        mffmem =           1         mkmem =          12
       mpw =       13499          nfft =      373248          nkpt =          72
================================================================================
P This job should need less than                     236.010 Mbytes of memory.
  Rough estimation (10% accuracy) of disk space for files :
_ WF disk file :    622.881 Mbytes ; DEN or POT disk file :      2.850 Mbytes.
================================================================================


 DATASET    5 : space group Fm -3 m (#225); Bravais cF (face-center cubic)
================================================================================
 Values of the parameters that define the memory need for DATASET  5.
     intxc =       0    ionmov =       0      iscf =      17    lmnmax =       8
     lnmax =       8     mgfft =      72  mpssoang =       4    mqgrid =    3001
     natom =       9  nloc_mem =       1    nspden =       1   nspinor =       1
    nsppol =       1      nsym =      48    n1xccc =    2501    ntypat =       3
    occopt =       1   xclevel =       2
-    mband =          42        mffmem =           1         mkmem =          12
       mpw =       13463          nfft =      373248          nkpt =          72
================================================================================
P This job should need less than                     235.728 Mbytes of memory.
  Rough estimation (10% accuracy) of disk space for files :
_ WF disk file :    621.220 Mbytes ; DEN or POT disk file :      2.850 Mbytes.
================================================================================


 DATASET    6 : space group Fm -3 m (#225); Bravais cF (face-center cubic)
================================================================================
 Values of the parameters that define the memory need for DATASET  6.
     intxc =       0    ionmov =       0      iscf =      17    lmnmax =       8
     lnmax =       8     mgfft =      72  mpssoang =       4    mqgrid =    3001
     natom =       9  nloc_mem =       1    nspden =       1   nspinor =       1
    nsppol =       1      nsym =      48    n1xccc =    2501    ntypat =       3
    occopt =       1   xclevel =       2
-    mband =          42        mffmem =           1         mkmem =          12
       mpw =       13428          nfft =      373248          nkpt =          72
================================================================================
P This job should need less than                     235.454 Mbytes of memory.
  Rough estimation (10% accuracy) of disk space for files :
_ WF disk file :    619.605 Mbytes ; DEN or POT disk file :      2.850 Mbytes.
================================================================================


 DATASET    7 : space group Fm -3 m (#225); Bravais cF (face-center cubic)
================================================================================
 Values of the parameters that define the memory need for DATASET  7.
     intxc =       0    ionmov =       0      iscf =      17    lmnmax =       8
     lnmax =       8     mgfft =      72  mpssoang =       4    mqgrid =    3001
     natom =       9  nloc_mem =       1    nspden =       1   nspinor =       1
    nsppol =       1      nsym =      48    n1xccc =    2501    ntypat =       3
    occopt =       1   xclevel =       2
-    mband =          42        mffmem =           1         mkmem =          12
       mpw =       13389          nfft =      373248          nkpt =          72
================================================================================
P This job should need less than                     235.149 Mbytes of memory.
  Rough estimation (10% accuracy) of disk space for files :
_ WF disk file :    617.805 Mbytes ; DEN or POT disk file :      2.850 Mbytes.
================================================================================


 DATASET    8 : space group Fm -3 m (#225); Bravais cF (face-center cubic)
================================================================================
 Values of the parameters that define the memory need for DATASET  8.
     intxc =       0    ionmov =       0      iscf =      17    lmnmax =       8
     lnmax =       8     mgfft =      72  mpssoang =       4    mqgrid =    3001
     natom =       9  nloc_mem =       1    nspden =       1   nspinor =       1
    nsppol =       1      nsym =      48    n1xccc =    2501    ntypat =       3
    occopt =       1   xclevel =       2
-    mband =          42        mffmem =           1         mkmem =          12
       mpw =       13365          nfft =      373248          nkpt =          72
================================================================================
P This job should need less than                     234.961 Mbytes of memory.
  Rough estimation (10% accuracy) of disk space for files :
_ WF disk file :    616.698 Mbytes ; DEN or POT disk file :      2.850 Mbytes.
================================================================================


 DATASET    9 : space group Fm -3 m (#225); Bravais cF (face-center cubic)
================================================================================
 Values of the parameters that define the memory need for DATASET  9.
     intxc =       0    ionmov =       0      iscf =      17    lmnmax =       8
     lnmax =       8     mgfft =      72  mpssoang =       4    mqgrid =    3001
     natom =       9  nloc_mem =       1    nspden =       1   nspinor =       1
    nsppol =       1      nsym =      48    n1xccc =    2501    ntypat =       3
    occopt =       1   xclevel =       2
-    mband =          42        mffmem =           1         mkmem =          12
       mpw =       13308          nfft =      373248          nkpt =          72
================================================================================
P This job should need less than                     234.515 Mbytes of memory.
  Rough estimation (10% accuracy) of disk space for files :
_ WF disk file :    614.067 Mbytes ; DEN or POT disk file :      2.850 Mbytes.
================================================================================

--------------------------------------------------------------------------------
------------- Echo of variables that govern the present computation ------------
--------------------------------------------------------------------------------
-
- outvars: echo of selected default values                                      
-   iomode0 =  0 , fftalg0 =112 , wfoptalg0 =  0
-
- outvars: echo of global parameters not present in the input file              
-  max_nthreads =    0
-
 -outvars: echo values of preprocessed input variables --------
            acell1     1.5066878342E+01  1.5066878342E+01  1.5066878342E+01 Bohr
            acell2     1.5050832678E+01  1.5050832678E+01  1.5050832678E+01 Bohr
            acell3     1.5034787014E+01  1.5034787014E+01  1.5034787014E+01 Bohr
            acell4     1.5018741350E+01  1.5018741350E+01  1.5018741350E+01 Bohr
            acell5     1.5002695687E+01  1.5002695687E+01  1.5002695687E+01 Bohr
            acell6     1.4986650023E+01  1.4986650023E+01  1.4986650023E+01 Bohr
            acell7     1.4970604359E+01  1.4970604359E+01  1.4970604359E+01 Bohr
            acell8     1.4954558695E+01  1.4954558695E+01  1.4954558695E+01 Bohr
            acell9     1.4938513031E+01  1.4938513031E+01  1.4938513031E+01 Bohr
              amu      1.32905430E+02  1.26904470E+02  1.78490000E+02
           diemac      1.20000000E+01
             ecut      2.40000000E+01 Hartree
-          fftalg         112
           getden1          0
           getden2         -1
           getden3         -1
           getden4         -1
           getden5         -1
           getden6         -1
           getden7         -1
           getden8         -1
           getden9         -1
             iscf          17
           istwfk        2    0    0    0    0    0    3    0    0    0
                         0    0    0    0    0    0    0    0    0    0
                         0    0    0    0    0    0    0    0    0    0
                         0    0    0    0    0    0    0    0    0    0
                         0    0    7    0    0    0    0    0    0    0
                       outvar_i_n : Printing only first  50 k-points.
              ixc          32
           jdtset        1    2    3    4    5    6    7    8    9
              kpt      0.00000000E+00  0.00000000E+00  0.00000000E+00
                       8.33333333E-02  0.00000000E+00  0.00000000E+00
                       1.66666667E-01  0.00000000E+00  0.00000000E+00
                       2.50000000E-01  0.00000000E+00  0.00000000E+00
                       3.33333333E-01  0.00000000E+00  0.00000000E+00
                       4.16666667E-01  0.00000000E+00  0.00000000E+00
                       5.00000000E-01  0.00000000E+00  0.00000000E+00
                       8.33333333E-02  8.33333333E-02  0.00000000E+00
                       1.66666667E-01  8.33333333E-02  0.00000000E+00
                       2.50000000E-01  8.33333333E-02  0.00000000E+00
                       3.33333333E-01  8.33333333E-02  0.00000000E+00
                       4.16666667E-01  8.33333333E-02  0.00000000E+00
                       5.00000000E-01  8.33333333E-02  0.00000000E+00
                      -4.16666667E-01  8.33333333E-02  0.00000000E+00
                      -3.33333333E-01  8.33333333E-02  0.00000000E+00
                      -2.50000000E-01  8.33333333E-02  0.00000000E+00
                      -1.66666667E-01  8.33333333E-02  0.00000000E+00
                      -8.33333333E-02  8.33333333E-02  0.00000000E+00
                       1.66666667E-01  1.66666667E-01  0.00000000E+00
                       2.50000000E-01  1.66666667E-01  0.00000000E+00
                       3.33333333E-01  1.66666667E-01  0.00000000E+00
                       4.16666667E-01  1.66666667E-01  0.00000000E+00
                       5.00000000E-01  1.66666667E-01  0.00000000E+00
                      -4.16666667E-01  1.66666667E-01  0.00000000E+00
                      -3.33333333E-01  1.66666667E-01  0.00000000E+00
                      -2.50000000E-01  1.66666667E-01  0.00000000E+00
                      -1.66666667E-01  1.66666667E-01  0.00000000E+00
                       2.50000000E-01  2.50000000E-01  0.00000000E+00
                       3.33333333E-01  2.50000000E-01  0.00000000E+00
                       4.16666667E-01  2.50000000E-01  0.00000000E+00
                       5.00000000E-01  2.50000000E-01  0.00000000E+00
                      -4.16666667E-01  2.50000000E-01  0.00000000E+00
                      -3.33333333E-01  2.50000000E-01  0.00000000E+00
                      -2.50000000E-01  2.50000000E-01  0.00000000E+00
                       3.33333333E-01  3.33333333E-01  0.00000000E+00
                       4.16666667E-01  3.33333333E-01  0.00000000E+00
                       5.00000000E-01  3.33333333E-01  0.00000000E+00
                      -4.16666667E-01  3.33333333E-01  0.00000000E+00
                      -3.33333333E-01  3.33333333E-01  0.00000000E+00
                       4.16666667E-01  4.16666667E-01  0.00000000E+00
                       5.00000000E-01  4.16666667E-01  0.00000000E+00
                      -4.16666667E-01  4.16666667E-01  0.00000000E+00
                       5.00000000E-01  5.00000000E-01  0.00000000E+00
                       2.50000000E-01  1.66666667E-01  8.33333333E-02
                       3.33333333E-01  1.66666667E-01  8.33333333E-02
                       4.16666667E-01  1.66666667E-01  8.33333333E-02
                       5.00000000E-01  1.66666667E-01  8.33333333E-02
                      -4.16666667E-01  1.66666667E-01  8.33333333E-02
                       3.33333333E-01  2.50000000E-01  8.33333333E-02
                       4.16666667E-01  2.50000000E-01  8.33333333E-02
                       outvar_i_n : Printing only first  50 k-points.
         kptrlatt       12    0    0      0   12    0      0    0   12
          kptrlen1     1.80802540E+02
          kptrlen2     1.80609992E+02
          kptrlen3     1.80417444E+02
          kptrlen4     1.80224896E+02
          kptrlen5     1.80032348E+02
          kptrlen6     1.79839800E+02
          kptrlen7     1.79647252E+02
          kptrlen8     1.79454704E+02
          kptrlen9     1.79262156E+02
P           mkmem          12
            natom           9
            nband          42
           ndtset           9
            ngfft          72      72      72
             nkpt          72
            nstep        2500
             nsym          48
           ntypat           3
              occ      2.000000  2.000000  2.000000  2.000000  2.000000  2.000000
                       2.000000  2.000000  2.000000  2.000000  2.000000  2.000000
                       2.000000  2.000000  2.000000  2.000000  2.000000  2.000000
                       2.000000  2.000000  2.000000  2.000000  2.000000  2.000000
                       2.000000  2.000000  2.000000  2.000000  2.000000  2.000000
                       2.000000  2.000000  2.000000  2.000000  2.000000  2.000000
                       0.000000  0.000000  0.000000  0.000000  0.000000  0.000000
            prtwf           0
            rprim      0.0000000000E+00  7.0710678119E-01  7.0710678119E-01
                       7.0710678119E-01  0.0000000000E+00  7.0710678119E-01
                       7.0710678119E-01  7.0710678119E-01  0.0000000000E+00
          spgroup         225
           symrel      1  0  0   0  1  0   0  0  1      -1  0  0   0 -1  0   0  0 -1
                       0 -1  1   0 -1  0   1 -1  0       0  1 -1   0  1  0  -1  1  0
                      -1  0  0  -1  0  1  -1  1  0       1  0  0   1  0 -1   1 -1  0
                       0  1 -1   1  0 -1   0  0 -1       0 -1  1  -1  0  1   0  0  1
                      -1  0  0  -1  1  0  -1  0  1       1  0  0   1 -1  0   1  0 -1
                       0 -1  1   1 -1  0   0 -1  0       0  1 -1  -1  1  0   0  1  0
                       1  0  0   0  0  1   0  1  0      -1  0  0   0  0 -1   0 -1  0
                       0  1 -1   0  0 -1   1  0 -1       0 -1  1   0  0  1  -1  0  1
                      -1  0  1  -1  1  0  -1  0  0       1  0 -1   1 -1  0   1  0  0
                       0 -1  0   1 -1  0   0 -1  1       0  1  0  -1  1  0   0  1 -1
                       1  0 -1   0  0 -1   0  1 -1      -1  0  1   0  0  1   0 -1  1
                       0  1  0   0  0  1   1  0  0       0 -1  0   0  0 -1  -1  0  0
                       1  0 -1   0  1 -1   0  0 -1      -1  0  1   0 -1  1   0  0  1
                       0 -1  0   0 -1  1   1 -1  0       0  1  0   0  1 -1  -1  1  0
                      -1  0  1  -1  0  0  -1  1  0       1  0 -1   1  0  0   1 -1  0
                       0  1  0   1  0  0   0  0  1       0 -1  0  -1  0  0   0  0 -1
                       0  0 -1   0  1 -1   1  0 -1       0  0  1   0 -1  1  -1  0  1
                       1 -1  0   0 -1  1   0 -1  0      -1  1  0   0  1 -1   0  1  0
                       0  0  1   1  0  0   0  1  0       0  0 -1  -1  0  0   0 -1  0
                      -1  1  0  -1  0  0  -1  0  1       1 -1  0   1  0  0   1  0 -1
                       0  0  1   0  1  0   1  0  0       0  0 -1   0 -1  0  -1  0  0
                       1 -1  0   0 -1  0   0 -1  1      -1  1  0   0  1  0   0  1 -1
                       0  0 -1   1  0 -1   0  1 -1       0  0  1  -1  0  1   0 -1  1
                      -1  1  0  -1  0  1  -1  0  0       1 -1  0   1  0 -1   1  0  0
           toldfe      1.00000000E-08 Hartree
            typat      1  1  2  2  2  2  2  2  3
              wtk        0.00058    0.00463    0.00463    0.00463    0.00463    0.00463
                         0.00231    0.00347    0.01389    0.01389    0.01389    0.01389
                         0.01389    0.01389    0.01389    0.01389    0.01389    0.00694
                         0.00347    0.01389    0.01389    0.01389    0.01389    0.01389
                         0.01389    0.01389    0.00694    0.00347    0.01389    0.01389
                         0.01389    0.01389    0.01389    0.00694    0.00347    0.01389
                         0.01389    0.01389    0.00694    0.00347    0.01389    0.00694
                         0.00174    0.01389    0.02778    0.02778    0.02778    0.01389
                         0.01389    0.02778
                       outvars : Printing only first  50 k-points.
           xangst1     2.8188983741E+00  2.8188983741E+00  2.8188983741E+00
                       8.4566951223E+00  8.4566951223E+00  8.4566951223E+00
                       5.6377967482E+00  8.4486977394E+00  5.6377967482E+00
                       5.6377967482E+00  5.6377967482E+00  2.8268957570E+00
                       5.6377967482E+00  5.6377967482E+00  8.4486977394E+00
                       5.6377967482E+00  2.8268957570E+00  5.6377967482E+00
                       8.4486977394E+00  5.6377967482E+00  5.6377967482E+00
                       2.8268957570E+00  5.6377967482E+00  5.6377967482E+00
                       3.1111688741E-20 -7.0625688802E-20  1.1015449763E-19
           xangst2     2.8158963524E+00  2.8158963524E+00  2.8158963524E+00
                       8.4476890572E+00  8.4476890572E+00  8.4476890572E+00
                       5.6317927048E+00  8.4376477830E+00  5.6317927048E+00
                       5.6317927048E+00  5.6317927048E+00  2.8259376266E+00
                       5.6317927048E+00  5.6317927048E+00  8.4376477830E+00
                       5.6317927048E+00  2.8259376266E+00  5.6317927048E+00
                       8.4376477830E+00  5.6317927048E+00  5.6317927048E+00
                       2.8259376266E+00  5.6317927048E+00  5.6317927048E+00
                      -5.0926430334E-20 -1.5280620499E-19  5.6301483334E-20
           xangst3     2.8128943307E+00  2.8128943307E+00  2.8128943307E+00
                       8.4386829921E+00  8.4386829921E+00  8.4386829921E+00
                       5.6257886614E+00  8.4266164865E+00  5.6257886614E+00
                       5.6257886614E+00  5.6257886614E+00  2.8249608364E+00
                       5.6257886614E+00  5.6257886614E+00  8.4266164865E+00
                       5.6257886614E+00  2.8249608364E+00  5.6257886614E+00
                       8.4266164865E+00  5.6257886614E+00  5.6257886614E+00
                       2.8249608364E+00  5.6257886614E+00  5.6257886614E+00
                      -1.4558597549E-20 -9.1838727196E-20  1.2781622979E-19
           xangst4     2.8098923090E+00  2.8098923090E+00  2.8098923090E+00
                       8.4296769270E+00  8.4296769270E+00  8.4296769270E+00
                       5.6197846180E+00  8.4155725429E+00  5.6197846180E+00
                       5.6197846180E+00  5.6197846180E+00  2.8239966932E+00
                       5.6197846180E+00  5.6197846180E+00  8.4155725429E+00
                       5.6197846180E+00  2.8239966932E+00  5.6197846180E+00
                       8.4155725429E+00  5.6197846180E+00  5.6197846180E+00
                       2.8239966932E+00  5.6197846180E+00  5.6197846180E+00
                      -1.9288322405E-19 -1.8144310160E-19  8.0933586615E-20
           xangst5     2.8068902873E+00  2.8068902873E+00  2.8068902873E+00
                       8.4206708619E+00  8.4206708619E+00  8.4206708619E+00
                       5.6137805746E+00  8.4045721364E+00  5.6137805746E+00
                       5.6137805746E+00  5.6137805746E+00  2.8229890129E+00
                       5.6137805746E+00  5.6137805746E+00  8.4045721364E+00
                       5.6137805746E+00  2.8229890129E+00  5.6137805746E+00
                       8.4045721364E+00  5.6137805746E+00  5.6137805746E+00
                       2.8229890129E+00  5.6137805746E+00  5.6137805746E+00
                       4.3980279606E-19  1.2844076240E-19 -1.3366967805E-19
           xangst6     2.8038882656E+00  2.8038882656E+00  2.8038882656E+00
                       8.4116647969E+00  8.4116647969E+00  8.4116647969E+00
                       5.6077765312E+00  8.3935933403E+00  5.6077765312E+00
                       5.6077765312E+00  5.6077765312E+00  2.8219597222E+00
                       5.6077765312E+00  5.6077765312E+00  8.3935933403E+00
                       5.6077765312E+00  2.8219597222E+00  5.6077765312E+00
                       8.3935933403E+00  5.6077765312E+00  5.6077765312E+00
                       2.8219597222E+00  5.6077765312E+00  5.6077765312E+00
                       2.2067474921E-19  3.5960309380E-19  2.5322569555E-19
           xangst7     2.8008862439E+00  2.8008862439E+00  2.8008862439E+00
                       8.4026587318E+00  8.4026587318E+00  8.4026587318E+00
                       5.6017724878E+00  8.3826388763E+00  5.6017724878E+00
                       5.6017724878E+00  5.6017724878E+00  2.8209060994E+00
                       5.6017724878E+00  5.6017724878E+00  8.3826388763E+00
                       5.6017724878E+00  2.8209060994E+00  5.6017724878E+00
                       8.3826388763E+00  5.6017724878E+00  5.6017724878E+00
                       2.8209060994E+00  5.6017724878E+00  5.6017724878E+00
                       8.2498396650E-20  1.1575802509E-21 -8.1872582400E-21
           xangst8     2.7978842222E+00  2.7978842222E+00  2.7978842222E+00
                       8.3936526667E+00  8.3936526667E+00  8.3936526667E+00
                       5.5957684444E+00  8.3716863178E+00  5.5957684444E+00
                       5.5957684444E+00  5.5957684444E+00  2.8198505711E+00
                       5.5957684444E+00  5.5957684444E+00  8.3716863178E+00
                       5.5957684444E+00  2.8198505711E+00  5.5957684444E+00
                       8.3716863178E+00  5.5957684444E+00  5.5957684444E+00
                       2.8198505711E+00  5.5957684444E+00  5.5957684444E+00
                       6.5902054095E-21 -1.5703624515E-20  9.4440606758E-20
           xangst9     2.7948822005E+00  2.7948822005E+00  2.7948822005E+00
                       8.3846466016E+00  8.3846466016E+00  8.3846466016E+00
                       5.5897644011E+00  8.3607490407E+00  5.5897644011E+00
                       5.5897644011E+00  5.5897644011E+00  2.8187797614E+00
                       5.5897644011E+00  5.5897644011E+00  8.3607490407E+00
                       5.5897644011E+00  2.8187797614E+00  5.5897644011E+00
                       8.3607490407E+00  5.5897644011E+00  5.5897644011E+00
                       2.8187797614E+00  5.5897644011E+00  5.5897644011E+00
                      -3.7618236706E-20  6.1620327705E-20 -2.3749034704E-20
            xcart1     5.3269459235E+00  5.3269459235E+00  5.3269459235E+00
                       1.5980837770E+01  1.5980837770E+01  1.5980837770E+01
                       1.0653891847E+01  1.5965724907E+01  1.0653891847E+01
                       1.0653891847E+01  1.0653891847E+01  5.3420587870E+00
                       1.0653891847E+01  1.0653891847E+01  1.5965724907E+01
                       1.0653891847E+01  5.3420587870E+00  1.0653891847E+01
                       1.5965724907E+01  1.0653891847E+01  1.0653891847E+01
                       5.3420587870E+00  1.0653891847E+01  1.0653891847E+01
                       5.8792571253E-20 -1.3346320978E-19  2.0816183282E-19
            xcart2     5.3212729246E+00  5.3212729246E+00  5.3212729246E+00
                       1.5963818774E+01  1.5963818774E+01  1.5963818774E+01
                       1.0642545849E+01  1.5944843516E+01  1.0642545849E+01
                       1.0642545849E+01  1.0642545849E+01  5.3402481829E+00
                       1.0642545849E+01  1.0642545849E+01  1.5944843516E+01
                       1.0642545849E+01  5.3402481829E+00  1.0642545849E+01
                       1.5944843516E+01  1.0642545849E+01  1.0642545849E+01
                       5.3402481829E+00  1.0642545849E+01  1.0642545849E+01
                      -9.6237006257E-20 -2.8876187883E-19  1.0639438438E-19
            xcart3     5.3155999258E+00  5.3155999258E+00  5.3155999258E+00
                       1.5946799777E+01  1.5946799777E+01  1.5946799777E+01
                       1.0631199852E+01  1.5923997386E+01  1.0631199852E+01
                       1.0631199852E+01  1.0631199852E+01  5.3384023169E+00
                       1.0631199852E+01  1.0631199852E+01  1.5923997386E+01
                       1.0631199852E+01  5.3384023169E+00  1.0631199852E+01
                       1.5923997386E+01  1.0631199852E+01  1.0631199852E+01
                       5.3384023169E+00  1.0631199852E+01  1.0631199852E+01
                      -2.7511762247E-20 -1.7355004279E-19  2.4153766963E-19
            xcart4     5.3099269269E+00  5.3099269269E+00  5.3099269269E+00
                       1.5929780781E+01  1.5929780781E+01  1.5929780781E+01
                       1.0619853854E+01  1.5903127357E+01  1.0619853854E+01
                       1.0619853854E+01  1.0619853854E+01  5.3365803503E+00
                       1.0619853854E+01  1.0619853854E+01  1.5903127357E+01
                       1.0619853854E+01  5.3365803503E+00  1.0619853854E+01
                       1.5903127357E+01  1.0619853854E+01  1.0619853854E+01
                       5.3365803503E+00  1.0619853854E+01  1.0619853854E+01
                      -3.6449646909E-19 -3.4287777072E-19  1.5294231365E-19
            xcart5     5.3042539281E+00  5.3042539281E+00  5.3042539281E+00
                       1.5912761784E+01  1.5912761784E+01  1.5912761784E+01
                       1.0608507856E+01  1.5882339602E+01  1.0608507856E+01
                       1.0608507856E+01  1.0608507856E+01  5.3346761105E+00
                       1.0608507856E+01  1.0608507856E+01  1.5882339602E+01
                       1.0608507856E+01  5.3346761105E+00  1.0608507856E+01
                       1.5882339602E+01  1.0608507856E+01  1.0608507856E+01
                       5.3346761105E+00  1.0608507856E+01  1.0608507856E+01
                       8.3110683702E-19  2.4271786523E-19 -2.5259908379E-19
            xcart6     5.2985809292E+00  5.2985809292E+00  5.2985809292E+00
                       1.5895742788E+01  1.5895742788E+01  1.5895742788E+01
                       1.0597161858E+01  1.5861592684E+01  1.0597161858E+01
                       1.0597161858E+01  1.0597161858E+01  5.3327310330E+00
                       1.0597161858E+01  1.0597161858E+01  1.5861592684E+01
                       1.0597161858E+01  5.3327310330E+00  1.0597161858E+01
                       1.5861592684E+01  1.0597161858E+01  1.0597161858E+01
                       5.3327310330E+00  1.0597161858E+01  1.0597161858E+01
                       4.1701484044E-19  6.7955136382E-19  4.7852721439E-19
            xcart7     5.2929079304E+00  5.2929079304E+00  5.2929079304E+00
                       1.5878723791E+01  1.5878723791E+01  1.5878723791E+01
                       1.0585815861E+01  1.5840891747E+01  1.0585815861E+01
                       1.0585815861E+01  1.0585815861E+01  5.3307399745E+00
                       1.0585815861E+01  1.0585815861E+01  1.5840891747E+01
                       1.0585815861E+01  5.3307399745E+00  1.0585815861E+01
                       1.5840891747E+01  1.0585815861E+01  1.0585815861E+01
                       5.3307399745E+00  1.0585815861E+01  1.0585815861E+01
                       1.5589937607E-19  2.1875096511E-21 -1.5471675853E-20
            xcart8     5.2872349315E+00  5.2872349315E+00  5.2872349315E+00
                       1.5861704795E+01  1.5861704795E+01  1.5861704795E+01
                       1.0574469863E+01  1.5820194411E+01  1.0574469863E+01
                       1.0574469863E+01  1.0574469863E+01  5.3287453150E+00
                       1.0574469863E+01  1.0574469863E+01  1.5820194411E+01
                       1.0574469863E+01  5.3287453150E+00  1.0574469863E+01
                       1.5820194411E+01  1.0574469863E+01  1.0574469863E+01
                       5.3287453150E+00  1.0574469863E+01  1.0574469863E+01
                       1.2453683383E-20 -2.9675549627E-20  1.7846688260E-19
            xcart9     5.2815619327E+00  5.2815619327E+00  5.2815619327E+00
                       1.5844685798E+01  1.5844685798E+01  1.5844685798E+01
                       1.0563123865E+01  1.5799525953E+01  1.0563123865E+01
                       1.0563123865E+01  1.0563123865E+01  5.3267217780E+00
                       1.0563123865E+01  1.0563123865E+01  1.5799525953E+01
                       1.0563123865E+01  5.3267217780E+00  1.0563123865E+01
                       1.5799525953E+01  1.0563123865E+01  1.0563123865E+01
                       5.3267217780E+00  1.0563123865E+01  1.0563123865E+01
                      -7.1088164977E-20  1.1644554358E-19 -4.4879171512E-20
             xred1     2.5000000000E-01  2.5000000000E-01  2.5000000000E-01
                       7.5000000000E-01  7.5000000000E-01  7.5000000000E-01
                       7.4929073508E-01  2.5070926492E-01  7.4929073508E-01
                       2.5070926492E-01  2.5070926492E-01  7.4929073508E-01
                       7.4929073508E-01  7.4929073508E-01  2.5070926492E-01
                       2.5070926492E-01  7.4929073508E-01  2.5070926492E-01
                       2.5070926492E-01  7.4929073508E-01  7.4929073508E-01
                       7.4929073508E-01  2.5070926492E-01  2.5070926492E-01
                       7.4649020348E-22  1.8792081786E-20 -1.3273669163E-20
             xred2     2.5000000000E-01  2.5000000000E-01  2.5000000000E-01
                       7.5000000000E-01  7.5000000000E-01  7.5000000000E-01
                       7.4910851884E-01  2.5089148116E-01  7.4910851884E-01
                       2.5089148116E-01  2.5089148116E-01  7.4910851884E-01
                       7.4910851884E-01  7.4910851884E-01  2.5089148116E-01
                       2.5089148116E-01  7.4910851884E-01  2.5089148116E-01
                       2.5089148116E-01  7.4910851884E-01  7.4910851884E-01
                       7.4910851884E-01  2.5089148116E-01  2.5089148116E-01
                      -4.0465171311E-21  1.4043597330E-20 -2.3086265092E-20
             xred3     2.5000000000E-01  2.5000000000E-01  2.5000000000E-01
                       7.5000000000E-01  7.5000000000E-01  7.5000000000E-01
                       7.4892757208E-01  2.5107242792E-01  7.4892757208E-01
                       2.5107242792E-01  2.5107242792E-01  7.4892757208E-01
                       7.4892757208E-01  7.4892757208E-01  2.5107242792E-01
                       2.5107242792E-01  7.4892757208E-01  2.5107242792E-01
                       2.5107242792E-01  7.4892757208E-01  7.4892757208E-01
                       7.4892757208E-01  2.5107242792E-01  2.5107242792E-01
                       4.4914680573E-21  1.8228231789E-20 -2.0816064078E-20
             xred4     2.5000000000E-01  2.5000000000E-01  2.5000000000E-01
                       7.5000000000E-01  7.5000000000E-01  7.5000000000E-01
                       7.4874511346E-01  2.5125488654E-01  7.4874511346E-01
                       2.5125488654E-01  2.5125488654E-01  7.4874511346E-01
                       7.4874511346E-01  7.4874511346E-01  2.5125488654E-01
                       2.5125488654E-01  7.4874511346E-01  2.5125488654E-01
                       2.5125488654E-01  7.4874511346E-01  7.4874511346E-01
                       7.4874511346E-01  2.5125488654E-01  2.5125488654E-01
                       8.2186164905E-21  6.1829294968E-21 -4.0505103239E-20
             xred5     2.5000000000E-01  2.5000000000E-01  2.5000000000E-01
                       7.5000000000E-01  7.5000000000E-01  7.5000000000E-01
                       7.4856614225E-01  2.5143385775E-01  7.4856614225E-01
                       2.5143385775E-01  2.5143385775E-01  7.4856614225E-01
                       7.4856614225E-01  7.4856614225E-01  2.5143385775E-01
                       2.5143385775E-01  7.4856614225E-01  2.5143385775E-01
                       2.5143385775E-01  7.4856614225E-01  7.4856614225E-01
                       7.4856614225E-01  2.5143385775E-01  2.5143385775E-01
                      -3.9637433793E-20  1.5826442915E-20  6.2516981843E-20
             xred6     2.5000000000E-01  2.5000000000E-01  2.5000000000E-01
                       7.5000000000E-01  7.5000000000E-01  7.5000000000E-01
                       7.4838871463E-01  2.5161128537E-01  7.4838871463E-01
                       2.5161128537E-01  2.5161128537E-01  7.4838871463E-01
                       7.4838871463E-01  7.4838871463E-01  2.5161128537E-01
                       2.5161128537E-01  7.4838871463E-01  2.5161128537E-01
                       2.5161128537E-01  7.4838871463E-01  7.4838871463E-01
                       7.4838871463E-01  2.5161128537E-01  2.5161128537E-01
                       3.4965198591E-20  1.0190968766E-20  2.9160590266E-20
             xred7     2.5000000000E-01  2.5000000000E-01  2.5000000000E-01
                       7.5000000000E-01  7.5000000000E-01  7.5000000000E-01
                       7.4821307849E-01  2.5178692151E-01  7.4821307849E-01
                       2.5178692151E-01  2.5178692151E-01  7.4821307849E-01
                       7.4821307849E-01  7.4821307849E-01  2.5178692151E-01
                       2.5178692151E-01  7.4821307849E-01  2.5178692151E-01
                       2.5178692151E-01  7.4821307849E-01  7.4821307849E-01
                       7.4821307849E-01  2.5178692151E-01  2.5178692151E-01
                      -7.9910488005E-21  6.5295010033E-21  8.1976941531E-21
             xred8     2.5000000000E-01  2.5000000000E-01  2.5000000000E-01
                       7.5000000000E-01  7.5000000000E-01  7.5000000000E-01
                       7.4803723572E-01  2.5196276428E-01  7.4803723572E-01
                       2.5196276428E-01  2.5196276428E-01  7.4803723572E-01
                       7.4803723572E-01  7.4803723572E-01  2.5196276428E-01
                       2.5196276428E-01  7.4803723572E-01  2.5196276428E-01
                       2.5196276428E-01  7.4803723572E-01  7.4803723572E-01
                       7.4803723572E-01  2.5196276428E-01  2.5196276428E-01
                       6.4465477396E-21  1.0430599286E-20 -9.2528869709E-21
             xred9     2.5000000000E-01  2.5000000000E-01  2.5000000000E-01
                       7.5000000000E-01  7.5000000000E-01  7.5000000000E-01
                       7.4786238210E-01  2.5213761790E-01  7.4786238210E-01
                       2.5213761790E-01  2.5213761790E-01  7.4786238210E-01
                       7.4786238210E-01  7.4786238210E-01  2.5213761790E-01
                       2.5213761790E-01  7.4786238210E-01  2.5213761790E-01
                       2.5213761790E-01  7.4786238210E-01  7.4786238210E-01
                       7.4786238210E-01  2.5213761790E-01  2.5213761790E-01
                       6.7524786638E-21 -1.1001143366E-20  4.2713003874E-21
            znucl       55.00000   53.00000   72.00000

================================================================================

 chkinp: Checking input parameters for consistency, jdtset=   1.

 chkinp: Checking input parameters for consistency, jdtset=   2.

 chkinp: Checking input parameters for consistency, jdtset=   3.

 chkinp: Checking input parameters for consistency, jdtset=   4.

 chkinp: Checking input parameters for consistency, jdtset=   5.

 chkinp: Checking input parameters for consistency, jdtset=   6.

 chkinp: Checking input parameters for consistency, jdtset=   7.

 chkinp: Checking input parameters for consistency, jdtset=   8.

 chkinp: Checking input parameters for consistency, jdtset=   9.

================================================================================
== DATASET  1 ==================================================================
-   mpi_nproc: 6, omp_nthreads: -1 (-1 if OMP is not activated)


--- !DatasetInfo
iteration_state: {dtset: 1, }
dimensions: {natom: 9, nkpt: 72, mband: 42, nsppol: 1, nspinor: 1, nspden: 1, mpw: 13617, }
cutoff_energies: {ecut:  24.0, pawecutdg:  -1.0, }
electrons: {nelect:   7.20000000E+01, charge:   0.00000000E+00, occopt:   1.00000000E+00, tsmear:   1.00000000E-02, }
meta: {optdriver: 0, ionmov: 0, optcell: 0, iscf: 17, paral_kgb: 0, }
...

 Exchange-correlation functional for the present dataset will be:
  Meta-GGA fake2 - ixc=32

 Real(R)+Recip(G) space primitive vectors, cartesian coordinates (Bohr,Bohr^-1):
 R(1)=  0.0000000 10.6538918 10.6538918  G(1)= -0.0469312  0.0469312  0.0469312
 R(2)= 10.6538918  0.0000000 10.6538918  G(2)=  0.0469312 -0.0469312  0.0469312
 R(3)= 10.6538918 10.6538918  0.0000000  G(3)=  0.0469312  0.0469312 -0.0469312
 Unit cell volume ucvol=  2.4185488E+03 bohr^3
 Angles (23,13,12)=  6.00000000E+01  6.00000000E+01  6.00000000E+01 degrees

 getcut: wavevector=  0.0000  0.0000  0.0000  ngfft=  72  72  72
         ecut(hartree)=     24.000   => boxcut(ratio)=   2.16690

--- Pseudopotential description ------------------------------------------------
- pspini: atom type   1  psp file is ../../../Psps_for_tests/ONCVPSP-PBE-PDv0.4/Cs-sp.psp8
- pspatm: opening atomic psp file    ../../../Psps_for_tests/ONCVPSP-PBE-PDv0.4/Cs-sp.psp8
- Cs    ONCVPSP-3.2.3.1  r_core=   2.27353   1.85623   2.01788   1.90105
- 55.00000   9.00000    170703                znucl, zion, pspdat
    8   32    3    4       600   0.00000      pspcod,pspxc,lmax,lloc,mmax,r2well
    5.99000000000000    5.00000000000000    0.00000000000000   rchrg,fchrg,qchrg
     nproj     2     2     2     2
     extension_switch     1
  pspatm : epsatm=   22.81663475
         --- l  ekb(1:nproj) -->
             0    6.176104    0.756334
             1    6.263084    0.786397
             2    3.737592    0.906929
             3   -9.272327   -2.535859
 pspatm: atomic psp has been read  and splines computed

- pspini: atom type   2  psp file is ../../../Psps_for_tests/ONCVPSP-PBE-PDv0.4/I.psp8
- pspatm: opening atomic psp file    ../../../Psps_for_tests/ONCVPSP-PBE-PDv0.4/I.psp8
- I     ONCVPSP-3.2.3.1  r_core=   2.02042   2.17032   2.27639
- 53.00000   7.00000    170510                znucl, zion, pspdat
    8   32    2    4       600   0.00000      pspcod,pspxc,lmax,lloc,mmax,r2well
    5.99000000000000    4.00000000000000    0.00000000000000   rchrg,fchrg,qchrg
     nproj     2     2     2
     extension_switch     1
  pspatm : epsatm=   19.17050482
         --- l  ekb(1:nproj) -->
             0    5.955518    0.916455
             1    4.011347    0.742302
             2    4.134838    0.711910
 pspatm: atomic psp has been read  and splines computed

- pspini: atom type   3  psp file is ../../../Psps_for_tests/ONCVPSP-PBE-PDv0.4/Hf-sp.psp8
- pspatm: opening atomic psp file    ../../../Psps_for_tests/ONCVPSP-PBE-PDv0.4/Hf-sp.psp8
- Hf    ONCVPSP-3.2.3.1  r_core=   1.71613   1.71613   1.71613   2.42541
- 72.00000  12.00000    170501                znucl, zion, pspdat
    8   32    3    4       600   0.00000      pspcod,pspxc,lmax,lloc,mmax,r2well
    5.99000000000000    5.40000000000000    0.00000000000000   rchrg,fchrg,qchrg
     nproj     2     2     2     2
     extension_switch     1
  pspatm : epsatm=   21.94432712
         --- l  ekb(1:nproj) -->
             0    5.751490   -0.631383
             1   -2.986358    2.305386
             2    1.422276    0.146986
             3    8.827595    0.343102
 pspatm: atomic psp has been read  and splines computed

   1.31472450E+04                                ecore*ucvol(ha*bohr**3)
--------------------------------------------------------------------------------

_setup2: Arith. and geom. avg. npw (full set) are   13581.855   13581.846

================================================================================

--- !BeginCycle
iteration_state: {dtset: 1, }
solver: {iscf: 17, nstep: 2500, nline: 4, wfoptalg: 0, }
tolerances: {toldfe: 1.00E-08, }
...

     iter   Etot(hartree)      deltaE(h)  residm     nres2
 ETOT  1  -181.50195842769    -1.815E+02 2.486E-02 2.901E+00
 ETOT  2  -181.56226720739    -6.031E-02 1.263E-02 1.209E+00
 ETOT  3  -181.55305681036     9.210E-03 1.868E-03 2.416E-01
 ETOT  4  -181.54950561250     3.551E-03 7.195E-03 3.425E-03
 ETOT  5  -181.54949479331     1.082E-05 1.798E-03 3.068E-04
 ETOT  6  -181.54949338430     1.409E-06 2.002E-03 3.444E-05
 ETOT  7  -181.54949330581     7.850E-08 5.631E-04 2.331E-06
 ETOT  8  -181.54949330776    -1.953E-09 5.148E-04 2.040E-07
 ETOT  9  -181.54949330604     1.718E-09 5.400E-04 1.319E-08

 At SCF step    9, etot is converged : 
  for the second time, diff in etot=  1.718E-09 < toldfe=  1.000E-08

 Cartesian components of stress tensor (hartree/bohr^3)
  sigma(1 1)= -5.94094518E-04  sigma(3 2)=  0.00000000E+00
  sigma(2 2)= -5.94094518E-04  sigma(3 1)=  0.00000000E+00
  sigma(3 3)= -5.94094518E-04  sigma(2 1)=  0.00000000E+00


--- !ResultsGS
iteration_state: {dtset: 1, }
comment   : Summary of ground state results
lattice_vectors:
- [  0.0000000,  10.6538918,  10.6538918, ]
- [ 10.6538918,   0.0000000,  10.6538918, ]
- [ 10.6538918,  10.6538918,   0.0000000, ]
lattice_lengths: [  15.06688,   15.06688,   15.06688, ]
lattice_angles: [ 60.000,  60.000,  60.000, ] # degrees, (23, 13, 12)
lattice_volume:   2.4185488E+03
convergence: {deltae:  1.718E-09, res2:  1.319E-08, residm:  5.400E-04, diffor: null, }
etotal    :  -1.81549493E+02
entropy   :   0.00000000E+00
fermie    :   8.57241478E-02
cartesian_stress_tensor: # hartree/bohr^3
- [ -5.94094518E-04,   0.00000000E+00,   0.00000000E+00, ]
- [  0.00000000E+00,  -5.94094518E-04,   0.00000000E+00, ]
- [  0.00000000E+00,   0.00000000E+00,  -5.94094518E-04, ]
pressure_GPa:   1.7479E+01
xred      :
- [  2.5000E-01,   2.5000E-01,   2.5000E-01, Cs]
- [  7.5000E-01,   7.5000E-01,   7.5000E-01, Cs]
- [  7.4929E-01,   2.5071E-01,   7.4929E-01,  I]
- [  2.5071E-01,   2.5071E-01,   7.4929E-01,  I]
- [  7.4929E-01,   7.4929E-01,   2.5071E-01,  I]
- [  2.5071E-01,   7.4929E-01,   2.5071E-01,  I]
- [  2.5071E-01,   7.4929E-01,   7.4929E-01,  I]
- [  7.4929E-01,   2.5071E-01,   2.5071E-01,  I]
- [  7.4649E-22,   1.8792E-20,  -1.3274E-20, Hf]
cartesian_forces: # hartree/bohr
- [ -4.81867632E-20,   4.93629256E-31,  -5.29008630E-21, ]
- [ -4.81867632E-20,   5.42992181E-31,  -5.29008630E-21, ]
- [ -5.45910891E-20,   1.60147473E-03,   1.11423962E-21, ]
- [ -1.85974496E-22,  -4.80007887E-20,  -1.60147473E-03, ]
- [  1.20652883E-19,  -1.68839646E-19,   1.60147473E-03, ]
- [  1.21042895E-19,  -1.60147473E-03,  -1.74519744E-19, ]
- [  1.60147473E-03,   2.10436109E-19,  -2.15726195E-19, ]
- [ -1.60147473E-03,  -2.10436109E-19,   2.05146022E-19, ]
- [ -4.81867632E-20,  -0.00000000E+00,  -5.29008630E-21, ]
force_length_stats: {min:   4.84762742E-20, max:   1.60147473E-03, mean:   1.06764982E-03, }
...

 Integrated electronic density in atomic spheres:
 ------------------------------------------------
 Atom  Sphere_radius  Integrated_density
    1        2.00000          4.47634514
    2        2.00000          4.47634514
    3        2.00000          2.86642638
    4        2.00000          2.86642638
    5        2.00000          2.86642638
    6        2.00000          2.86642638
    7        2.00000          2.86642638
    8        2.00000          2.86642638
    9        2.00000          8.32957943
================================================================================

 ----iterations are completed or convergence reached----

 Mean square residual over all n,k,spin=   22.055E-07; max=  54.002E-05
 reduced coordinates (array xred) for    9 atoms
       0.250000000000      0.250000000000      0.250000000000
       0.750000000000      0.750000000000      0.750000000000
       0.749290735080      0.250709264920      0.749290735080
       0.250709264920      0.250709264920      0.749290735080
       0.749290735080      0.749290735080      0.250709264920
       0.250709264920      0.749290735080      0.250709264920
       0.250709264920      0.749290735080      0.749290735080
       0.749290735080      0.250709264920      0.250709264920
       0.000000000000      0.000000000000     -0.000000000000
 rms dE/dt=  1.1375E-02; max dE/dt=  1.7062E-02; dE/dt below (all hartree)
    1       0.000000000000      0.000000000000     -0.000000000000
    2      -0.000000000000      0.000000000000     -0.000000000000
    3      -0.017061938618      0.000000000000     -0.017061938618
    4       0.017061938618      0.017061938618      0.000000000000
    5      -0.017061938618     -0.017061938618      0.000000000000
    6       0.017061938618      0.000000000000      0.017061938618
    7      -0.000000000000     -0.017061938618     -0.017061938618
    8       0.000000000000      0.017061938618      0.017061938618
    9       0.000000000000      0.000000000000      0.000000000000

 cartesian coordinates (angstrom) at end:
    1      2.81889837410649     2.81889837410649     2.81889837410649
    2      8.45669512231947     8.45669512231947     8.45669512231947
    3      5.63779674821298     8.44869773940028     5.63779674821298
    4      5.63779674821298     5.63779674821298     2.82689575702569
    5      5.63779674821298     5.63779674821298     8.44869773940028
    6      5.63779674821298     2.82689575702569     5.63779674821298
    7      8.44869773940028     5.63779674821298     5.63779674821298
    8      2.82689575702569     5.63779674821298     5.63779674821298
    9      0.00000000000000    -0.00000000000000     0.00000000000000

 cartesian forces (hartree/bohr) at end:
    1     -0.00000000000000     0.00000000000000    -0.00000000000000
    2     -0.00000000000000     0.00000000000000    -0.00000000000000
    3     -0.00000000000000     0.00160147473459     0.00000000000000
    4     -0.00000000000000    -0.00000000000000    -0.00160147473459
    5      0.00000000000000    -0.00000000000000     0.00160147473459
    6      0.00000000000000    -0.00160147473459    -0.00000000000000
    7      0.00160147473459     0.00000000000000    -0.00000000000000
    8     -0.00160147473459    -0.00000000000000     0.00000000000000
    9     -0.00000000000000    -0.00000000000000    -0.00000000000000
 frms,max,avg= 7.5494243E-04 1.6014747E-03   0.000E+00  0.000E+00  0.000E+00 h/b

 cartesian forces (eV/Angstrom) at end:
    1     -0.00000000000000     0.00000000000000    -0.00000000000000
    2     -0.00000000000000     0.00000000000000    -0.00000000000000
    3     -0.00000000000000     0.08235113500261     0.00000000000000
    4     -0.00000000000000    -0.00000000000000    -0.08235113500261
    5      0.00000000000000    -0.00000000000000     0.08235113500261
    6      0.00000000000000    -0.08235113500261    -0.00000000000000
    7      0.08235113500261     0.00000000000000    -0.00000000000000
    8     -0.08235113500261    -0.00000000000000     0.00000000000000
    9     -0.00000000000000    -0.00000000000000    -0.00000000000000
 frms,max,avg= 3.8820697E-02 8.2351135E-02   0.000E+00  0.000E+00  0.000E+00 e/A
 length scales= 15.066878342004 15.066878342004 15.066878342004 bohr
              =  7.973048623187  7.973048623187  7.973048623187 angstroms
 prteigrs : about to open file Cs2TiI6o_DS1_EIG
 Fermi (or HOMO) energy (hartree) =   0.08572   Average Vxc (hartree)=  -0.32482
 Eigenvalues (hartree) for nkpt=  72  k points:
 kpt#   1, nband= 42, wtk=  0.00058, kpt=  0.0000  0.0000  0.0000 (reduced coord)
  -2.23888   -1.06172   -1.06172   -1.06172   -0.66486   -0.66458   -0.36384   -0.33642
  -0.33642   -0.33642   -0.33061   -0.33061   -0.18799   -0.18799   -0.18799   -0.18434
  -0.18434   -0.18434   -0.08433   -0.01644   -0.01644   -0.01644   -0.01156   -0.01156
  -0.01156    0.01308    0.01308    0.04752    0.04752    0.04752    0.07817    0.07817
   0.07817    0.08572    0.08572    0.08572    0.15499    0.15499    0.15499    0.20981
   0.22975    0.22977
 prteigrs : prtvol=0 or 1, do not print more k-points.


--- !EnergyTerms
iteration_state     : {dtset: 1, }
comment             : Components of total free energy in Hartree
kinetic             :  4.34655385191345E+01
hartree             :  3.00152712879062E+01
xc                  : -5.22994165211207E+01
Ewald energy        : -1.23559690133670E+02
psp_core            :  5.43600578879132E+00
local_psp           : -1.05600112105571E+02
non_local_psp       :  2.09929014172226E+01
total_energy        : -1.81549501747307E+02
...


--- !EnergyTermsDC
iteration_state     : {dtset: 1, }
comment             : '"Double-counting" decomposition of free energy'
band_energy         : -1.90766233298650E+01
Ewald energy        : -1.23559690133670E+02
psp_core            :  5.43600578879132E+00
xc_dc               : -4.43491856312972E+01
total_energy_dc     : -1.81549493306040E+02
...


 Cartesian components of stress tensor (hartree/bohr^3)
  sigma(1 1)= -5.94094518E-04  sigma(3 2)=  0.00000000E+00
  sigma(2 2)= -5.94094518E-04  sigma(3 1)=  0.00000000E+00
  sigma(3 3)= -5.94094518E-04  sigma(2 1)=  0.00000000E+00

-Cartesian components of stress tensor (GPa)         [Pressure=  1.7479E+01 GPa]
- sigma(1 1)= -1.74788612E+01  sigma(3 2)=  0.00000000E+00
- sigma(2 2)= -1.74788612E+01  sigma(3 1)=  0.00000000E+00
- sigma(3 3)= -1.74788612E+01  sigma(2 1)=  0.00000000E+00

================================================================================
== DATASET  2 ==================================================================
-   mpi_nproc: 6, omp_nthreads: -1 (-1 if OMP is not activated)


--- !DatasetInfo
iteration_state: {dtset: 2, }
dimensions: {natom: 9, nkpt: 72, mband: 42, nsppol: 1, nspinor: 1, nspden: 1, mpw: 13593, }
cutoff_energies: {ecut:  24.0, pawecutdg:  -1.0, }
electrons: {nelect:   7.20000000E+01, charge:   0.00000000E+00, occopt:   1.00000000E+00, tsmear:   1.00000000E-02, }
meta: {optdriver: 0, ionmov: 0, optcell: 0, iscf: 17, paral_kgb: 0, }
...

 mkfilename : getden/=0, take file _DEN from output of DATASET   1.

 Exchange-correlation functional for the present dataset will be:
  Meta-GGA fake2 - ixc=32

 Real(R)+Recip(G) space primitive vectors, cartesian coordinates (Bohr,Bohr^-1):
 R(1)=  0.0000000 10.6425458 10.6425458  G(1)= -0.0469812  0.0469812  0.0469812
 R(2)= 10.6425458  0.0000000 10.6425458  G(2)=  0.0469812 -0.0469812  0.0469812
 R(3)= 10.6425458 10.6425458  0.0000000  G(3)=  0.0469812  0.0469812 -0.0469812
 Unit cell volume ucvol=  2.4108300E+03 bohr^3
 Angles (23,13,12)=  6.00000000E+01  6.00000000E+01  6.00000000E+01 degrees

 getcut: wavevector=  0.0000  0.0000  0.0000  ngfft=  72  72  72
         ecut(hartree)=     24.000   => boxcut(ratio)=   2.16921
--------------------------------------------------------------------------------

_setup2: Arith. and geom. avg. npw (full set) are   13538.313   13538.303

================================================================================

--- !BeginCycle
iteration_state: {dtset: 2, }
solver: {iscf: 17, nstep: 2500, nline: 4, wfoptalg: 0, }
tolerances: {toldfe: 1.00E-08, }
...

     iter   Etot(hartree)      deltaE(h)  residm     nres2
 ETOT  1  -181.47868863670    -1.815E+02 2.437E-02 9.194E-02
 ETOT  2  -181.55345541623    -7.477E-02 9.753E-03 3.609E-01
 ETOT  3  -181.54974488842     3.711E-03 2.373E-03 3.415E-02
 ETOT  4  -181.54964968260     9.521E-05 2.449E-03 1.767E-02
 ETOT  5  -181.54946702089     1.827E-04 1.687E-03 2.301E-04
 ETOT  6  -181.54946477780     2.243E-06 1.018E-03 4.422E-06
 ETOT  7  -181.54946478036    -2.557E-09 8.659E-04 6.361E-07
 ETOT  8  -181.54946477257     7.790E-09 8.121E-04 7.732E-08

 At SCF step    8, etot is converged : 
  for the second time, diff in etot=  7.790E-09 < toldfe=  1.000E-08

 Cartesian components of stress tensor (hartree/bohr^3)
  sigma(1 1)= -5.97943402E-04  sigma(3 2)=  0.00000000E+00
  sigma(2 2)= -5.97943402E-04  sigma(3 1)=  0.00000000E+00
  sigma(3 3)= -5.97943402E-04  sigma(2 1)=  0.00000000E+00


--- !ResultsGS
iteration_state: {dtset: 2, }
comment   : Summary of ground state results
lattice_vectors:
- [  0.0000000,  10.6425458,  10.6425458, ]
- [ 10.6425458,   0.0000000,  10.6425458, ]
- [ 10.6425458,  10.6425458,   0.0000000, ]
lattice_lengths: [  15.05083,   15.05083,   15.05083, ]
lattice_angles: [ 60.000,  60.000,  60.000, ] # degrees, (23, 13, 12)
lattice_volume:   2.4108300E+03
convergence: {deltae:  7.790E-09, res2:  7.732E-08, residm:  8.121E-04, diffor: null, }
etotal    :  -1.81549465E+02
entropy   :   0.00000000E+00
fermie    :   8.68226997E-02
cartesian_stress_tensor: # hartree/bohr^3
- [ -5.97943402E-04,   0.00000000E+00,   0.00000000E+00, ]
- [  0.00000000E+00,  -5.97943402E-04,   0.00000000E+00, ]
- [  0.00000000E+00,   0.00000000E+00,  -5.97943402E-04, ]
pressure_GPa:   1.7592E+01
xred      :
- [  2.5000E-01,   2.5000E-01,   2.5000E-01, Cs]
- [  7.5000E-01,   7.5000E-01,   7.5000E-01, Cs]
- [  7.4911E-01,   2.5089E-01,   7.4911E-01,  I]
- [  2.5089E-01,   2.5089E-01,   7.4911E-01,  I]
- [  7.4911E-01,   7.4911E-01,   2.5089E-01,  I]
- [  2.5089E-01,   7.4911E-01,   2.5089E-01,  I]
- [  2.5089E-01,   7.4911E-01,   7.4911E-01,  I]
- [  7.4911E-01,   2.5089E-01,   2.5089E-01,  I]
- [ -4.0465E-21,   1.4044E-20,  -2.3086E-20, Hf]
cartesian_forces: # hartree/bohr
- [  2.40933816E-20,   2.40933816E-20,  -1.41863376E-20, ]
- [  2.40933816E-20,   2.40933816E-20,  -1.41863376E-20, ]
- [ -1.12284997E-20,   1.59694111E-03,   2.11355437E-20, ]
- [  3.70056415E-20,   4.38950004E-21,  -1.59694111E-03, ]
- [  1.11811217E-20,   4.37972632E-20,   1.59694111E-03, ]
- [ -1.03583657E-19,  -1.59694111E-03,   1.13490701E-19, ]
- [  1.59694111E-03,   2.05611935E-19,  -1.95704891E-19, ]
- [ -1.59694111E-03,  -1.57425172E-19,   1.67332216E-19, ]
- [  2.40933816E-20,   2.40933816E-20,  -1.41863376E-20, ]
force_length_stats: {min:   3.69084577E-20, max:   1.59694111E-03, mean:   1.06462741E-03, }
...

 Integrated electronic density in atomic spheres:
 ------------------------------------------------
 Atom  Sphere_radius  Integrated_density
    1        2.00000          4.46652184
    2        2.00000          4.46652184
    3        2.00000          2.86420449
    4        2.00000          2.86420449
    5        2.00000          2.86420449
    6        2.00000          2.86420449
    7        2.00000          2.86420449
    8        2.00000          2.86420449
    9        2.00000          8.32439592
================================================================================

 ----iterations are completed or convergence reached----

 Mean square residual over all n,k,spin=   37.819E-07; max=  81.208E-05
 reduced coordinates (array xred) for    9 atoms
       0.250000000000      0.250000000000      0.250000000000
       0.750000000000      0.750000000000      0.750000000000
       0.749108518840      0.250891481160      0.749108518840
       0.250891481160      0.250891481160      0.749108518840
       0.749108518840      0.749108518840      0.250891481160
       0.250891481160      0.749108518840      0.250891481160
       0.250891481160      0.749108518840      0.749108518840
       0.749108518840      0.250891481160      0.250891481160
      -0.000000000000      0.000000000000     -0.000000000000
 rms dE/dt=  1.1330E-02; max dE/dt=  1.6996E-02; dE/dt below (all hartree)
    1      -0.000000000000     -0.000000000000      0.000000000000
    2       0.000000000000      0.000000000000     -0.000000000000
    3      -0.016995519030      0.000000000000     -0.016995519030
    4       0.016995519030      0.016995519030      0.000000000000
    5      -0.016995519030     -0.016995519030     -0.000000000000
    6       0.016995519030      0.000000000000      0.016995519030
    7       0.000000000000     -0.016995519030     -0.016995519030
    8      -0.000000000000      0.016995519030      0.016995519030
    9       0.000000000000      0.000000000000      0.000000000000

 cartesian coordinates (angstrom) at end:
    1      2.81589635240883     2.81589635240883     2.81589635240883
    2      8.44768905722648     8.44768905722648     8.44768905722648
    3      5.63179270481765     8.43764778303974     5.63179270481765
    4      5.63179270481765     5.63179270481765     2.82593762659557
    5      5.63179270481765     5.63179270481765     8.43764778303974
    6      5.63179270481765     2.82593762659557     5.63179270481765
    7      8.43764778303974     5.63179270481765     5.63179270481765
    8      2.82593762659557     5.63179270481765     5.63179270481765
    9     -0.00000000000000    -0.00000000000000     0.00000000000000

 cartesian forces (hartree/bohr) at end:
    1      0.00000000000000     0.00000000000000    -0.00000000000000
    2      0.00000000000000     0.00000000000000    -0.00000000000000
    3     -0.00000000000000     0.00159694111454     0.00000000000000
    4      0.00000000000000     0.00000000000000    -0.00159694111454
    5      0.00000000000000     0.00000000000000     0.00159694111454
    6     -0.00000000000000    -0.00159694111454     0.00000000000000
    7      0.00159694111454     0.00000000000000    -0.00000000000000
    8     -0.00159694111454    -0.00000000000000     0.00000000000000
    9      0.00000000000000     0.00000000000000    -0.00000000000000
 frms,max,avg= 7.5280526E-04 1.5969411E-03   0.000E+00  0.000E+00  0.000E+00 h/b

 cartesian forces (eV/Angstrom) at end:
    1      0.00000000000000     0.00000000000000    -0.00000000000000
    2      0.00000000000000     0.00000000000000    -0.00000000000000
    3     -0.00000000000000     0.08211800690638     0.00000000000000
    4      0.00000000000000     0.00000000000000    -0.08211800690638
    5      0.00000000000000     0.00000000000000     0.08211800690638
    6     -0.00000000000000    -0.08211800690638     0.00000000000000
    7      0.08211800690638     0.00000000000000    -0.00000000000000
    8     -0.08211800690638    -0.00000000000000     0.00000000000000
    9      0.00000000000000     0.00000000000000    -0.00000000000000
 frms,max,avg= 3.8710800E-02 8.2118007E-02   0.000E+00  0.000E+00  0.000E+00 e/A
 length scales= 15.050832678168 15.050832678168 15.050832678168 bohr
              =  7.964557623588  7.964557623588  7.964557623588 angstroms
 prteigrs : about to open file Cs2TiI6o_DS2_EIG
 Fermi (or HOMO) energy (hartree) =   0.08682   Average Vxc (hartree)=  -0.32535
 Eigenvalues (hartree) for nkpt=  72  k points:
 kpt#   1, nband= 42, wtk=  0.00058, kpt=  0.0000  0.0000  0.0000 (reduced coord)
  -2.23775   -1.06062   -1.06062   -1.06062   -0.66378   -0.66349   -0.36318   -0.33561
  -0.33561   -0.33561   -0.32970   -0.32970   -0.18704   -0.18704   -0.18704   -0.18334
  -0.18334   -0.18334   -0.08382   -0.01575   -0.01575   -0.01575   -0.01078   -0.01078
  -0.01078    0.01406    0.01406    0.04842    0.04842    0.04842    0.07930    0.07930
   0.07930    0.08682    0.08682    0.08682    0.15586    0.15586    0.15586    0.21062
   0.23055    0.23056
 prteigrs : prtvol=0 or 1, do not print more k-points.


--- !EnergyTerms
iteration_state     : {dtset: 2, }
comment             : Components of total free energy in Hartree
kinetic             :  4.34736964626570E+01
hartree             :  2.99149730333415E+01
xc                  : -5.23038760711800E+01
Ewald energy        : -1.23743724380558E+02
psp_core            :  5.45341027652136E+00
local_psp           : -1.05338149462618E+02
non_local_psp       :  2.09941200119878E+01
total_energy        : -1.81549550129849E+02
...


--- !EnergyTermsDC
iteration_state     : {dtset: 2, }
comment             : '"Double-counting" decomposition of free energy'
band_energy         : -1.90114581863850E+01
Ewald energy        : -1.23743724380558E+02
psp_core            :  5.45341027652136E+00
xc_dc               : -4.42476924821494E+01
total_energy_dc     : -1.81549464772571E+02
...


 Cartesian components of stress tensor (hartree/bohr^3)
  sigma(1 1)= -5.97943402E-04  sigma(3 2)=  0.00000000E+00
  sigma(2 2)= -5.97943402E-04  sigma(3 1)=  0.00000000E+00
  sigma(3 3)= -5.97943402E-04  sigma(2 1)=  0.00000000E+00

-Cartesian components of stress tensor (GPa)         [Pressure=  1.7592E+01 GPa]
- sigma(1 1)= -1.75920993E+01  sigma(3 2)=  0.00000000E+00
- sigma(2 2)= -1.75920993E+01  sigma(3 1)=  0.00000000E+00
- sigma(3 3)= -1.75920993E+01  sigma(2 1)=  0.00000000E+00

================================================================================
== DATASET  3 ==================================================================
-   mpi_nproc: 6, omp_nthreads: -1 (-1 if OMP is not activated)


--- !DatasetInfo
iteration_state: {dtset: 3, }
dimensions: {natom: 9, nkpt: 72, mband: 42, nsppol: 1, nspinor: 1, nspden: 1, mpw: 13545, }
cutoff_energies: {ecut:  24.0, pawecutdg:  -1.0, }
electrons: {nelect:   7.20000000E+01, charge:   0.00000000E+00, occopt:   1.00000000E+00, tsmear:   1.00000000E-02, }
meta: {optdriver: 0, ionmov: 0, optcell: 0, iscf: 17, paral_kgb: 0, }
...

 mkfilename : getden/=0, take file _DEN from output of DATASET   2.

 Exchange-correlation functional for the present dataset will be:
  Meta-GGA fake2 - ixc=32

 Real(R)+Recip(G) space primitive vectors, cartesian coordinates (Bohr,Bohr^-1):
 R(1)=  0.0000000 10.6311999 10.6311999  G(1)= -0.0470314  0.0470314  0.0470314
 R(2)= 10.6311999  0.0000000 10.6311999  G(2)=  0.0470314 -0.0470314  0.0470314
 R(3)= 10.6311999 10.6311999  0.0000000  G(3)=  0.0470314  0.0470314 -0.0470314
 Unit cell volume ucvol=  2.4031277E+03 bohr^3
 Angles (23,13,12)=  6.00000000E+01  6.00000000E+01  6.00000000E+01 degrees

 getcut: wavevector=  0.0000  0.0000  0.0000  ngfft=  72  72  72
         ecut(hartree)=     24.000   => boxcut(ratio)=   2.17152
--------------------------------------------------------------------------------

_setup2: Arith. and geom. avg. npw (full set) are   13495.271   13495.262

================================================================================

--- !BeginCycle
iteration_state: {dtset: 3, }
solver: {iscf: 17, nstep: 2500, nline: 4, wfoptalg: 0, }
tolerances: {toldfe: 1.00E-08, }
...

     iter   Etot(hartree)      deltaE(h)  residm     nres2
 ETOT  1  -181.47946851575    -1.815E+02 2.541E-02 8.660E-02
 ETOT  2  -181.55311519524    -7.365E-02 7.578E-03 3.366E-01
 ETOT  3  -181.54968507102     3.430E-03 3.313E-03 3.242E-02
 ETOT  4  -181.54959703016     8.804E-05 2.323E-03 1.682E-02
 ETOT  5  -181.54942449744     1.725E-04 1.540E-03 2.245E-04
 ETOT  6  -181.54942240169     2.096E-06 1.073E-03 3.979E-06
 ETOT  7  -181.54942241075    -9.060E-09 9.838E-04 5.471E-07
 ETOT  8  -181.54942240456     6.182E-09 9.795E-04 6.062E-08

 At SCF step    8, etot is converged : 
  for the second time, diff in etot=  6.182E-09 < toldfe=  1.000E-08

 Cartesian components of stress tensor (hartree/bohr^3)
  sigma(1 1)= -6.01891806E-04  sigma(3 2)=  0.00000000E+00
  sigma(2 2)= -6.01891806E-04  sigma(3 1)=  0.00000000E+00
  sigma(3 3)= -6.01891806E-04  sigma(2 1)=  0.00000000E+00


--- !ResultsGS
iteration_state: {dtset: 3, }
comment   : Summary of ground state results
lattice_vectors:
- [  0.0000000,  10.6311999,  10.6311999, ]
- [ 10.6311999,   0.0000000,  10.6311999, ]
- [ 10.6311999,  10.6311999,   0.0000000, ]
lattice_lengths: [  15.03479,   15.03479,   15.03479, ]
lattice_angles: [ 60.000,  60.000,  60.000, ] # degrees, (23, 13, 12)
lattice_volume:   2.4031277E+03
convergence: {deltae:  6.182E-09, res2:  6.062E-08, residm:  9.795E-04, diffor: null, }
etotal    :  -1.81549422E+02
entropy   :   0.00000000E+00
fermie    :   8.79282428E-02
cartesian_stress_tensor: # hartree/bohr^3
- [ -6.01891806E-04,   0.00000000E+00,   0.00000000E+00, ]
- [  0.00000000E+00,  -6.01891806E-04,   0.00000000E+00, ]
- [  0.00000000E+00,   0.00000000E+00,  -6.01891806E-04, ]
pressure_GPa:   1.7708E+01
xred      :
- [  2.5000E-01,   2.5000E-01,   2.5000E-01, Cs]
- [  7.5000E-01,   7.5000E-01,   7.5000E-01, Cs]
- [  7.4893E-01,   2.5107E-01,   7.4893E-01,  I]
- [  2.5107E-01,   2.5107E-01,   7.4893E-01,  I]
- [  7.4893E-01,   7.4893E-01,   2.5107E-01,  I]
- [  2.5107E-01,   7.4893E-01,   2.5107E-01,  I]
- [  2.5107E-01,   7.4893E-01,   7.4893E-01,  I]
- [  7.4893E-01,   2.5107E-01,   2.5107E-01,  I]
- [  4.4915E-21,   1.8228E-20,  -2.0816E-20, Hf]
cartesian_forces: # hartree/bohr
- [  3.09176808E-31,   2.40933816E-20,  -5.73915716E-20, ]
- [ -3.71012170E-31,   2.40933816E-20,  -5.73915716E-20, ]
- [  2.80906144E-20,   1.57528947E-03,  -8.54821859E-20, ]
- [  1.90178388E-19,  -1.66085007E-19,  -1.57528947E-03, ]
- [  2.66620464E-20,  -2.56866475E-21,   1.57528947E-03, ]
- [ -2.99683710E-19,  -1.57528947E-03,   2.42292138E-19, ]
- [  1.57528947E-03,  -2.56866475E-21,  -3.07295252E-20, ]
- [ -1.57528947E-03,   5.07554280E-20,  -8.40536179E-20, ]
- [ -0.00000000E+00,   2.40933816E-20,  -5.73915716E-20, ]
force_length_stats: {min:   6.22437428E-20, max:   1.57528947E-03, mean:   1.05019298E-03, }
...

 Integrated electronic density in atomic spheres:
 ------------------------------------------------
 Atom  Sphere_radius  Integrated_density
    1        2.00000          4.45670054
    2        2.00000          4.45670054
    3        2.00000          2.86817620
    4        2.00000          2.86817620
    5        2.00000          2.86817620
    6        2.00000          2.86817620
    7        2.00000          2.86817620
    8        2.00000          2.86817620
    9        2.00000          8.31915182
================================================================================

 ----iterations are completed or convergence reached----

 Mean square residual over all n,k,spin=   36.796E-07; max=  97.949E-05
 reduced coordinates (array xred) for    9 atoms
       0.250000000000      0.250000000000      0.250000000000
       0.750000000000      0.750000000000      0.750000000000
       0.748927572080      0.251072427920      0.748927572080
       0.251072427920      0.251072427920      0.748927572080
       0.748927572080      0.748927572080      0.251072427920
       0.251072427920      0.748927572080      0.251072427920
       0.251072427920      0.748927572080      0.748927572080
       0.748927572080      0.251072427920      0.251072427920
       0.000000000000      0.000000000000     -0.000000000000
 rms dE/dt=  1.1165E-02; max dE/dt=  1.6747E-02; dE/dt below (all hartree)
    1       0.000000000000     -0.000000000000     -0.000000000000
    2      -0.000000000000      0.000000000000      0.000000000000
    3      -0.016747217130      0.000000000000     -0.016747217130
    4       0.016747217130      0.016747217130      0.000000000000
    5      -0.016747217130     -0.016747217130      0.000000000000
    6       0.016747217130      0.000000000000      0.016747217130
    7       0.000000000000     -0.016747217130     -0.016747217130
    8      -0.000000000000      0.016747217130      0.016747217130
    9       0.000000000000      0.000000000000      0.000000000000

 cartesian coordinates (angstrom) at end:
    1      2.81289433071116     2.81289433071116     2.81289433071116
    2      8.43868299213349     8.43868299213349     8.43868299213349
    3      5.62578866142233     8.42661648646843     5.62578866142233
    4      5.62578866142233     5.62578866142233     2.82496083637622
    5      5.62578866142233     5.62578866142233     8.42661648646843
    6      5.62578866142233     2.82496083637622     5.62578866142233
    7      8.42661648646843     5.62578866142233     5.62578866142233
    8      2.82496083637622     5.62578866142233     5.62578866142233
    9     -0.00000000000000    -0.00000000000000     0.00000000000000

 cartesian forces (hartree/bohr) at end:
    1      0.00000000000000     0.00000000000000    -0.00000000000000
    2     -0.00000000000000     0.00000000000000    -0.00000000000000
    3      0.00000000000000     0.00157528946534    -0.00000000000000
    4      0.00000000000000    -0.00000000000000    -0.00157528946534
    5      0.00000000000000    -0.00000000000000     0.00157528946534
    6     -0.00000000000000    -0.00157528946534     0.00000000000000
    7      0.00157528946534    -0.00000000000000    -0.00000000000000
    8     -0.00157528946534     0.00000000000000    -0.00000000000000
    9     -0.00000000000000     0.00000000000000    -0.00000000000000
 frms,max,avg= 7.4259858E-04 1.5752895E-03   0.000E+00  0.000E+00  0.000E+00 h/b

 cartesian forces (eV/Angstrom) at end:
    1      0.00000000000000     0.00000000000000    -0.00000000000000
    2     -0.00000000000000     0.00000000000000    -0.00000000000000
    3      0.00000000000000     0.08100463443262    -0.00000000000000
    4      0.00000000000000    -0.00000000000000    -0.08100463443262
    5      0.00000000000000    -0.00000000000000     0.08100463443262
    6     -0.00000000000000    -0.08100463443262     0.00000000000000
    7      0.08100463443262    -0.00000000000000    -0.00000000000000
    8     -0.08100463443262     0.00000000000000    -0.00000000000000
    9     -0.00000000000000     0.00000000000000    -0.00000000000000
 frms,max,avg= 3.8185951E-02 8.1004634E-02   0.000E+00  0.000E+00  0.000E+00 e/A
 length scales= 15.034787014332 15.034787014332 15.034787014332 bohr
              =  7.956066623989  7.956066623989  7.956066623989 angstroms
 prteigrs : about to open file Cs2TiI6o_DS3_EIG
 Fermi (or HOMO) energy (hartree) =   0.08793   Average Vxc (hartree)=  -0.32589
 Eigenvalues (hartree) for nkpt=  72  k points:
 kpt#   1, nband= 42, wtk=  0.00058, kpt=  0.0000  0.0000  0.0000 (reduced coord)
  -2.23660   -1.05951   -1.05951   -1.05951   -0.66270   -0.66240   -0.36253   -0.33478
  -0.33478   -0.33478   -0.32881   -0.32881   -0.18609   -0.18609   -0.18609   -0.18234
  -0.18234   -0.18234   -0.08331   -0.01505   -0.01505   -0.01505   -0.00999   -0.00999
  -0.00999    0.01506    0.01506    0.04931    0.04931    0.04931    0.08044    0.08044
   0.08044    0.08793    0.08793    0.08793    0.15673    0.15673    0.15673    0.21143
   0.23135    0.23135
 prteigrs : prtvol=0 or 1, do not print more k-points.


--- !EnergyTerms
iteration_state     : {dtset: 3, }
comment             : Components of total free energy in Hartree
kinetic             :  4.34819153870091E+01
hartree             :  2.98152887162215E+01
xc                  : -5.23083718273616E+01
Ewald energy        : -1.23927519597361E+02
psp_core            :  5.47088914233348E+00
local_psp           : -1.05077105622481E+02
non_local_psp       :  2.09954036573309E+01
total_energy        : -1.81549500144308E+02
...


--- !EnergyTermsDC
iteration_state     : {dtset: 3, }
comment             : '"Double-counting" decomposition of free energy'
band_energy         : -1.89459918073676E+01
Ewald energy        : -1.23927519597361E+02
psp_core            :  5.47088914233348E+00
xc_dc               : -4.41468001421701E+01
total_energy_dc     : -1.81549422404565E+02
...


 Cartesian components of stress tensor (hartree/bohr^3)
  sigma(1 1)= -6.01891806E-04  sigma(3 2)=  0.00000000E+00
  sigma(2 2)= -6.01891806E-04  sigma(3 1)=  0.00000000E+00
  sigma(3 3)= -6.01891806E-04  sigma(2 1)=  0.00000000E+00

-Cartesian components of stress tensor (GPa)         [Pressure=  1.7708E+01 GPa]
- sigma(1 1)= -1.77082653E+01  sigma(3 2)=  0.00000000E+00
- sigma(2 2)= -1.77082653E+01  sigma(3 1)=  0.00000000E+00
- sigma(3 3)= -1.77082653E+01  sigma(2 1)=  0.00000000E+00

================================================================================
== DATASET  4 ==================================================================
-   mpi_nproc: 6, omp_nthreads: -1 (-1 if OMP is not activated)


--- !DatasetInfo
iteration_state: {dtset: 4, }
dimensions: {natom: 9, nkpt: 72, mband: 42, nsppol: 1, nspinor: 1, nspden: 1, mpw: 13499, }
cutoff_energies: {ecut:  24.0, pawecutdg:  -1.0, }
electrons: {nelect:   7.20000000E+01, charge:   0.00000000E+00, occopt:   1.00000000E+00, tsmear:   1.00000000E-02, }
meta: {optdriver: 0, ionmov: 0, optcell: 0, iscf: 17, paral_kgb: 0, }
...

 mkfilename : getden/=0, take file _DEN from output of DATASET   3.

 Exchange-correlation functional for the present dataset will be:
  Meta-GGA fake2 - ixc=32

 Real(R)+Recip(G) space primitive vectors, cartesian coordinates (Bohr,Bohr^-1):
 R(1)=  0.0000000 10.6198539 10.6198539  G(1)= -0.0470816  0.0470816  0.0470816
 R(2)= 10.6198539  0.0000000 10.6198539  G(2)=  0.0470816 -0.0470816  0.0470816
 R(3)= 10.6198539 10.6198539  0.0000000  G(3)=  0.0470816  0.0470816 -0.0470816
 Unit cell volume ucvol=  2.3954418E+03 bohr^3
 Angles (23,13,12)=  6.00000000E+01  6.00000000E+01  6.00000000E+01 degrees

 getcut: wavevector=  0.0000  0.0000  0.0000  ngfft=  72  72  72
         ecut(hartree)=     24.000   => boxcut(ratio)=   2.17384
--------------------------------------------------------------------------------

_setup2: Arith. and geom. avg. npw (full set) are   13453.299   13453.290

================================================================================

--- !BeginCycle
iteration_state: {dtset: 4, }
solver: {iscf: 17, nstep: 2500, nline: 4, wfoptalg: 0, }
tolerances: {toldfe: 1.00E-08, }
...

     iter   Etot(hartree)      deltaE(h)  residm     nres2
 ETOT  1  -181.47899006083    -1.815E+02 3.011E-02 8.764E-02
 ETOT  2  -181.55307003755    -7.408E-02 7.365E-03 3.404E-01
 ETOT  3  -181.54962952801     3.441E-03 2.383E-03 3.278E-02
 ETOT  4  -181.54954135781     8.817E-05 1.695E-03 1.701E-02
 ETOT  5  -181.54936862580     1.727E-04 1.836E-03 2.614E-04
 ETOT  6  -181.54936607380     2.552E-06 9.970E-04 3.564E-06
 ETOT  7  -181.54936608025    -6.454E-09 8.186E-04 5.228E-07
 ETOT  8  -181.54936607483     5.419E-09 6.589E-04 9.586E-08

 At SCF step    8, etot is converged : 
  for the second time, diff in etot=  5.419E-09 < toldfe=  1.000E-08

 Cartesian components of stress tensor (hartree/bohr^3)
  sigma(1 1)= -6.05878508E-04  sigma(3 2)=  0.00000000E+00
  sigma(2 2)= -6.05878508E-04  sigma(3 1)=  0.00000000E+00
  sigma(3 3)= -6.05878508E-04  sigma(2 1)=  0.00000000E+00


--- !ResultsGS
iteration_state: {dtset: 4, }
comment   : Summary of ground state results
lattice_vectors:
- [  0.0000000,  10.6198539,  10.6198539, ]
- [ 10.6198539,   0.0000000,  10.6198539, ]
- [ 10.6198539,  10.6198539,   0.0000000, ]
lattice_lengths: [  15.01874,   15.01874,   15.01874, ]
lattice_angles: [ 60.000,  60.000,  60.000, ] # degrees, (23, 13, 12)
lattice_volume:   2.3954418E+03
convergence: {deltae:  5.419E-09, res2:  9.586E-08, residm:  6.589E-04, diffor: null, }
etotal    :  -1.81549366E+02
entropy   :   0.00000000E+00
fermie    :   8.90398936E-02
cartesian_stress_tensor: # hartree/bohr^3
- [ -6.05878508E-04,   0.00000000E+00,   0.00000000E+00, ]
- [  0.00000000E+00,  -6.05878508E-04,   0.00000000E+00, ]
- [  0.00000000E+00,   0.00000000E+00,  -6.05878508E-04, ]
pressure_GPa:   1.7826E+01
xred      :
- [  2.5000E-01,   2.5000E-01,   2.5000E-01, Cs]
- [  7.5000E-01,   7.5000E-01,   7.5000E-01, Cs]
- [  7.4875E-01,   2.5125E-01,   7.4875E-01,  I]
[...]
                       5.6017724878E+00  5.6017724878E+00  8.3826388763E+00
                       5.6017724878E+00  2.8209060994E+00  5.6017724878E+00
                       8.3826388763E+00  5.6017724878E+00  5.6017724878E+00
                       2.8209060994E+00  5.6017724878E+00  5.6017724878E+00
                       8.2498396650E-20  1.1575802509E-21 -8.1872582400E-21
           xangst8     2.7978842222E+00  2.7978842222E+00  2.7978842222E+00
                       8.3936526667E+00  8.3936526667E+00  8.3936526667E+00
                       5.5957684444E+00  8.3716863178E+00  5.5957684444E+00
                       5.5957684444E+00  5.5957684444E+00  2.8198505711E+00
                       5.5957684444E+00  5.5957684444E+00  8.3716863178E+00
                       5.5957684444E+00  2.8198505711E+00  5.5957684444E+00
                       8.3716863178E+00  5.5957684444E+00  5.5957684444E+00
                       2.8198505711E+00  5.5957684444E+00  5.5957684444E+00
                       6.5902054095E-21 -1.5703624515E-20  9.4440606758E-20
           xangst9     2.7948822005E+00  2.7948822005E+00  2.7948822005E+00
                       8.3846466016E+00  8.3846466016E+00  8.3846466016E+00
                       5.5897644011E+00  8.3607490407E+00  5.5897644011E+00
                       5.5897644011E+00  5.5897644011E+00  2.8187797614E+00
                       5.5897644011E+00  5.5897644011E+00  8.3607490407E+00
                       5.5897644011E+00  2.8187797614E+00  5.5897644011E+00
                       8.3607490407E+00  5.5897644011E+00  5.5897644011E+00
                       2.8187797614E+00  5.5897644011E+00  5.5897644011E+00
                      -3.7618236706E-20  6.1620327705E-20 -2.3749034704E-20
            xcart1     5.3269459235E+00  5.3269459235E+00  5.3269459235E+00
                       1.5980837770E+01  1.5980837770E+01  1.5980837770E+01
                       1.0653891847E+01  1.5965724907E+01  1.0653891847E+01
                       1.0653891847E+01  1.0653891847E+01  5.3420587870E+00
                       1.0653891847E+01  1.0653891847E+01  1.5965724907E+01
                       1.0653891847E+01  5.3420587870E+00  1.0653891847E+01
                       1.5965724907E+01  1.0653891847E+01  1.0653891847E+01
                       5.3420587870E+00  1.0653891847E+01  1.0653891847E+01
                       5.8792571253E-20 -1.3346320978E-19  2.0816183282E-19
            xcart2     5.3212729246E+00  5.3212729246E+00  5.3212729246E+00
                       1.5963818774E+01  1.5963818774E+01  1.5963818774E+01
                       1.0642545849E+01  1.5944843516E+01  1.0642545849E+01
                       1.0642545849E+01  1.0642545849E+01  5.3402481829E+00
                       1.0642545849E+01  1.0642545849E+01  1.5944843516E+01
                       1.0642545849E+01  5.3402481829E+00  1.0642545849E+01
                       1.5944843516E+01  1.0642545849E+01  1.0642545849E+01
                       5.3402481829E+00  1.0642545849E+01  1.0642545849E+01
                      -9.6237006257E-20 -2.8876187883E-19  1.0639438438E-19
            xcart3     5.3155999258E+00  5.3155999258E+00  5.3155999258E+00
                       1.5946799777E+01  1.5946799777E+01  1.5946799777E+01
                       1.0631199852E+01  1.5923997386E+01  1.0631199852E+01
                       1.0631199852E+01  1.0631199852E+01  5.3384023169E+00
                       1.0631199852E+01  1.0631199852E+01  1.5923997386E+01
                       1.0631199852E+01  5.3384023169E+00  1.0631199852E+01
                       1.5923997386E+01  1.0631199852E+01  1.0631199852E+01
                       5.3384023169E+00  1.0631199852E+01  1.0631199852E+01
                      -2.7511762247E-20 -1.7355004279E-19  2.4153766963E-19
            xcart4     5.3099269269E+00  5.3099269269E+00  5.3099269269E+00
                       1.5929780781E+01  1.5929780781E+01  1.5929780781E+01
                       1.0619853854E+01  1.5903127357E+01  1.0619853854E+01
                       1.0619853854E+01  1.0619853854E+01  5.3365803503E+00
                       1.0619853854E+01  1.0619853854E+01  1.5903127357E+01
                       1.0619853854E+01  5.3365803503E+00  1.0619853854E+01
                       1.5903127357E+01  1.0619853854E+01  1.0619853854E+01
                       5.3365803503E+00  1.0619853854E+01  1.0619853854E+01
                      -3.6449646909E-19 -3.4287777072E-19  1.5294231365E-19
            xcart5     5.3042539281E+00  5.3042539281E+00  5.3042539281E+00
                       1.5912761784E+01  1.5912761784E+01  1.5912761784E+01
                       1.0608507856E+01  1.5882339602E+01  1.0608507856E+01
                       1.0608507856E+01  1.0608507856E+01  5.3346761105E+00
                       1.0608507856E+01  1.0608507856E+01  1.5882339602E+01
                       1.0608507856E+01  5.3346761105E+00  1.0608507856E+01
                       1.5882339602E+01  1.0608507856E+01  1.0608507856E+01
                       5.3346761105E+00  1.0608507856E+01  1.0608507856E+01
                       8.3110683702E-19  2.4271786523E-19 -2.5259908379E-19
            xcart6     5.2985809292E+00  5.2985809292E+00  5.2985809292E+00
                       1.5895742788E+01  1.5895742788E+01  1.5895742788E+01
                       1.0597161858E+01  1.5861592684E+01  1.0597161858E+01
                       1.0597161858E+01  1.0597161858E+01  5.3327310330E+00
                       1.0597161858E+01  1.0597161858E+01  1.5861592684E+01
                       1.0597161858E+01  5.3327310330E+00  1.0597161858E+01
                       1.5861592684E+01  1.0597161858E+01  1.0597161858E+01
                       5.3327310330E+00  1.0597161858E+01  1.0597161858E+01
                       4.1701484044E-19  6.7955136382E-19  4.7852721439E-19
            xcart7     5.2929079304E+00  5.2929079304E+00  5.2929079304E+00
                       1.5878723791E+01  1.5878723791E+01  1.5878723791E+01
                       1.0585815861E+01  1.5840891747E+01  1.0585815861E+01
                       1.0585815861E+01  1.0585815861E+01  5.3307399745E+00
                       1.0585815861E+01  1.0585815861E+01  1.5840891747E+01
                       1.0585815861E+01  5.3307399745E+00  1.0585815861E+01
                       1.5840891747E+01  1.0585815861E+01  1.0585815861E+01
                       5.3307399745E+00  1.0585815861E+01  1.0585815861E+01
                       1.5589937607E-19  2.1875096511E-21 -1.5471675853E-20
            xcart8     5.2872349315E+00  5.2872349315E+00  5.2872349315E+00
                       1.5861704795E+01  1.5861704795E+01  1.5861704795E+01
                       1.0574469863E+01  1.5820194411E+01  1.0574469863E+01
                       1.0574469863E+01  1.0574469863E+01  5.3287453150E+00
                       1.0574469863E+01  1.0574469863E+01  1.5820194411E+01
                       1.0574469863E+01  5.3287453150E+00  1.0574469863E+01
                       1.5820194411E+01  1.0574469863E+01  1.0574469863E+01
                       5.3287453150E+00  1.0574469863E+01  1.0574469863E+01
                       1.2453683383E-20 -2.9675549627E-20  1.7846688260E-19
            xcart9     5.2815619327E+00  5.2815619327E+00  5.2815619327E+00
                       1.5844685798E+01  1.5844685798E+01  1.5844685798E+01
                       1.0563123865E+01  1.5799525953E+01  1.0563123865E+01
                       1.0563123865E+01  1.0563123865E+01  5.3267217780E+00
                       1.0563123865E+01  1.0563123865E+01  1.5799525953E+01
                       1.0563123865E+01  5.3267217780E+00  1.0563123865E+01
                       1.5799525953E+01  1.0563123865E+01  1.0563123865E+01
                       5.3267217780E+00  1.0563123865E+01  1.0563123865E+01
                      -7.1088164977E-20  1.1644554358E-19 -4.4879171512E-20
             xred1     2.5000000000E-01  2.5000000000E-01  2.5000000000E-01
                       7.5000000000E-01  7.5000000000E-01  7.5000000000E-01
                       7.4929073508E-01  2.5070926492E-01  7.4929073508E-01
                       2.5070926492E-01  2.5070926492E-01  7.4929073508E-01
                       7.4929073508E-01  7.4929073508E-01  2.5070926492E-01
                       2.5070926492E-01  7.4929073508E-01  2.5070926492E-01
                       2.5070926492E-01  7.4929073508E-01  7.4929073508E-01
                       7.4929073508E-01  2.5070926492E-01  2.5070926492E-01
                       7.4649020348E-22  1.8792081786E-20 -1.3273669163E-20
             xred2     2.5000000000E-01  2.5000000000E-01  2.5000000000E-01
                       7.5000000000E-01  7.5000000000E-01  7.5000000000E-01
                       7.4910851884E-01  2.5089148116E-01  7.4910851884E-01
                       2.5089148116E-01  2.5089148116E-01  7.4910851884E-01
                       7.4910851884E-01  7.4910851884E-01  2.5089148116E-01
                       2.5089148116E-01  7.4910851884E-01  2.5089148116E-01
                       2.5089148116E-01  7.4910851884E-01  7.4910851884E-01
                       7.4910851884E-01  2.5089148116E-01  2.5089148116E-01
                      -4.0465171311E-21  1.4043597330E-20 -2.3086265092E-20
             xred3     2.5000000000E-01  2.5000000000E-01  2.5000000000E-01
                       7.5000000000E-01  7.5000000000E-01  7.5000000000E-01
                       7.4892757208E-01  2.5107242792E-01  7.4892757208E-01
                       2.5107242792E-01  2.5107242792E-01  7.4892757208E-01
                       7.4892757208E-01  7.4892757208E-01  2.5107242792E-01
                       2.5107242792E-01  7.4892757208E-01  2.5107242792E-01
                       2.5107242792E-01  7.4892757208E-01  7.4892757208E-01
                       7.4892757208E-01  2.5107242792E-01  2.5107242792E-01
                       4.4914680573E-21  1.8228231789E-20 -2.0816064078E-20
             xred4     2.5000000000E-01  2.5000000000E-01  2.5000000000E-01
                       7.5000000000E-01  7.5000000000E-01  7.5000000000E-01
                       7.4874511346E-01  2.5125488654E-01  7.4874511346E-01
                       2.5125488654E-01  2.5125488654E-01  7.4874511346E-01
                       7.4874511346E-01  7.4874511346E-01  2.5125488654E-01
                       2.5125488654E-01  7.4874511346E-01  2.5125488654E-01
                       2.5125488654E-01  7.4874511346E-01  7.4874511346E-01
                       7.4874511346E-01  2.5125488654E-01  2.5125488654E-01
                       8.2186164905E-21  6.1829294968E-21 -4.0505103239E-20
             xred5     2.5000000000E-01  2.5000000000E-01  2.5000000000E-01
                       7.5000000000E-01  7.5000000000E-01  7.5000000000E-01
                       7.4856614225E-01  2.5143385775E-01  7.4856614225E-01
                       2.5143385775E-01  2.5143385775E-01  7.4856614225E-01
                       7.4856614225E-01  7.4856614225E-01  2.5143385775E-01
                       2.5143385775E-01  7.4856614225E-01  2.5143385775E-01
                       2.5143385775E-01  7.4856614225E-01  7.4856614225E-01
                       7.4856614225E-01  2.5143385775E-01  2.5143385775E-01
                      -3.9637433793E-20  1.5826442915E-20  6.2516981843E-20
             xred6     2.5000000000E-01  2.5000000000E-01  2.5000000000E-01
                       7.5000000000E-01  7.5000000000E-01  7.5000000000E-01
                       7.4838871463E-01  2.5161128537E-01  7.4838871463E-01
                       2.5161128537E-01  2.5161128537E-01  7.4838871463E-01
                       7.4838871463E-01  7.4838871463E-01  2.5161128537E-01
                       2.5161128537E-01  7.4838871463E-01  2.5161128537E-01
                       2.5161128537E-01  7.4838871463E-01  7.4838871463E-01
                       7.4838871463E-01  2.5161128537E-01  2.5161128537E-01
                       3.4965198591E-20  1.0190968766E-20  2.9160590266E-20
             xred7     2.5000000000E-01  2.5000000000E-01  2.5000000000E-01
                       7.5000000000E-01  7.5000000000E-01  7.5000000000E-01
                       7.4821307849E-01  2.5178692151E-01  7.4821307849E-01
                       2.5178692151E-01  2.5178692151E-01  7.4821307849E-01
                       7.4821307849E-01  7.4821307849E-01  2.5178692151E-01
                       2.5178692151E-01  7.4821307849E-01  2.5178692151E-01
                       2.5178692151E-01  7.4821307849E-01  7.4821307849E-01
                       7.4821307849E-01  2.5178692151E-01  2.5178692151E-01
                      -7.9910488005E-21  6.5295010033E-21  8.1976941531E-21
             xred8     2.5000000000E-01  2.5000000000E-01  2.5000000000E-01
                       7.5000000000E-01  7.5000000000E-01  7.5000000000E-01
                       7.4803723572E-01  2.5196276428E-01  7.4803723572E-01
                       2.5196276428E-01  2.5196276428E-01  7.4803723572E-01
                       7.4803723572E-01  7.4803723572E-01  2.5196276428E-01
                       2.5196276428E-01  7.4803723572E-01  2.5196276428E-01
                       2.5196276428E-01  7.4803723572E-01  7.4803723572E-01
                       7.4803723572E-01  2.5196276428E-01  2.5196276428E-01
                       6.4465477396E-21  1.0430599286E-20 -9.2528869709E-21
             xred9     2.5000000000E-01  2.5000000000E-01  2.5000000000E-01
                       7.5000000000E-01  7.5000000000E-01  7.5000000000E-01
                       7.4786238210E-01  2.5213761790E-01  7.4786238210E-01
                       2.5213761790E-01  2.5213761790E-01  7.4786238210E-01
                       7.4786238210E-01  7.4786238210E-01  2.5213761790E-01
                       2.5213761790E-01  7.4786238210E-01  2.5213761790E-01
                       2.5213761790E-01  7.4786238210E-01  7.4786238210E-01
                       7.4786238210E-01  2.5213761790E-01  2.5213761790E-01
                       6.7524786638E-21 -1.1001143366E-20  4.2713003874E-21
            znucl       55.00000   53.00000   72.00000

================================================================================


- Timing analysis has been suppressed with timopt=0



================================================================================

 Suggested references for the acknowledgment of ABINIT usage.

 The users of ABINIT have little formal obligations with respect to the ABINIT group
 (those specified in the GNU General Public License, http://www.gnu.org/copyleft/gpl.txt).
 However, it is common practice in the scientific literature,
 to acknowledge the efforts of people that have made the research possible.
 In this spirit, please find below suggested citations of work written by ABINIT developers,
 corresponding to implementations inside of ABINIT that you have used in the present run.
 Note also that it will be of great value to readers of publications presenting these results,
 to read papers enabling them to understand the theoretical formalism and details
 of the ABINIT implementation.
 For information on why they are suggested, see also https://docs.abinit.org/theory/acknowledgments.
-
- [1] The Abinit project: Impact, environment and recent developments.
- Computer Phys. Comm. 248, 107042 (2020).
- X.Gonze, B. Amadon, G. Antonius, F.Arnardi, L.Baguet, J.-M.Beuken,
- J.Bieder, F.Bottin, J.Bouchet, E.Bousquet, N.Brouwer, F.Bruneval,
- G.Brunin, T.Cavignac, J.-B. Charraud, Wei Chen, M.Cote, S.Cottenier,
- J.Denier, G.Geneste, Ph.Ghosez, M.Giantomassi, Y.Gillet, O.Gingras,
- D.R.Hamann, G.Hautier, Xu He, N.Helbig, N.Holzwarth, Y.Jia, F.Jollet,
- W.Lafargue-Dit-Hauret, K.Lejaeghere, M.A.L.Marques, A.Martin, C.Martins,
- H.P.C. Miranda, F.Naccarato, K. Persson, G.Petretto, V.Planes, Y.Pouillon,
- S.Prokhorenko, F.Ricci, G.-M.Rignanese, A.H.Romero, M.M.Schmitt, M.Torrent,
- M.J.van Setten, B.Van Troeye, M.J.Verstraete, G.Zerah and J.W.Zwanzig
- Comment: the fifth generic paper describing the ABINIT project.
- Note that a version of this paper, that is not formatted for Computer Phys. Comm. 
- is available at https://www.abinit.org/sites/default/files/ABINIT20.pdf .
- The licence allows the authors to put it on the Web.
- DOI and bibtex: see https://docs.abinit.org/theory/bibliography/#gonze2020
-
- [2] Optimized norm-conserving Vanderbilt pseudopotentials.
- D.R. Hamann, Phys. Rev. B 88, 085117 (2013).
- Comment: Some pseudopotential generated using the ONCVPSP code were used.
- DOI and bibtex: see https://docs.abinit.org/theory/bibliography/#hamann2013
-
- [3] ABINIT: Overview, and focus on selected capabilities
- J. Chem. Phys. 152, 124102 (2020).
- A. Romero, D.C. Allan, B. Amadon, G. Antonius, T. Applencourt, L.Baguet,
- J.Bieder, F.Bottin, J.Bouchet, E.Bousquet, F.Bruneval,
- G.Brunin, D.Caliste, M.Cote,
- J.Denier, C. Dreyer, Ph.Ghosez, M.Giantomassi, Y.Gillet, O.Gingras,
- D.R.Hamann, G.Hautier, F.Jollet, G. Jomard,
- A.Martin, 
- H.P.C. Miranda, F.Naccarato, G.Petretto, N.A. Pike, V.Planes,
- S.Prokhorenko, T. Rangel, F.Ricci, G.-M.Rignanese, M.Royo, M.Stengel, M.Torrent,
- M.J.van Setten, B.Van Troeye, M.J.Verstraete, J.Wiktor, J.W.Zwanziger, and X.Gonze.
- Comment: a global overview of ABINIT, with focus on selected capabilities .
- Note that a version of this paper, that is not formatted for J. Chem. Phys 
- is available at https://www.abinit.org/sites/default/files/ABINIT20_JPC.pdf .
- The licence allows the authors to put it on the Web.
- DOI and bibtex: see https://docs.abinit.org/theory/bibliography/#romero2020
-
- [4] Recent developments in the ABINIT software package.
- Computer Phys. Comm. 205, 106 (2016).
- X.Gonze, F.Jollet, F.Abreu Araujo, D.Adams, B.Amadon, T.Applencourt,
- C.Audouze, J.-M.Beuken, J.Bieder, A.Bokhanchuk, E.Bousquet, F.Bruneval
- D.Caliste, M.Cote, F.Dahm, F.Da Pieve, M.Delaveau, M.Di Gennaro,
- B.Dorado, C.Espejo, G.Geneste, L.Genovese, A.Gerossier, M.Giantomassi,
- Y.Gillet, D.R.Hamann, L.He, G.Jomard, J.Laflamme Janssen, S.Le Roux,
- A.Levitt, A.Lherbier, F.Liu, I.Lukacevic, A.Martin, C.Martins,
- M.J.T.Oliveira, S.Ponce, Y.Pouillon, T.Rangel, G.-M.Rignanese,
- A.H.Romero, B.Rousseau, O.Rubel, A.A.Shukri, M.Stankovski, M.Torrent,
- M.J.Van Setten, B.Van Troeye, M.J.Verstraete, D.Waroquier, J.Wiktor,
- B.Xu, A.Zhou, J.W.Zwanziger.
- Comment: the fourth generic paper describing the ABINIT project.
- Note that a version of this paper, that is not formatted for Computer Phys. Comm. 
- is available at https://www.abinit.org/sites/default/files/ABINIT16.pdf .
- The licence allows the authors to put it on the Web.
- DOI and bibtex: see https://docs.abinit.org/theory/bibliography/#gonze2016
-
- And optionally:
-
- [5] ABINIT: First-principles approach of materials and nanosystem properties.
- Computer Phys. Comm. 180, 2582-2615 (2009).
- X. Gonze, B. Amadon, P.-M. Anglade, J.-M. Beuken, F. Bottin, P. Boulanger, F. Bruneval,
- D. Caliste, R. Caracas, M. Cote, T. Deutsch, L. Genovese, Ph. Ghosez, M. Giantomassi
- S. Goedecker, D.R. Hamann, P. Hermet, F. Jollet, G. Jomard, S. Leroux, M. Mancini, S. Mazevet,
- M.J.T. Oliveira, G. Onida, Y. Pouillon, T. Rangel, G.-M. Rignanese, D. Sangalli, R. Shaltaf,
- M. Torrent, M.J. Verstraete, G. Zerah, J.W. Zwanziger
- Comment: the third generic paper describing the ABINIT project.
- Note that a version of this paper, that is not formatted for Computer Phys. Comm. 
- is available at https://www.abinit.org/sites/default/files/ABINIT_CPC_v10.pdf .
- The licence allows the authors to put it on the Web.
- DOI and bibtex: see https://docs.abinit.org/theory/bibliography/#gonze2009
-
- Proc.   0 individual time (sec): cpu=       5558.9  wall=       5559.5

================================================================================

 Calculation completed.
.Delivered   0 WARNINGs and   0 COMMENTs to log file.
+Overall time at end (sec) : cpu=      33352.8  wall=      33356.7
