
.Version 9.2.2 of ABINIT 
.(MPI version, prepared for a x86_64_linux_gnu9.3 computer) 

.Copyright (C) 1998-2020 ABINIT group . 
 ABINIT comes with ABSOLUTELY NO WARRANTY.
 It is free software, and you are welcome to redistribute it
 under certain conditions (GNU General Public License,
 see ~abinit/COPYING or http://www.gnu.org/copyleft/gpl.txt).

 ABINIT is a project of the Universite Catholique de Louvain,
 Corning Inc. and other collaborators, see ~abinit/doc/developers/contributors.txt .
 Please read https://docs.abinit.org/theory/acknowledgments for suggested
 acknowledgments of the ABINIT effort.
 For more information, see https://www.abinit.org .

.Starting date : Sun 26 Feb 2023.
- ( at 21h01 )
  
- The starting date is more than 2 years after the initial release
- of this version of ABINIT, namely Nov 2020.
- Note that the use beyond 3 years after the release will not be supported.
- Action: please, switch to a more recent version of ABINIT.

- input  file    -> Cs2TiI6.in
- output file    -> Cs2TiI6.out
- root for input  files -> Cs2TiI6i
- root for output files -> Cs2TiI6o

- inpspheads : Reading pseudopotential header in XML form from 
-   ../../../Psps_for_tests/ATOMICDATA/Cs.GGA_PBE-JTH.xml
- inpspheads : Reading pseudopotential header in XML form from 
-   ../../../Psps_for_tests/ATOMICDATA/I.GGA_PBE-JTH.xml
- inpspheads : Reading pseudopotential header in XML form from 
-   ../../../Psps_for_tests/ATOMICDATA/Zr.GGA_PBE-JTH.xml

 DATASET    1 : space group Fm -3 m (#225); Bravais cF (face-center cubic)
================================================================================
 Values of the parameters that define the memory need for DATASET  1.
     intxc =       0    ionmov =       0      iscf =      17    lmnmax =      18
     lnmax =       6     mgfft =      60  mpssoang =       3    mqgrid =    3733
     natom =       9  nloc_mem =       2    nspden =       1   nspinor =       1
    nsppol =       1      nsym =      48    n1xccc =       1    ntypat =       3
    occopt =       1   xclevel =       2
-    mband =          42        mffmem =           1         mkmem =           5
       mpw =        8981          nfft =      216000          nkpt =          28
Pmy_natom=         2
 PAW method is used; the additional fine FFT grid is defined by:
   mgfftf=        96    nfftf =    884736
================================================================================
P This job should need less than                     278.810 Mbytes of memory.
  Rough estimation (10% accuracy) of disk space for files :
_ WF disk file :    161.160 Mbytes ; DEN or POT disk file :      6.752 Mbytes.
================================================================================


 DATASET    2 : space group Fm -3 m (#225); Bravais cF (face-center cubic)
================================================================================
 Values of the parameters that define the memory need for DATASET  2.
     intxc =       0    ionmov =       0      iscf =      -2    lmnmax =      18
     lnmax =       6     mgfft =      60  mpssoang =       3    mqgrid =    3733
     natom =       9  nloc_mem =       2    nspden =       1   nspinor =       1
    nsppol =       1      nsym =      48    n1xccc =       1    ntypat =       3
    occopt =       1   xclevel =       2
-    mband =         100        mffmem =           1         mkmem =           5
       mpw =        8981          nfft =      216000          nkpt =          28
Pmy_natom=         2
 PAW method is used; the additional fine FFT grid is defined by:
   mgfftf=        96    nfftf =    884736
================================================================================
P This job should need less than                     265.177 Mbytes of memory.
  Rough estimation (10% accuracy) of disk space for files :
_ WF disk file :    383.712 Mbytes ; DEN or POT disk file :      6.752 Mbytes.
================================================================================


 DATASET    3 : space group Fm -3 m (#225); Bravais cF (face-center cubic)
================================================================================
 Values of the parameters that define the memory need for DATASET  3.
     intxc =       0    ionmov =       0      iscf =      -2    lmnmax =      18
     lnmax =       6     mgfft =      60  mpssoang =       3    mqgrid =    3733
     natom =       9  nloc_mem =       2    nspden =       1   nspinor =       1
    nsppol =       1      nsym =      48    n1xccc =       1    ntypat =       3
    occopt =       1   xclevel =       2
-    mband =         100        mffmem =           1         mkmem =          72
       mpw =        8981          nfft =      216000          nkpt =         432
Pmy_natom=         2
 PAW method is used; the additional fine FFT grid is defined by:
   mgfftf=        96    nfftf =    884736
================================================================================
P This job should need less than                    1282.633 Mbytes of memory.
  Rough estimation (10% accuracy) of disk space for files :
_ WF disk file :   5920.095 Mbytes ; DEN or POT disk file :      6.752 Mbytes.
================================================================================


 DATASET    4 : space group Fm -3 m (#225); Bravais cF (face-center cubic)
================================================================================
 Values of the parameters that define the memory need for DATASET  4 (RF).
     intxc =       0      iscf =      -3    lmnmax =      18     lnmax =       6
     mgfft =      60  mpssoang =       3    mqgrid =    3001     natom =       9
  nloc_mem =       2    nspden =       1   nspinor =       1    nsppol =       1
      nsym =      48    n1xccc =       1    ntypat =       3    occopt =       1
   xclevel =       2
-    mband =         100        mffmem =           1         mkmem =          72
-   mkqmem =          72        mk1mem =          72           mpw =        8981
      nfft =      216000          nkpt =         432
Pmy_natom=         2
================================================================================
P This job should need less than                    3212.683 Mbytes of memory.
  Rough estimation (10% accuracy) of disk space for files :
_ WF disk file :   1824.095 Mbytes ; DEN or POT disk file :      1.650 Mbytes.
================================================================================


 DATASET    5 : space group Fm -3 m (#225); Bravais cF (face-center cubic)
================================================================================
 Values of the parameters that define the memory need for DATASET  5 (RF).
     intxc =       0      iscf =      -3    lmnmax =      18     lnmax =       6
     mgfft =      60  mpssoang =       3    mqgrid =    3001     natom =       9
  nloc_mem =       2    nspden =       1   nspinor =       1    nsppol =       1
      nsym =      48    n1xccc =       1    ntypat =       3    occopt =       1
   xclevel =       2
-    mband =         100        mffmem =           1         mkmem =          72
-   mkqmem =          72        mk1mem =          72           mpw =        8981
      nfft =      216000          nkpt =         432
Pmy_natom=         2
================================================================================
P This job should need less than                    3212.683 Mbytes of memory.
  Rough estimation (10% accuracy) of disk space for files :
_ WF disk file :   1824.095 Mbytes ; DEN or POT disk file :      1.650 Mbytes.
================================================================================


 DATASET    6 : space group Fm -3 m (#225); Bravais cF (face-center cubic)
================================================================================
 Values of the parameters that define the memory need for DATASET  6 (RF).
     intxc =       0      iscf =      -3    lmnmax =      18     lnmax =       6
     mgfft =      60  mpssoang =       3    mqgrid =    3001     natom =       9
  nloc_mem =       2    nspden =       1   nspinor =       1    nsppol =       1
      nsym =      48    n1xccc =       1    ntypat =       3    occopt =       1
   xclevel =       2
-    mband =         100        mffmem =           1         mkmem =          72
-   mkqmem =          72        mk1mem =          72           mpw =        8981
      nfft =      216000          nkpt =         432
Pmy_natom=         2
================================================================================
P This job should need less than                    3212.683 Mbytes of memory.
  Rough estimation (10% accuracy) of disk space for files :
_ WF disk file :   1824.095 Mbytes ; DEN or POT disk file :      1.650 Mbytes.
================================================================================

--------------------------------------------------------------------------------
------------- Echo of variables that govern the present computation ------------
--------------------------------------------------------------------------------
-
- outvars: echo of selected default values                                      
-   iomode0 =  0 , fftalg0 =112 , wfoptalg0 = 10
-
- outvars: echo of global parameters not present in the input file              
-  max_nthreads =    0
-
 -outvars: echo values of preprocessed input variables --------
            acell      1.6056750671E+01  1.6056750671E+01  1.6056750671E+01 Bohr
              amu      1.32905430E+02  1.26904470E+02  9.12240000E+01
           diemac      1.20000000E+01
             ecut      1.60000000E+01 Hartree
-          fftalg         112
           getden1          0
           getden2          1
           getden3          1
           getden4          0
           getden5          0
           getden6          0
           getwfk1          0
           getwfk2          1
           getwfk3          2
           getwfk4          3
           getwfk5          3
           getwfk6          3
             iscf1         17
             iscf2         -2
             iscf3         -2
             iscf4         -3
             iscf5         -3
             iscf6         -3
              ixc     -101130
           jdtset        1    2    3    4    5    6
              kpt1    -8.33333333E-02 -1.66666667E-01  0.00000000E+00
                      -8.33333333E-02 -3.33333333E-01  0.00000000E+00
                      -1.66666667E-01 -2.50000000E-01  0.00000000E+00
                      -8.33333333E-02 -2.50000000E-01  8.33333333E-02
                      -8.33333333E-02  5.00000000E-01  0.00000000E+00
                      -1.66666667E-01 -4.16666667E-01  0.00000000E+00
                      -8.33333333E-02 -4.16666667E-01  8.33333333E-02
                      -2.50000000E-01 -3.33333333E-01  0.00000000E+00
                      -1.66666667E-01 -3.33333333E-01  8.33333333E-02
                      -8.33333333E-02 -3.33333333E-01  1.66666667E-01
                      -8.33333333E-02  3.33333333E-01  0.00000000E+00
                      -1.66666667E-01  4.16666667E-01  0.00000000E+00
                      -2.50000000E-01  5.00000000E-01  0.00000000E+00
                      -1.66666667E-01  5.00000000E-01  8.33333333E-02
                      -3.33333333E-01 -4.16666667E-01  0.00000000E+00
                      -2.50000000E-01 -4.16666667E-01  8.33333333E-02
                      -1.66666667E-01 -4.16666667E-01  1.66666667E-01
                      -8.33333333E-02 -4.16666667E-01  2.50000000E-01
                      -8.33333333E-02  1.66666667E-01  0.00000000E+00
                      -1.66666667E-01  2.50000000E-01  0.00000000E+00
                      -2.50000000E-01  3.33333333E-01  0.00000000E+00
                      -3.33333333E-01  4.16666667E-01  0.00000000E+00
                      -4.16666667E-01  5.00000000E-01  0.00000000E+00
                      -3.33333333E-01  5.00000000E-01  8.33333333E-02
                      -2.50000000E-01  5.00000000E-01  1.66666667E-01
                      -8.33333333E-02  0.00000000E+00  0.00000000E+00
                      -2.50000000E-01  0.00000000E+00  0.00000000E+00
                      -4.16666667E-01  0.00000000E+00  0.00000000E+00
              kpt2    -8.33333333E-02 -1.66666667E-01  0.00000000E+00
                      -8.33333333E-02 -3.33333333E-01  0.00000000E+00
                      -1.66666667E-01 -2.50000000E-01  0.00000000E+00
                      -8.33333333E-02 -2.50000000E-01  8.33333333E-02
                      -8.33333333E-02  5.00000000E-01  0.00000000E+00
                      -1.66666667E-01 -4.16666667E-01  0.00000000E+00
                      -8.33333333E-02 -4.16666667E-01  8.33333333E-02
                      -2.50000000E-01 -3.33333333E-01  0.00000000E+00
                      -1.66666667E-01 -3.33333333E-01  8.33333333E-02
                      -8.33333333E-02 -3.33333333E-01  1.66666667E-01
                      -8.33333333E-02  3.33333333E-01  0.00000000E+00
                      -1.66666667E-01  4.16666667E-01  0.00000000E+00
                      -2.50000000E-01  5.00000000E-01  0.00000000E+00
                      -1.66666667E-01  5.00000000E-01  8.33333333E-02
                      -3.33333333E-01 -4.16666667E-01  0.00000000E+00
                      -2.50000000E-01 -4.16666667E-01  8.33333333E-02
                      -1.66666667E-01 -4.16666667E-01  1.66666667E-01
                      -8.33333333E-02 -4.16666667E-01  2.50000000E-01
                      -8.33333333E-02  1.66666667E-01  0.00000000E+00
                      -1.66666667E-01  2.50000000E-01  0.00000000E+00
                      -2.50000000E-01  3.33333333E-01  0.00000000E+00
                      -3.33333333E-01  4.16666667E-01  0.00000000E+00
                      -4.16666667E-01  5.00000000E-01  0.00000000E+00
                      -3.33333333E-01  5.00000000E-01  8.33333333E-02
                      -2.50000000E-01  5.00000000E-01  1.66666667E-01
                      -8.33333333E-02  0.00000000E+00  0.00000000E+00
                      -2.50000000E-01  0.00000000E+00  0.00000000E+00
                      -4.16666667E-01  0.00000000E+00  0.00000000E+00
              kpt3    -8.33333333E-02 -1.66666667E-01  0.00000000E+00
                      -1.66666667E-01 -8.33333333E-02  0.00000000E+00
                      -8.33333333E-02 -8.33333333E-02  8.33333333E-02
                      -8.33333333E-02 -3.33333333E-01  0.00000000E+00
                      -1.66666667E-01 -2.50000000E-01  0.00000000E+00
                      -8.33333333E-02 -2.50000000E-01  8.33333333E-02
                      -2.50000000E-01 -1.66666667E-01  0.00000000E+00
                      -1.66666667E-01 -1.66666667E-01  8.33333333E-02
                      -8.33333333E-02 -1.66666667E-01  1.66666667E-01
                      -3.33333333E-01 -8.33333333E-02  0.00000000E+00
                      -2.50000000E-01 -8.33333333E-02  8.33333333E-02
                      -1.66666667E-01 -8.33333333E-02  1.66666667E-01
                      -8.33333333E-02 -8.33333333E-02  2.50000000E-01
                      -8.33333333E-02  5.00000000E-01  0.00000000E+00
                      -1.66666667E-01 -4.16666667E-01  0.00000000E+00
                      -8.33333333E-02 -4.16666667E-01  8.33333333E-02
                      -2.50000000E-01 -3.33333333E-01  0.00000000E+00
                      -1.66666667E-01 -3.33333333E-01  8.33333333E-02
                      -8.33333333E-02 -3.33333333E-01  1.66666667E-01
                      -3.33333333E-01 -2.50000000E-01  0.00000000E+00
                      -2.50000000E-01 -2.50000000E-01  8.33333333E-02
                      -1.66666667E-01 -2.50000000E-01  1.66666667E-01
                      -8.33333333E-02 -2.50000000E-01  2.50000000E-01
                      -4.16666667E-01 -1.66666667E-01  0.00000000E+00
                      -3.33333333E-01 -1.66666667E-01  8.33333333E-02
                      -2.50000000E-01 -1.66666667E-01  1.66666667E-01
                      -1.66666667E-01 -1.66666667E-01  2.50000000E-01
                      -8.33333333E-02 -1.66666667E-01  3.33333333E-01
                       5.00000000E-01 -8.33333333E-02  0.00000000E+00
                      -4.16666667E-01 -8.33333333E-02  8.33333333E-02
                      -3.33333333E-01 -8.33333333E-02  1.66666667E-01
                      -2.50000000E-01 -8.33333333E-02  2.50000000E-01
                      -1.66666667E-01 -8.33333333E-02  3.33333333E-01
                      -8.33333333E-02 -8.33333333E-02  4.16666667E-01
                      -8.33333333E-02  3.33333333E-01  0.00000000E+00
                      -1.66666667E-01  4.16666667E-01  0.00000000E+00
                      -8.33333333E-02  4.16666667E-01  8.33333333E-02
                      -2.50000000E-01  5.00000000E-01  0.00000000E+00
                      -1.66666667E-01  5.00000000E-01  8.33333333E-02
                      -8.33333333E-02  5.00000000E-01  1.66666667E-01
                      -3.33333333E-01 -4.16666667E-01  0.00000000E+00
                      -2.50000000E-01 -4.16666667E-01  8.33333333E-02
                      -1.66666667E-01 -4.16666667E-01  1.66666667E-01
                      -8.33333333E-02 -4.16666667E-01  2.50000000E-01
                      -4.16666667E-01 -3.33333333E-01  0.00000000E+00
                      -3.33333333E-01 -3.33333333E-01  8.33333333E-02
                      -2.50000000E-01 -3.33333333E-01  1.66666667E-01
                      -1.66666667E-01 -3.33333333E-01  2.50000000E-01
                      -8.33333333E-02 -3.33333333E-01  3.33333333E-01
                       5.00000000E-01 -2.50000000E-01  0.00000000E+00
              kpt4    -8.33333333E-02 -1.66666667E-01  0.00000000E+00
                      -1.66666667E-01 -8.33333333E-02  0.00000000E+00
                      -8.33333333E-02 -8.33333333E-02  8.33333333E-02
                      -8.33333333E-02 -3.33333333E-01  0.00000000E+00
                      -1.66666667E-01 -2.50000000E-01  0.00000000E+00
                      -8.33333333E-02 -2.50000000E-01  8.33333333E-02
                      -2.50000000E-01 -1.66666667E-01  0.00000000E+00
                      -1.66666667E-01 -1.66666667E-01  8.33333333E-02
                      -8.33333333E-02 -1.66666667E-01  1.66666667E-01
                      -3.33333333E-01 -8.33333333E-02  0.00000000E+00
                      -2.50000000E-01 -8.33333333E-02  8.33333333E-02
                      -1.66666667E-01 -8.33333333E-02  1.66666667E-01
                      -8.33333333E-02 -8.33333333E-02  2.50000000E-01
                      -8.33333333E-02  5.00000000E-01  0.00000000E+00
                      -1.66666667E-01 -4.16666667E-01  0.00000000E+00
                      -8.33333333E-02 -4.16666667E-01  8.33333333E-02
                      -2.50000000E-01 -3.33333333E-01  0.00000000E+00
                      -1.66666667E-01 -3.33333333E-01  8.33333333E-02
                      -8.33333333E-02 -3.33333333E-01  1.66666667E-01
                      -3.33333333E-01 -2.50000000E-01  0.00000000E+00
                      -2.50000000E-01 -2.50000000E-01  8.33333333E-02
                      -1.66666667E-01 -2.50000000E-01  1.66666667E-01
                      -8.33333333E-02 -2.50000000E-01  2.50000000E-01
                      -4.16666667E-01 -1.66666667E-01  0.00000000E+00
                      -3.33333333E-01 -1.66666667E-01  8.33333333E-02
                      -2.50000000E-01 -1.66666667E-01  1.66666667E-01
                      -1.66666667E-01 -1.66666667E-01  2.50000000E-01
                      -8.33333333E-02 -1.66666667E-01  3.33333333E-01
                       5.00000000E-01 -8.33333333E-02  0.00000000E+00
                      -4.16666667E-01 -8.33333333E-02  8.33333333E-02
                      -3.33333333E-01 -8.33333333E-02  1.66666667E-01
                      -2.50000000E-01 -8.33333333E-02  2.50000000E-01
                      -1.66666667E-01 -8.33333333E-02  3.33333333E-01
                      -8.33333333E-02 -8.33333333E-02  4.16666667E-01
                      -8.33333333E-02  3.33333333E-01  0.00000000E+00
                      -1.66666667E-01  4.16666667E-01  0.00000000E+00
                      -8.33333333E-02  4.16666667E-01  8.33333333E-02
                      -2.50000000E-01  5.00000000E-01  0.00000000E+00
                      -1.66666667E-01  5.00000000E-01  8.33333333E-02
                      -8.33333333E-02  5.00000000E-01  1.66666667E-01
                      -3.33333333E-01 -4.16666667E-01  0.00000000E+00
                      -2.50000000E-01 -4.16666667E-01  8.33333333E-02
                      -1.66666667E-01 -4.16666667E-01  1.66666667E-01
                      -8.33333333E-02 -4.16666667E-01  2.50000000E-01
                      -4.16666667E-01 -3.33333333E-01  0.00000000E+00
                      -3.33333333E-01 -3.33333333E-01  8.33333333E-02
                      -2.50000000E-01 -3.33333333E-01  1.66666667E-01
                      -1.66666667E-01 -3.33333333E-01  2.50000000E-01
                      -8.33333333E-02 -3.33333333E-01  3.33333333E-01
                       5.00000000E-01 -2.50000000E-01  0.00000000E+00
              kpt5    -8.33333333E-02 -1.66666667E-01  0.00000000E+00
                      -1.66666667E-01 -8.33333333E-02  0.00000000E+00
                      -8.33333333E-02 -8.33333333E-02  8.33333333E-02
                      -8.33333333E-02 -3.33333333E-01  0.00000000E+00
                      -1.66666667E-01 -2.50000000E-01  0.00000000E+00
                      -8.33333333E-02 -2.50000000E-01  8.33333333E-02
                      -2.50000000E-01 -1.66666667E-01  0.00000000E+00
                      -1.66666667E-01 -1.66666667E-01  8.33333333E-02
                      -8.33333333E-02 -1.66666667E-01  1.66666667E-01
                      -3.33333333E-01 -8.33333333E-02  0.00000000E+00
                      -2.50000000E-01 -8.33333333E-02  8.33333333E-02
                      -1.66666667E-01 -8.33333333E-02  1.66666667E-01
                      -8.33333333E-02 -8.33333333E-02  2.50000000E-01
                      -8.33333333E-02  5.00000000E-01  0.00000000E+00
                      -1.66666667E-01 -4.16666667E-01  0.00000000E+00
                      -8.33333333E-02 -4.16666667E-01  8.33333333E-02
                      -2.50000000E-01 -3.33333333E-01  0.00000000E+00
                      -1.66666667E-01 -3.33333333E-01  8.33333333E-02
                      -8.33333333E-02 -3.33333333E-01  1.66666667E-01
                      -3.33333333E-01 -2.50000000E-01  0.00000000E+00
                      -2.50000000E-01 -2.50000000E-01  8.33333333E-02
                      -1.66666667E-01 -2.50000000E-01  1.66666667E-01
                      -8.33333333E-02 -2.50000000E-01  2.50000000E-01
                      -4.16666667E-01 -1.66666667E-01  0.00000000E+00
                      -3.33333333E-01 -1.66666667E-01  8.33333333E-02
                      -2.50000000E-01 -1.66666667E-01  1.66666667E-01
                      -1.66666667E-01 -1.66666667E-01  2.50000000E-01
                      -8.33333333E-02 -1.66666667E-01  3.33333333E-01
                       5.00000000E-01 -8.33333333E-02  0.00000000E+00
                      -4.16666667E-01 -8.33333333E-02  8.33333333E-02
                      -3.33333333E-01 -8.33333333E-02  1.66666667E-01
                      -2.50000000E-01 -8.33333333E-02  2.50000000E-01
                      -1.66666667E-01 -8.33333333E-02  3.33333333E-01
                      -8.33333333E-02 -8.33333333E-02  4.16666667E-01
                      -8.33333333E-02  3.33333333E-01  0.00000000E+00
                      -1.66666667E-01  4.16666667E-01  0.00000000E+00
                      -8.33333333E-02  4.16666667E-01  8.33333333E-02
                      -2.50000000E-01  5.00000000E-01  0.00000000E+00
                      -1.66666667E-01  5.00000000E-01  8.33333333E-02
                      -8.33333333E-02  5.00000000E-01  1.66666667E-01
                      -3.33333333E-01 -4.16666667E-01  0.00000000E+00
                      -2.50000000E-01 -4.16666667E-01  8.33333333E-02
                      -1.66666667E-01 -4.16666667E-01  1.66666667E-01
                      -8.33333333E-02 -4.16666667E-01  2.50000000E-01
                      -4.16666667E-01 -3.33333333E-01  0.00000000E+00
                      -3.33333333E-01 -3.33333333E-01  8.33333333E-02
                      -2.50000000E-01 -3.33333333E-01  1.66666667E-01
                      -1.66666667E-01 -3.33333333E-01  2.50000000E-01
                      -8.33333333E-02 -3.33333333E-01  3.33333333E-01
                       5.00000000E-01 -2.50000000E-01  0.00000000E+00
              kpt6    -8.33333333E-02 -1.66666667E-01  0.00000000E+00
                      -1.66666667E-01 -8.33333333E-02  0.00000000E+00
                      -8.33333333E-02 -8.33333333E-02  8.33333333E-02
                      -8.33333333E-02 -3.33333333E-01  0.00000000E+00
                      -1.66666667E-01 -2.50000000E-01  0.00000000E+00
                      -8.33333333E-02 -2.50000000E-01  8.33333333E-02
                      -2.50000000E-01 -1.66666667E-01  0.00000000E+00
                      -1.66666667E-01 -1.66666667E-01  8.33333333E-02
                      -8.33333333E-02 -1.66666667E-01  1.66666667E-01
                      -3.33333333E-01 -8.33333333E-02  0.00000000E+00
                      -2.50000000E-01 -8.33333333E-02  8.33333333E-02
                      -1.66666667E-01 -8.33333333E-02  1.66666667E-01
                      -8.33333333E-02 -8.33333333E-02  2.50000000E-01
                      -8.33333333E-02  5.00000000E-01  0.00000000E+00
                      -1.66666667E-01 -4.16666667E-01  0.00000000E+00
                      -8.33333333E-02 -4.16666667E-01  8.33333333E-02
                      -2.50000000E-01 -3.33333333E-01  0.00000000E+00
                      -1.66666667E-01 -3.33333333E-01  8.33333333E-02
                      -8.33333333E-02 -3.33333333E-01  1.66666667E-01
                      -3.33333333E-01 -2.50000000E-01  0.00000000E+00
                      -2.50000000E-01 -2.50000000E-01  8.33333333E-02
                      -1.66666667E-01 -2.50000000E-01  1.66666667E-01
                      -8.33333333E-02 -2.50000000E-01  2.50000000E-01
                      -4.16666667E-01 -1.66666667E-01  0.00000000E+00
                      -3.33333333E-01 -1.66666667E-01  8.33333333E-02
                      -2.50000000E-01 -1.66666667E-01  1.66666667E-01
                      -1.66666667E-01 -1.66666667E-01  2.50000000E-01
                      -8.33333333E-02 -1.66666667E-01  3.33333333E-01
                       5.00000000E-01 -8.33333333E-02  0.00000000E+00
                      -4.16666667E-01 -8.33333333E-02  8.33333333E-02
                      -3.33333333E-01 -8.33333333E-02  1.66666667E-01
                      -2.50000000E-01 -8.33333333E-02  2.50000000E-01
                      -1.66666667E-01 -8.33333333E-02  3.33333333E-01
                      -8.33333333E-02 -8.33333333E-02  4.16666667E-01
                      -8.33333333E-02  3.33333333E-01  0.00000000E+00
                      -1.66666667E-01  4.16666667E-01  0.00000000E+00
                      -8.33333333E-02  4.16666667E-01  8.33333333E-02
                      -2.50000000E-01  5.00000000E-01  0.00000000E+00
                      -1.66666667E-01  5.00000000E-01  8.33333333E-02
                      -8.33333333E-02  5.00000000E-01  1.66666667E-01
                      -3.33333333E-01 -4.16666667E-01  0.00000000E+00
                      -2.50000000E-01 -4.16666667E-01  8.33333333E-02
                      -1.66666667E-01 -4.16666667E-01  1.66666667E-01
                      -8.33333333E-02 -4.16666667E-01  2.50000000E-01
                      -4.16666667E-01 -3.33333333E-01  0.00000000E+00
                      -3.33333333E-01 -3.33333333E-01  8.33333333E-02
                      -2.50000000E-01 -3.33333333E-01  1.66666667E-01
                      -1.66666667E-01 -3.33333333E-01  2.50000000E-01
                      -8.33333333E-02 -3.33333333E-01  3.33333333E-01
                       5.00000000E-01 -2.50000000E-01  0.00000000E+00
                       outvar_i_n : Printing only first  50 k-points.
           kptopt1          1
           kptopt2          1
           kptopt3          2
           kptopt4          2
           kptopt5          2
           kptopt6          2
         kptrlatt        6   -6    6     -6    6    6     -6   -6    6
          kptrlen      1.36246047E+02
P           mkmem1          5
P           mkmem2          5
P           mkmem3         72
P           mkmem4         72
P           mkmem5         72
P           mkmem6         72
P          mkqmem1          5
P          mkqmem2          5
P          mkqmem3         72
P          mkqmem4         72
P          mkqmem5         72
P          mkqmem6         72
P          mk1mem1          5
P          mk1mem2          5
P          mk1mem3         72
P          mk1mem4         72
P          mk1mem5         72
P          mk1mem6         72
            natom           9
            nband1         42
            nband2        100
            nband3        100
            nband4        100
            nband5        100
            nband6        100
           nbdbuf1          0
           nbdbuf2          2
           nbdbuf3          2
           nbdbuf4          2
           nbdbuf5          2
           nbdbuf6          2
           ndtset           6
            ngfft          60      60      60
          ngfftdg          96      96      96
             nkpt1         28
             nkpt2         28
             nkpt3        432
             nkpt4        432
             nkpt5        432
             nkpt6        432
            nline1          4
            nline2          4
            nline3          4
            nline4          0
            nline5          0
            nline6          0
             nqpt1          0
             nqpt2          0
             nqpt3          0
             nqpt4          1
             nqpt5          1
             nqpt6          1
            nstep1        100
            nstep2        200
            nstep3        200
            nstep4          1
            nstep5          1
            nstep6          1
             nsym          48
           ntypat           3
              occ1     2.000000  2.000000  2.000000  2.000000  2.000000  2.000000
                       2.000000  2.000000  2.000000  2.000000  2.000000  2.000000
                       2.000000  2.000000  2.000000  2.000000  2.000000  2.000000
                       2.000000  2.000000  2.000000  2.000000  2.000000  2.000000
                       2.000000  2.000000  2.000000  2.000000  2.000000  2.000000
                       2.000000  2.000000  2.000000  2.000000  2.000000  2.000000
                       0.000000  0.000000  0.000000  0.000000  0.000000  0.000000
              occ4     2.000000  2.000000  2.000000  2.000000  2.000000  2.000000
                       2.000000  2.000000  2.000000  2.000000  2.000000  2.000000
                       2.000000  2.000000  2.000000  2.000000  2.000000  2.000000
                       2.000000  2.000000  2.000000  2.000000  2.000000  2.000000
                       2.000000  2.000000  2.000000  2.000000  2.000000  2.000000
                       2.000000  2.000000  2.000000  2.000000  2.000000  2.000000
                       0.000000  0.000000  0.000000  0.000000  0.000000  0.000000
                       0.000000  0.000000  0.000000  0.000000  0.000000  0.000000
                       0.000000  0.000000  0.000000  0.000000  0.000000  0.000000
                       0.000000  0.000000  0.000000  0.000000  0.000000  0.000000
                       0.000000  0.000000  0.000000  0.000000  0.000000  0.000000
                       0.000000  0.000000  0.000000  0.000000  0.000000  0.000000
                       0.000000  0.000000  0.000000  0.000000  0.000000  0.000000
                       0.000000  0.000000  0.000000  0.000000  0.000000  0.000000
                       0.000000  0.000000  0.000000  0.000000  0.000000  0.000000
                       0.000000  0.000000  0.000000  0.000000  0.000000  0.000000
                       0.000000  0.000000  0.000000  0.000000
              occ5     2.000000  2.000000  2.000000  2.000000  2.000000  2.000000
                       2.000000  2.000000  2.000000  2.000000  2.000000  2.000000
                       2.000000  2.000000  2.000000  2.000000  2.000000  2.000000
                       2.000000  2.000000  2.000000  2.000000  2.000000  2.000000
                       2.000000  2.000000  2.000000  2.000000  2.000000  2.000000
                       2.000000  2.000000  2.000000  2.000000  2.000000  2.000000
                       0.000000  0.000000  0.000000  0.000000  0.000000  0.000000
                       0.000000  0.000000  0.000000  0.000000  0.000000  0.000000
                       0.000000  0.000000  0.000000  0.000000  0.000000  0.000000
                       0.000000  0.000000  0.000000  0.000000  0.000000  0.000000
                       0.000000  0.000000  0.000000  0.000000  0.000000  0.000000
                       0.000000  0.000000  0.000000  0.000000  0.000000  0.000000
                       0.000000  0.000000  0.000000  0.000000  0.000000  0.000000
                       0.000000  0.000000  0.000000  0.000000  0.000000  0.000000
                       0.000000  0.000000  0.000000  0.000000  0.000000  0.000000
                       0.000000  0.000000  0.000000  0.000000  0.000000  0.000000
                       0.000000  0.000000  0.000000  0.000000
              occ6     2.000000  2.000000  2.000000  2.000000  2.000000  2.000000
                       2.000000  2.000000  2.000000  2.000000  2.000000  2.000000
                       2.000000  2.000000  2.000000  2.000000  2.000000  2.000000
                       2.000000  2.000000  2.000000  2.000000  2.000000  2.000000
                       2.000000  2.000000  2.000000  2.000000  2.000000  2.000000
                       2.000000  2.000000  2.000000  2.000000  2.000000  2.000000
                       0.000000  0.000000  0.000000  0.000000  0.000000  0.000000
                       0.000000  0.000000  0.000000  0.000000  0.000000  0.000000
                       0.000000  0.000000  0.000000  0.000000  0.000000  0.000000
                       0.000000  0.000000  0.000000  0.000000  0.000000  0.000000
                       0.000000  0.000000  0.000000  0.000000  0.000000  0.000000
                       0.000000  0.000000  0.000000  0.000000  0.000000  0.000000
                       0.000000  0.000000  0.000000  0.000000  0.000000  0.000000
                       0.000000  0.000000  0.000000  0.000000  0.000000  0.000000
                       0.000000  0.000000  0.000000  0.000000  0.000000  0.000000
                       0.000000  0.000000  0.000000  0.000000  0.000000  0.000000
                       0.000000  0.000000  0.000000  0.000000
        optdriver1          0
        optdriver2          0
        optdriver3          0
        optdriver4          1
        optdriver5          1
        optdriver6          1
        pawecutdg      4.00000000E+01 Hartree
            prtwf1          1
            prtwf2          1
            prtwf3          1
            prtwf4          3
            prtwf5          3
            prtwf6          3
            rfdir1          0       0       0
            rfdir2          0       0       0
            rfdir3          0       0       0
            rfdir4          1       0       0
            rfdir5          0       1       0
            rfdir6          0       0       1
           rfelfd1          0
           rfelfd2          0
           rfelfd3          0
           rfelfd4          2
           rfelfd5          2
           rfelfd6          2
            rprim      0.0000000000E+00  7.0710678119E-01  7.0710678119E-01
                       7.0710678119E-01  0.0000000000E+00  7.0710678119E-01
                       7.0710678119E-01  7.0710678119E-01  0.0000000000E+00
           shiftk      5.00000000E-01  5.00000000E-01  5.00000000E-01
          spgroup         225
           symrel      1  0  0   0  1  0   0  0  1      -1  0  0   0 -1  0   0  0 -1
                       0 -1  1   0 -1  0   1 -1  0       0  1 -1   0  1  0  -1  1  0
                      -1  0  0  -1  0  1  -1  1  0       1  0  0   1  0 -1   1 -1  0
                       0  1 -1   1  0 -1   0  0 -1       0 -1  1  -1  0  1   0  0  1
                      -1  0  0  -1  1  0  -1  0  1       1  0  0   1 -1  0   1  0 -1
                       0 -1  1   1 -1  0   0 -1  0       0  1 -1  -1  1  0   0  1  0
                       1  0  0   0  0  1   0  1  0      -1  0  0   0  0 -1   0 -1  0
                       0  1 -1   0  0 -1   1  0 -1       0 -1  1   0  0  1  -1  0  1
                      -1  0  1  -1  1  0  -1  0  0       1  0 -1   1 -1  0   1  0  0
                       0 -1  0   1 -1  0   0 -1  1       0  1  0  -1  1  0   0  1 -1
                       1  0 -1   0  0 -1   0  1 -1      -1  0  1   0  0  1   0 -1  1
                       0  1  0   0  0  1   1  0  0       0 -1  0   0  0 -1  -1  0  0
                       1  0 -1   0  1 -1   0  0 -1      -1  0  1   0 -1  1   0  0  1
                       0 -1  0   0 -1  1   1 -1  0       0  1  0   0  1 -1  -1  1  0
                      -1  0  1  -1  0  0  -1  1  0       1  0 -1   1  0  0   1 -1  0
                       0  1  0   1  0  0   0  0  1       0 -1  0  -1  0  0   0  0 -1
                       0  0 -1   0  1 -1   1  0 -1       0  0  1   0 -1  1  -1  0  1
                       1 -1  0   0 -1  1   0 -1  0      -1  1  0   0  1 -1   0  1  0
                       0  0  1   1  0  0   0  1  0       0  0 -1  -1  0  0   0 -1  0
                      -1  1  0  -1  0  0  -1  0  1       1 -1  0   1  0  0   1  0 -1
                       0  0  1   0  1  0   1  0  0       0  0 -1   0 -1  0  -1  0  0
                       1 -1  0   0 -1  0   0 -1  1      -1  1  0   0  1  0   0  1 -1
                       0  0 -1   1  0 -1   0  1 -1       0  0  1  -1  0  1   0 -1  1
                      -1  1  0  -1  0  1  -1  0  0       1 -1  0   1  0 -1   1  0  0
           tolwfr      1.00000000E-18
            typat      1  1  2  2  2  2  2  2  3
           useylm           1
              wtk1       0.02778    0.02778    0.02778    0.05556    0.02778    0.02778
                         0.05556    0.02778    0.05556    0.05556    0.02778    0.02778
                         0.02778    0.05556    0.02778    0.05556    0.05556    0.05556
                         0.02778    0.02778    0.02778    0.02778    0.02778    0.05556
                         0.05556    0.00926    0.00926    0.00926
              wtk2       0.02778    0.02778    0.02778    0.05556    0.02778    0.02778
                         0.05556    0.02778    0.05556    0.05556    0.02778    0.02778
                         0.02778    0.05556    0.02778    0.05556    0.05556    0.05556
                         0.02778    0.02778    0.02778    0.02778    0.02778    0.05556
                         0.05556    0.00926    0.00926    0.00926
              wtk3       0.00231    0.00231    0.00231    0.00231    0.00231    0.00231
                         0.00231    0.00231    0.00231    0.00231    0.00231    0.00231
                         0.00231    0.00231    0.00231    0.00231    0.00231    0.00231
                         0.00231    0.00231    0.00231    0.00231    0.00231    0.00231
                         0.00231    0.00231    0.00231    0.00231    0.00231    0.00231
                         0.00231    0.00231    0.00231    0.00231    0.00231    0.00231
                         0.00231    0.00231    0.00231    0.00231    0.00231    0.00231
                         0.00231    0.00231    0.00231    0.00231    0.00231    0.00231
                         0.00231    0.00231
              wtk4       0.00231    0.00231    0.00231    0.00231    0.00231    0.00231
                         0.00231    0.00231    0.00231    0.00231    0.00231    0.00231
                         0.00231    0.00231    0.00231    0.00231    0.00231    0.00231
                         0.00231    0.00231    0.00231    0.00231    0.00231    0.00231
                         0.00231    0.00231    0.00231    0.00231    0.00231    0.00231
                         0.00231    0.00231    0.00231    0.00231    0.00231    0.00231
                         0.00231    0.00231    0.00231    0.00231    0.00231    0.00231
                         0.00231    0.00231    0.00231    0.00231    0.00231    0.00231
                         0.00231    0.00231
              wtk5       0.00231    0.00231    0.00231    0.00231    0.00231    0.00231
                         0.00231    0.00231    0.00231    0.00231    0.00231    0.00231
                         0.00231    0.00231    0.00231    0.00231    0.00231    0.00231
                         0.00231    0.00231    0.00231    0.00231    0.00231    0.00231
                         0.00231    0.00231    0.00231    0.00231    0.00231    0.00231
                         0.00231    0.00231    0.00231    0.00231    0.00231    0.00231
                         0.00231    0.00231    0.00231    0.00231    0.00231    0.00231
                         0.00231    0.00231    0.00231    0.00231    0.00231    0.00231
                         0.00231    0.00231
              wtk6       0.00231    0.00231    0.00231    0.00231    0.00231    0.00231
                         0.00231    0.00231    0.00231    0.00231    0.00231    0.00231
                         0.00231    0.00231    0.00231    0.00231    0.00231    0.00231
                         0.00231    0.00231    0.00231    0.00231    0.00231    0.00231
                         0.00231    0.00231    0.00231    0.00231    0.00231    0.00231
                         0.00231    0.00231    0.00231    0.00231    0.00231    0.00231
                         0.00231    0.00231    0.00231    0.00231    0.00231    0.00231
                         0.00231    0.00231    0.00231    0.00231    0.00231    0.00231
                         0.00231    0.00231
                       outvars : Printing only first  50 k-points.
           xangst      3.0040959602E+00  3.0040959602E+00  3.0040959602E+00
                       9.0122878806E+00  9.0122878806E+00  9.0122878806E+00
                       6.0081919204E+00  6.0081919204E+00  2.8831675630E+00
                       6.0081919204E+00  6.0081919204E+00  9.1332162777E+00
                       9.1332162777E+00  6.0081919204E+00  6.0081919204E+00
                       6.0081919204E+00  9.1332162777E+00  6.0081919204E+00
                       6.0081919204E+00  2.8831675630E+00  6.0081919204E+00
                       2.8831675630E+00  6.0081919204E+00  6.0081919204E+00
                       3.4351441761E-22  3.0743847827E-21  8.3985010397E-21
            xcart      5.6769186417E+00  5.6769186417E+00  5.6769186417E+00
                       1.7030755925E+01  1.7030755925E+01  1.7030755925E+01
                       1.1353837283E+01  1.1353837283E+01  5.4483970893E+00
                       1.1353837283E+01  1.1353837283E+01  1.7259277477E+01
                       1.7259277477E+01  1.1353837283E+01  1.1353837283E+01
                       1.1353837283E+01  1.7259277477E+01  1.1353837283E+01
                       1.1353837283E+01  5.4483970893E+00  1.1353837283E+01
                       5.4483970893E+00  1.1353837283E+01  1.1353837283E+01
                       6.4914817199E-22  5.8097452665E-21  1.5870866892E-20
             xred      2.5000000000E-01  2.5000000000E-01  2.5000000000E-01
                       7.5000000000E-01  7.5000000000E-01  7.5000000000E-01
                       2.3993637364E-01  2.3993637364E-01  7.6006362636E-01
                       7.6006362636E-01  7.6006362636E-01  2.3993637364E-01
                       2.3993637364E-01  7.6006362636E-01  7.6006362636E-01
                       7.6006362636E-01  2.3993637364E-01  7.6006362636E-01
                       2.3993637364E-01  7.6006362636E-01  2.3993637364E-01
                       7.6006362636E-01  2.3993637364E-01  2.3993637364E-01
                       9.2618308073E-22  4.7165859128E-22 -4.1448424962E-22
            znucl       55.00000   53.00000   40.00000

================================================================================

 chkinp: Checking input parameters for consistency, jdtset=   1.

 chkinp: Checking input parameters for consistency, jdtset=   2.

 chkinp: Checking input parameters for consistency, jdtset=   3.

 chkinp: Checking input parameters for consistency, jdtset=   4.

 chkinp: Checking input parameters for consistency, jdtset=   5.

 chkinp: Checking input parameters for consistency, jdtset=   6.

================================================================================
== DATASET  1 ==================================================================
-   mpi_nproc: 6, omp_nthreads: -1 (-1 if OMP is not activated)


--- !DatasetInfo
iteration_state: {dtset: 1, }
dimensions: {natom: 9, nkpt: 28, mband: 42, nsppol: 1, nspinor: 1, nspden: 1, mpw: 8981, }
cutoff_energies: {ecut:  16.0, pawecutdg:  40.0, }
electrons: {nelect:   7.20000000E+01, charge:   0.00000000E+00, occopt:   1.00000000E+00, tsmear:   1.00000000E-02, }
meta: {optdriver: 0, ionmov: 0, optcell: 0, iscf: 17, paral_kgb: 0, }
...

 Real(R)+Recip(G) space primitive vectors, cartesian coordinates (Bohr,Bohr^-1):
 R(1)=  0.0000000 11.3538373 11.3538373  G(1)= -0.0440380  0.0440380  0.0440380
 R(2)= 11.3538373  0.0000000 11.3538373  G(2)=  0.0440380 -0.0440380  0.0440380
 R(3)= 11.3538373 11.3538373  0.0000000  G(3)=  0.0440380  0.0440380 -0.0440380
 Unit cell volume ucvol=  2.9272377E+03 bohr^3
 Angles (23,13,12)=  6.00000000E+01  6.00000000E+01  6.00000000E+01 degrees

 Coarse grid specifications (used for wave-functions):

 getcut: wavevector=  0.0000  0.0000  0.0000  ngfft=  60  60  60
         ecut(hartree)=     16.000   => boxcut(ratio)=   2.07524

 Fine grid specifications (used for densities):

 getcut: wavevector=  0.0000  0.0000  0.0000  ngfft=  96  96  96
         ecut(hartree)=     40.000   => boxcut(ratio)=   2.10000

--- Pseudopotential description ------------------------------------------------
- pspini: atom type   1  psp file is ../../../Psps_for_tests/ATOMICDATA/Cs.GGA_PBE-JTH.xml
- pspatm: opening atomic psp file    ../../../Psps_for_tests/ATOMICDATA/Cs.GGA_PBE-JTH.xml
- pspatm : Reading pseudopotential header in XML form from ../../../Psps_for_tests/ATOMICDATA/Cs.GGA_PBE-JTH.xml
 Pseudopotential format is: paw10
 basis_size (lnmax)=  6 (lmn_size= 18), orbitals=   0   0   1   1   2   2
 Spheres core radius: rc_sph= 2.20660278
 1 radial meshes are used:
  - mesh 1: r(i)=AA*[exp(BB*(i-1))-1], size=1500 , AA= 0.15922E-03 BB= 0.87573E-02
 Shapefunction is SIN type: shapef(r)=[sin(pi*r/rshp)/(pi*r/rshp)]**2
 Radius for shape functions =  2.00394208
 mmax= 1500
 Radial grid used for partial waves is grid 1
 Radial grid used for projectors is grid 1
 Radial grid used for (t)core density is grid 1
 Radial grid used for Vloc is grid 1
 Radial grid used for pseudo valence density is grid 1
 Mesh size for Vloc has been set to 1341 to avoid numerical noise.
 Compensation charge density is not taken into account in XC energy/potential
 pspatm: atomic psp has been read  and splines computed

- pspini: atom type   2  psp file is ../../../Psps_for_tests/ATOMICDATA/I.GGA_PBE-JTH.xml
- pspatm: opening atomic psp file    ../../../Psps_for_tests/ATOMICDATA/I.GGA_PBE-JTH.xml
- pspatm : Reading pseudopotential header in XML form from ../../../Psps_for_tests/ATOMICDATA/I.GGA_PBE-JTH.xml
 Pseudopotential format is: paw10
 basis_size (lnmax)=  4 (lmn_size=  8), orbitals=   0   0   1   1
 Spheres core radius: rc_sph= 2.30022271
 1 radial meshes are used:
  - mesh 1: r(i)=AA*[exp(BB*(i-1))-1], size=2000 , AA= 0.12610E-03 BB= 0.66836E-02
 Shapefunction is SIN type: shapef(r)=[sin(pi*r/rshp)/(pi*r/rshp)]**2
 Radius for shape functions =  2.10879093
 mmax= 2000
 Radial grid used for partial waves is grid 1
 Radial grid used for projectors is grid 1
 Radial grid used for (t)core density is grid 1
 Radial grid used for Vloc is grid 1
 Radial grid used for pseudo valence density is grid 1
 Mesh size for Vloc has been set to 1792 to avoid numerical noise.
 Compensation charge density is not taken into account in XC energy/potential
 pspatm: atomic psp has been read  and splines computed

- pspini: atom type   3  psp file is ../../../Psps_for_tests/ATOMICDATA/Zr.GGA_PBE-JTH.xml
- pspatm: opening atomic psp file    ../../../Psps_for_tests/ATOMICDATA/Zr.GGA_PBE-JTH.xml
- pspatm : Reading pseudopotential header in XML form from ../../../Psps_for_tests/ATOMICDATA/Zr.GGA_PBE-JTH.xml
 Pseudopotential format is: paw10
 basis_size (lnmax)=  6 (lmn_size= 18), orbitals=   0   0   1   1   2   2
 Spheres core radius: rc_sph= 2.21000000
 1 radial meshes are used:
  - mesh 1: r(i)=AA*[exp(BB*(i-1))-1], size= 941 , AA= 0.35256E-03 BB= 0.14102E-01
 Shapefunction is BESSEL type: shapef(r,l)=aa(1,l)*jl(q(1,l)*r)+aa(2,l)*jl(q(2,l)*r)
 Radius for shape functions =  2.21000000
 mmax=  941
 Radial grid used for partial waves is grid 1
 Radial grid used for projectors is grid 1
 Radial grid used for (t)core density is grid 1
 Radial grid used for Vloc is grid 1
 Radial grid used for pseudo valence density is grid 1
 Mesh size for Vloc has been set to  777 to avoid numerical noise.
 Compensation charge density is not taken into account in XC energy/potential
 pspatm: atomic psp has been read  and splines computed

   4.46697182E+04                                ecore*ucvol(ha*bohr**3)
--------------------------------------------------------------------------------

_setup2: Arith. and geom. avg. npw (full set) are    8948.574    8948.563

================================================================================

--- !BeginCycle
iteration_state: {dtset: 1, }
solver: {iscf: 17, nstep: 100, nline: 4, wfoptalg: 10, }
tolerances: {tolwfr: 1.00E-18, }
...

     iter   Etot(hartree)      deltaE(h)  residm     nres2
 ETOT  1  -158.61286539437    -1.586E+02 2.045E-01 1.640E+01
 ETOT  2  -158.83077498268    -2.179E-01 1.492E-02 5.014E+00
 ETOT  3  -158.82513399018     5.641E-03 2.332E-03 1.029E+00
 ETOT  4  -158.82631394134    -1.180E-03 3.313E-03 1.821E-01
 ETOT  5  -158.82522784995     1.086E-03 6.278E-04 9.859E-03
 ETOT  6  -158.82531686572    -8.902E-05 3.456E-04 1.711E-03
 ETOT  7  -158.82531425163     2.614E-06 1.946E-04 1.599E-04
 ETOT  8  -158.82531627084    -2.019E-06 4.234E-04 3.069E-05
 ETOT  9  -158.82531627316    -2.324E-09 1.490E-04 6.997E-06
 ETOT 10  -158.82531633427    -6.111E-08 1.942E-04 4.721E-07
 ETOT 11  -158.82531633921    -4.941E-09 5.211E-05 5.551E-08
 ETOT 12  -158.82531634078    -1.569E-09 9.103E-05 1.355E-08
 ETOT 13  -158.82531634083    -5.070E-11 2.789E-05 7.890E-10
 ETOT 14  -158.82531634080     3.382E-11 8.239E-05 7.347E-11
 ETOT 15  -158.82531634081    -1.231E-11 2.284E-05 1.557E-11
 ETOT 16  -158.82531634080     6.168E-12 6.261E-05 2.339E-12
 ETOT 17  -158.82531634080     1.393E-12 1.607E-05 5.800E-13
 ETOT 18  -158.82531634082    -2.362E-11 4.171E-05 1.050E-13
 ETOT 19  -158.82531634081     1.074E-11 1.015E-05 1.033E-14
 ETOT 20  -158.82531634078     2.848E-11 2.548E-05 2.598E-15
 ETOT 21  -158.82531634081    -2.240E-11 5.992E-06 3.189E-16
 ETOT 22  -158.82531634082    -1.728E-11 1.476E-05 1.092E-16
 ETOT 23  -158.82531634080     1.958E-11 3.398E-06 3.163E-17
 ETOT 24  -158.82531634081    -7.134E-12 8.299E-06 3.366E-18
 ETOT 25  -158.82531634082    -4.945E-12 1.884E-06 9.749E-19
 ETOT 26  -158.82531634080     1.282E-11 4.588E-06 1.944E-19
 ETOT 27  -158.82531634080    -9.948E-13 1.032E-06 2.240E-20
 ETOT 28  -158.82531634081    -2.075E-12 2.513E-06 3.404E-19
 ETOT 29  -158.82531634081     1.762E-12 5.617E-07 4.892E-21
 ETOT 30  -158.82531634080     1.364E-12 1.369E-06 1.130E-19
 ETOT 31  -158.82531634081    -2.416E-12 3.048E-07 4.391E-20
 ETOT 32  -158.82531634081     5.116E-13 7.444E-07 1.460E-22
 ETOT 33  -158.82531634081     4.832E-13 1.651E-07 3.565E-20
 ETOT 34  -158.82531634081    -9.663E-13 4.041E-07 1.049E-20
 ETOT 35  -158.82531634081     5.684E-14 8.941E-08 9.031E-21
 ETOT 36  -158.82531634081    -8.242E-13 2.192E-07 1.540E-19
 ETOT 37  -158.82531634081    -1.990E-13 4.840E-08 7.700E-22
 ETOT 38  -158.82531634081     4.263E-13 1.189E-07 2.004E-19
 ETOT 39  -158.82531634081    -6.253E-13 2.620E-08 9.212E-22
 ETOT 40  -158.82531634081    -1.990E-13 6.445E-08 3.879E-20
 ETOT 41  -158.82531634081     3.126E-13 1.419E-08 2.607E-20
 ETOT 42  -158.82531634081    -5.684E-14 3.495E-08 1.010E-21
 ETOT 43  -158.82531634081    -1.705E-13 7.684E-09 3.403E-20
 ETOT 44  -158.82531634081    -2.842E-14 1.895E-08 3.064E-22
 ETOT 45  -158.82531634081     2.558E-13 4.162E-09 8.877E-21
 ETOT 46  -158.82531634081     2.842E-14 1.028E-08 2.665E-20
 ETOT 47  -158.82531634081    -3.411E-13 2.255E-09 7.573E-20
 ETOT 48  -158.82531634081     3.126E-13 5.572E-09 5.828E-21
 ETOT 49  -158.82531634081     1.421E-13 1.222E-09 2.545E-21
 ETOT 50  -158.82531634081    -5.684E-14 3.022E-09 6.899E-20
 ETOT 51  -158.82531634081    -8.527E-14 6.621E-10 2.191E-19
 ETOT 52  -158.82531634081     1.137E-13 1.639E-09 3.133E-20
 ETOT 53  -158.82531634081     0.000E+00 3.588E-10 1.489E-20
 ETOT 54  -158.82531634081     5.684E-14 8.888E-10 3.054E-22
 ETOT 55  -158.82531634081    -8.527E-14 1.945E-10 1.651E-19
 ETOT 56  -158.82531634081    -2.842E-14 4.821E-10 2.446E-19
 ETOT 57  -158.82531634081     1.421E-13 1.054E-10 1.123E-20
 ETOT 58  -158.82531634081    -1.137E-13 2.615E-10 4.178E-21
 ETOT 59  -158.82531634081     0.000E+00 5.717E-11 2.246E-20
 ETOT 60  -158.82531634081    -5.684E-14 1.418E-10 3.902E-20
 ETOT 61  -158.82531634081     2.842E-14 3.219E-11 4.996E-20
 ETOT 62  -158.82531634081     8.527E-14 7.694E-11 3.339E-20
 ETOT 63  -158.82531634081    -1.137E-13 1.830E-11 3.335E-20
 ETOT 64  -158.82531634081    -5.684E-14 4.174E-11 7.433E-21
 ETOT 65  -158.82531634081     1.137E-13 1.041E-11 9.452E-21
 ETOT 66  -158.82531634081     5.684E-14 2.264E-11 2.475E-23
 ETOT 67  -158.82531634081     0.000E+00 5.919E-12 5.068E-20
 ETOT 68  -158.82531634081    -1.705E-13 1.228E-11 1.686E-21
 ETOT 69  -158.82531634081     2.842E-14 3.366E-12 3.453E-19
 ETOT 70  -158.82531634081    -5.684E-14 6.665E-12 6.950E-21
 ETOT 71  -158.82531634081     0.000E+00 1.914E-12 4.021E-20
 ETOT 72  -158.82531634081     8.527E-14 3.616E-12 1.771E-20
 ETOT 73  -158.82531634081    -1.137E-13 1.089E-12 8.074E-21
 ETOT 74  -158.82531634081     1.421E-13 1.962E-12 8.983E-20
 ETOT 75  -158.82531634081     0.000E+00 6.194E-13 5.321E-21
 ETOT 76  -158.82531634081    -2.842E-14 1.064E-12 1.007E-20
 ETOT 77  -158.82531634081    -5.684E-14 3.524E-13 4.579E-20
 ETOT 78  -158.82531634081     8.527E-14 5.776E-13 2.078E-20
 ETOT 79  -158.82531634081     2.842E-14 2.005E-13 1.203E-22
 ETOT 80  -158.82531634081    -8.527E-14 3.134E-13 8.687E-20
 ETOT 81  -158.82531634081     2.842E-14 1.141E-13 6.720E-21
 ETOT 82  -158.82531634081     8.527E-14 1.701E-13 1.549E-23
 ETOT 83  -158.82531634081    -1.137E-13 6.493E-14 1.347E-20
 ETOT 84  -158.82531634081     0.000E+00 9.228E-14 8.634E-20
 ETOT 85  -158.82531634081     5.684E-14 3.696E-14 1.900E-20
 ETOT 86  -158.82531634081    -1.137E-13 5.008E-14 5.293E-20
 ETOT 87  -158.82531634081     1.137E-13 2.104E-14 1.264E-20
 ETOT 88  -158.82531634081    -1.137E-13 2.717E-14 2.572E-21
 ETOT 89  -158.82531634081     8.527E-14 1.198E-14 2.395E-21
 ETOT 90  -158.82531634081    -5.684E-14 1.475E-14 2.527E-20
 ETOT 91  -158.82531634081    -2.842E-14 6.820E-15 6.752E-20
 ETOT 92  -158.82531634081     1.137E-13 8.002E-15 6.940E-20
 ETOT 93  -158.82531634081    -2.842E-14 3.884E-15 2.560E-21
 ETOT 94  -158.82531634081    -1.137E-13 4.343E-15 1.204E-20
 ETOT 95  -158.82531634081     1.137E-13 2.212E-15 1.437E-20
 ETOT 96  -158.82531634081     5.684E-14 2.357E-15 2.522E-20
 ETOT 97  -158.82531634081    -1.705E-13 1.260E-15 1.900E-20
 ETOT 98  -158.82531634081     1.705E-13 1.279E-15 7.237E-20
 ETOT 99  -158.82531634081     0.000E+00 7.179E-16 7.762E-20
 ETOT  100  -158.82531634081    -1.137E-13 6.941E-16 1.483E-20

 Cartesian components of stress tensor (hartree/bohr^3)
  sigma(1 1)=  2.60416621E-06  sigma(3 2)=  0.00000000E+00
  sigma(2 2)=  2.60416621E-06  sigma(3 1)=  0.00000000E+00
  sigma(3 3)=  2.60416621E-06  sigma(2 1)=  0.00000000E+00


 scprqt:  WARNING -
  nstep=  100 was not enough SCF cycles to converge;
  maximum residual=  6.941E-16 exceeds tolwfr=  1.000E-18


--- !ResultsGS
iteration_state: {dtset: 1, }
comment   : Summary of ground state results
lattice_vectors:
- [  0.0000000,  11.3538373,  11.3538373, ]
- [ 11.3538373,   0.0000000,  11.3538373, ]
- [ 11.3538373,  11.3538373,   0.0000000, ]
lattice_lengths: [  16.05675,   16.05675,   16.05675, ]
lattice_angles: [ 60.000,  60.000,  60.000, ] # degrees, (23, 13, 12)
lattice_volume:   2.9272377E+03
convergence: {deltae: -1.137E-13, res2:  1.483E-20, residm:  6.941E-16, diffor: null, }
etotal    :  -1.58825316E+02
entropy   :   0.00000000E+00
fermie    :  -1.17444554E-01
cartesian_stress_tensor: # hartree/bohr^3
- [  2.60416621E-06,   0.00000000E+00,   0.00000000E+00, ]
- [  0.00000000E+00,   2.60416621E-06,   0.00000000E+00, ]
- [  0.00000000E+00,   0.00000000E+00,   2.60416621E-06, ]
pressure_GPa:  -7.6617E-02
xred      :
- [  2.5000E-01,   2.5000E-01,   2.5000E-01, Cs]
- [  7.5000E-01,   7.5000E-01,   7.5000E-01, Cs]
- [  2.3994E-01,   2.3994E-01,   7.6006E-01,  I]
- [  7.6006E-01,   7.6006E-01,   2.3994E-01,  I]
- [  2.3994E-01,   7.6006E-01,   7.6006E-01,  I]
- [  7.6006E-01,   2.3994E-01,   7.6006E-01,  I]
- [  2.3994E-01,   7.6006E-01,   2.3994E-01,  I]
- [  7.6006E-01,   2.3994E-01,   2.3994E-01,  I]
- [  9.2618E-22,   4.7166E-22,  -4.1448E-22, Zr]
cartesian_forces: # hartree/bohr
- [  1.88229544E-22,  -7.55345270E-25,  -2.82344316E-22, ]
- [  1.88229544E-22,  -7.55345270E-25,  -2.82344316E-22, ]
- [ -1.22991131E-21,   1.36765002E-21,  -1.14475602E-05, ]
- [  4.12718701E-22,  -1.75509015E-22,   1.14475602E-05, ]
- [  1.14475602E-05,  -8.54586400E-22,   5.71486739E-22, ]
- [ -1.65187315E-22,   1.14475602E-05,   7.10725428E-23, ]
- [  5.41646402E-22,  -1.14475602E-05,  -6.35761174E-22, ]
- [ -1.14475602E-05,   6.04276216E-24,  -2.89142423E-22, ]
- [  1.88229544E-22,  -7.55345270E-25,  -2.82344316E-22, ]
force_length_stats: {min:   3.39336477E-22, max:   1.14475602E-05, mean:   7.63170682E-06, }
...

 Integrated electronic density in atomic spheres:
 ------------------------------------------------
 Atom  Sphere_radius  Integrated_density
    1        2.20660          5.35328110
    2        2.20660          5.35328110
    3        2.30022          4.02305640
    4        2.30022          4.02305640
    5        2.30022          4.02305640
    6        2.30022          4.02305640
    7        2.30022          4.02305640
    8        2.30022          4.02305640
    9        2.21000          8.80064524

 PAW TEST:
 ==== Compensation charge inside spheres ============
 The following values must be close to each other ...
 Compensation charge over spherical meshes =     -5.188495994137077
 Compensation charge over fine fft grid    =     -5.188482676573915

 ==== Results concerning PAW augmentation regions ====

 Total pseudopotential strength Dij (hartree):
 Atom #  1
   0.44875  -0.14855   0.00000   0.00000   0.00000   0.00000   0.00000   0.00000   0.00000   0.00000   0.00000   0.00000 ...
  -0.14855   0.04483   0.00000   0.00000   0.00000   0.00000   0.00000   0.00000   0.00000   0.00000   0.00000   0.00000 ...
   0.00000   0.00000  -0.09463   0.00000   0.00000  -0.16591   0.00000   0.00000   0.00000   0.00000   0.00000   0.00000 ...
   0.00000   0.00000   0.00000  -0.09463   0.00000   0.00000  -0.16591   0.00000   0.00000   0.00000   0.00000   0.00000 ...
   0.00000   0.00000   0.00000   0.00000  -0.09463   0.00000   0.00000  -0.16591   0.00000   0.00000   0.00000   0.00000 ...
   0.00000   0.00000  -0.16591   0.00000   0.00000   0.40655   0.00000   0.00000   0.00000   0.00000   0.00000  -0.00000 ...
   0.00000   0.00000   0.00000  -0.16591   0.00000   0.00000   0.40655   0.00000  -0.00000   0.00000   0.00000   0.00000 ...
   0.00000   0.00000   0.00000   0.00000  -0.16591   0.00000   0.00000   0.40655   0.00000  -0.00000   0.00000   0.00000 ...
   0.00000   0.00000   0.00000   0.00000   0.00000   0.00000  -0.00000   0.00000   0.00508   0.00000   0.00000   0.00000 ...
   0.00000   0.00000   0.00000   0.00000   0.00000   0.00000   0.00000  -0.00000   0.00000   0.00508   0.00000   0.00000 ...
   0.00000   0.00000   0.00000   0.00000   0.00000   0.00000   0.00000   0.00000   0.00000   0.00000   0.00508   0.00000 ...
   0.00000   0.00000   0.00000   0.00000   0.00000  -0.00000   0.00000   0.00000   0.00000   0.00000   0.00000   0.00508 ...
   ...  only 12  components have been written...
 Atom #  9
   3.09565  -0.90196   0.00000   0.00000   0.00000   0.00000   0.00000   0.00000   0.00000   0.00000   0.00000   0.00000 ...
  -0.90196   0.26963   0.00000   0.00000   0.00000   0.00000   0.00000   0.00000   0.00000   0.00000   0.00000   0.00000 ...
   0.00000   0.00000   0.26227   0.00000   0.00000  -0.05310   0.00000   0.00000   0.00000   0.00000   0.00000   0.00000 ...
   0.00000   0.00000   0.00000   0.26227   0.00000   0.00000  -0.05310   0.00000   0.00000   0.00000   0.00000   0.00000 ...
   0.00000   0.00000   0.00000   0.00000   0.26227   0.00000   0.00000  -0.05310   0.00000   0.00000   0.00000   0.00000 ...
   0.00000   0.00000  -0.05310   0.00000   0.00000   0.01464   0.00000   0.00000   0.00000   0.00000   0.00000   0.00000 ...
   0.00000   0.00000   0.00000  -0.05310   0.00000   0.00000   0.01464   0.00000   0.00000   0.00000   0.00000   0.00000 ...
   0.00000   0.00000   0.00000   0.00000  -0.05310   0.00000   0.00000   0.01464   0.00000   0.00000   0.00000   0.00000 ...
   0.00000   0.00000   0.00000   0.00000   0.00000   0.00000   0.00000   0.00000  -0.02166   0.00000   0.00000   0.00000 ...
   0.00000   0.00000   0.00000   0.00000   0.00000   0.00000   0.00000   0.00000   0.00000  -0.02166   0.00000   0.00000 ...
   0.00000   0.00000   0.00000   0.00000   0.00000   0.00000   0.00000   0.00000   0.00000   0.00000  -0.02156   0.00000 ...
   0.00000   0.00000   0.00000   0.00000   0.00000   0.00000   0.00000   0.00000   0.00000   0.00000   0.00000  -0.02166 ...
   ...  only 12  components have been written...


 Augmentation waves occupancies Rhoij:
 Atom #  1
   1.99662  -0.01719   0.00000   0.00000   0.00000   0.00000   0.00000   0.00000   0.00000   0.00000   0.00000   0.00000 ...
  -0.01719   0.11497   0.00000   0.00000   0.00000   0.00000   0.00000   0.00000   0.00000   0.00000   0.00000   0.00000 ...
   0.00000   0.00000   2.00820   0.00000   0.00000  -0.00501   0.00000   0.00000   0.00000   0.00000   0.00000   0.00030 ...
   0.00000   0.00000   0.00000   2.00820   0.00000   0.00000  -0.00501   0.00000   0.00030   0.00000   0.00000   0.00000 ...
   0.00000   0.00000   0.00000   0.00000   2.00820   0.00000   0.00000  -0.00501   0.00000   0.00030   0.00000   0.00000 ...
   0.00000   0.00000  -0.00501   0.00000   0.00000   0.00008   0.00000   0.00000   0.00000   0.00000   0.00000  -0.00001 ...
   0.00000   0.00000   0.00000  -0.00501   0.00000   0.00000   0.00008   0.00000  -0.00001   0.00000   0.00000   0.00000 ...
   0.00000   0.00000   0.00000   0.00000  -0.00501   0.00000   0.00000   0.00008   0.00000  -0.00001   0.00000   0.00000 ...
   0.00000   0.00000   0.00000   0.00030   0.00000   0.00000  -0.00001   0.00000   0.03405   0.00000   0.00000   0.00000 ...
   0.00000   0.00000   0.00000   0.00000   0.00030   0.00000   0.00000  -0.00001   0.00000   0.03405   0.00000   0.00000 ...
   0.00000   0.00000   0.00000   0.00000   0.00000   0.00000   0.00000   0.00000   0.00000   0.00000   0.02205   0.00000 ...
   0.00000   0.00000   0.00030   0.00000   0.00000  -0.00001   0.00000   0.00000   0.00000   0.00000   0.00000   0.03405 ...
   ...  only 12  components have been written...
 Atom #  9
   1.99263  -0.06399   0.00000   0.00000   0.00000   0.00000   0.00000   0.00000   0.00000   0.00000   0.00000   0.00000 ...
  -0.06399   1.03239   0.00000   0.00000   0.00000   0.00000   0.00000   0.00000   0.00000   0.00000   0.00000   0.00000 ...
   0.00000   0.00000   1.96739   0.00000   0.00000  -0.19526   0.00000   0.00000   0.00000   0.00000   0.00000   0.00000 ...
   0.00000   0.00000   0.00000   1.96739   0.00000   0.00000  -0.19526   0.00000   0.00000   0.00000   0.00000   0.00000 ...
   0.00000   0.00000   0.00000   0.00000   1.96739   0.00000   0.00000  -0.19526   0.00000   0.00000   0.00000   0.00000 ...
   0.00000   0.00000  -0.19526   0.00000   0.00000   1.45262   0.00000   0.00000   0.00000   0.00000   0.00000   0.00000 ...
   0.00000   0.00000   0.00000  -0.19526   0.00000   0.00000   1.45262   0.00000   0.00000   0.00000   0.00000   0.00000 ...
   0.00000   0.00000   0.00000   0.00000  -0.19526   0.00000   0.00000   1.45262   0.00000   0.00000   0.00000   0.00000 ...
   0.00000   0.00000   0.00000   0.00000   0.00000   0.00000   0.00000   0.00000   0.42461   0.00000   0.00000   0.00000 ...
   0.00000   0.00000   0.00000   0.00000   0.00000   0.00000   0.00000   0.00000   0.00000   0.42461   0.00000   0.00000 ...
   0.00000   0.00000   0.00000   0.00000   0.00000   0.00000   0.00000   0.00000   0.00000   0.00000   1.26675   0.00000 ...
   0.00000   0.00000   0.00000   0.00000   0.00000   0.00000   0.00000   0.00000   0.00000   0.00000   0.00000   0.42461 ...
   ...  only 12  components have been written...


================================================================================

 ----iterations are completed or convergence reached----

 Mean square residual over all n,k,spin=   17.309E-19; max=  69.414E-17
 reduced coordinates (array xred) for    9 atoms
       0.250000000000      0.250000000000      0.250000000000
       0.750000000000      0.750000000000      0.750000000000
       0.239936373640      0.239936373640      0.760063626360
       0.760063626360      0.760063626360      0.239936373640
       0.239936373640      0.760063626360      0.760063626360
       0.760063626360      0.239936373640      0.760063626360
       0.239936373640      0.760063626360      0.239936373640
       0.760063626360      0.239936373640      0.239936373640
       0.000000000000      0.000000000000     -0.000000000000
 rms dE/dt=  8.6649E-05; max dE/dt=  1.2997E-04; dE/dt below (all hartree)
    1       0.000000000000      0.000000000000      0.000000000000
    2       0.000000000000      0.000000000000      0.000000000000
    3       0.000129973736      0.000129973736      0.000000000000
    4      -0.000129973736     -0.000129973736     -0.000000000000
    5       0.000000000000     -0.000129973736     -0.000129973736
    6      -0.000129973736      0.000000000000     -0.000129973736
    7       0.000129973736      0.000000000000      0.000129973736
    8      -0.000000000000      0.000129973736      0.000129973736
    9       0.000000000000      0.000000000000      0.000000000000

 cartesian coordinates (angstrom) at end:
    1      3.00409596019178     3.00409596019178     3.00409596019178
    2      9.01228788057534     9.01228788057533     9.01228788057534
    3      6.00819192038356     6.00819192038356     2.88316756301996
    4      6.00819192038356     6.00819192038356     9.13321627774716
    5      9.13321627774716     6.00819192038356     6.00819192038356
    6      6.00819192038356     9.13321627774716     6.00819192038356
    7      6.00819192038356     2.88316756301996     6.00819192038356
    8      2.88316756301996     6.00819192038356     6.00819192038356
    9      0.00000000000000     0.00000000000000     0.00000000000000

 cartesian forces (hartree/bohr) at end:
    1      0.00000000000000    -0.00000000000000    -0.00000000000000
    2      0.00000000000000    -0.00000000000000    -0.00000000000000
    3     -0.00000000000000     0.00000000000000    -0.00001144756022
    4      0.00000000000000    -0.00000000000000     0.00001144756022
    5      0.00001144756022    -0.00000000000000     0.00000000000000
    6     -0.00000000000000     0.00001144756022     0.00000000000000
    7      0.00000000000000    -0.00001144756022    -0.00000000000000
    8     -0.00001144756022     0.00000000000000    -0.00000000000000
    9      0.00000000000000    -0.00000000000000    -0.00000000000000
 frms,max,avg= 5.3964316E-06 1.1447560E-05   0.000E+00  0.000E+00  0.000E+00 h/b

 cartesian forces (eV/Angstrom) at end:
    1      0.00000000000000    -0.00000000000000    -0.00000000000000
    2      0.00000000000000    -0.00000000000000    -0.00000000000000
    3     -0.00000000000000     0.00000000000000    -0.00058865716522
    4      0.00000000000000    -0.00000000000000     0.00058865716522
    5      0.00058865716522    -0.00000000000000     0.00000000000000
    6     -0.00000000000000     0.00058865716522     0.00000000000000
    7      0.00000000000000    -0.00058865716522    -0.00000000000000
    8     -0.00058865716522     0.00000000000000    -0.00000000000000
    9      0.00000000000000    -0.00000000000000    -0.00000000000000
 frms,max,avg= 2.7749565E-04 5.8865717E-04   0.000E+00  0.000E+00  0.000E+00 e/A
 length scales= 16.056750671000 16.056750671000 16.056750671000 bohr
              =  8.496866499105  8.496866499105  8.496866499105 angstroms
 prteigrs : about to open file Cs2TiI6o_DS1_EIG
 Fermi (or HOMO) energy (hartree) =  -0.11744   Average Vxc (hartree)=  -0.27848
 Eigenvalues (hartree) for nkpt=  28  k points:
 kpt#   1, nband= 42, wtk=  0.02778, kpt= -0.0833 -0.1667  0.0000 (reduced coord)
  -1.93397   -1.12375   -1.12375   -1.12375   -0.87385   -0.87378   -0.54200   -0.52574
  -0.52508   -0.52499   -0.52297   -0.52273   -0.38977   -0.38972   -0.38954   -0.38865
  -0.38864   -0.38846   -0.23637   -0.19721   -0.19642   -0.19463   -0.19429   -0.19306
  -0.19273   -0.18516   -0.18285   -0.14718   -0.14622   -0.14386   -0.13227   -0.12700
  -0.12675   -0.12066   -0.12052   -0.11771   -0.04789   -0.04565   -0.04551    0.03421
   0.03777    0.03999
 prteigrs : prtvol=0 or 1, do not print more k-points.


--- !EnergyTerms
iteration_state     : {dtset: 1, }
comment             : Components of total free energy in Hartree
kinetic             :  4.31668868093506E+01
hartree             :  3.69393633939495E+01
xc                  : -5.68834361359034E+01
Ewald energy        : -1.12586057847027E+02
psp_core            :  1.52600240807550E+01
local_psp           : -1.04114327603876E+02
spherical_terms     :  1.93922309619711E+01
total_energy        : -1.58825316340780E+02
total_energy_eV     : -4.32185664963490E+03
...


--- !EnergyTermsDC
iteration_state     : {dtset: 1, }
comment             : '"Double-counting" decomposition of free energy'
band_energy         : -3.11088474925938E+01
Ewald energy        : -1.12586057847027E+02
psp_core            :  1.52600240807550E+01
xc_dc               : -5.32959249281242E+01
spherical_terms     :  2.29054898461833E+01
total_energy_dc     : -1.58825316340807E+02
total_energy_dc_eV  : -4.32185664963564E+03
...


 Cartesian components of stress tensor (hartree/bohr^3)
  sigma(1 1)=  2.60416621E-06  sigma(3 2)=  0.00000000E+00
  sigma(2 2)=  2.60416621E-06  sigma(3 1)=  0.00000000E+00
  sigma(3 3)=  2.60416621E-06  sigma(2 1)=  0.00000000E+00

-Cartesian components of stress tensor (GPa)         [Pressure= -7.6617E-02 GPa]
- sigma(1 1)=  7.66172022E-02  sigma(3 2)=  0.00000000E+00
- sigma(2 2)=  7.66172022E-02  sigma(3 1)=  0.00000000E+00
- sigma(3 3)=  7.66172022E-02  sigma(2 1)=  0.00000000E+00

================================================================================
== DATASET  2 ==================================================================
-   mpi_nproc: 6, omp_nthreads: -1 (-1 if OMP is not activated)


--- !DatasetInfo
iteration_state: {dtset: 2, }
dimensions: {natom: 9, nkpt: 28, mband: 100, nsppol: 1, nspinor: 1, nspden: 1, mpw: 8981, }
cutoff_energies: {ecut:  16.0, pawecutdg:  40.0, }
electrons: {nelect:   7.20000000E+01, charge:   0.00000000E+00, occopt:   1.00000000E+00, tsmear:   1.00000000E-02, }
meta: {optdriver: 0, ionmov: 0, optcell: 0, iscf: -2, paral_kgb: 0, }
...

 mkfilename : getwfk/=0, take file _WFK from output of DATASET   1.

 mkfilename : getden/=0, take file _DEN from output of DATASET   1.

 Real(R)+Recip(G) space primitive vectors, cartesian coordinates (Bohr,Bohr^-1):
 R(1)=  0.0000000 11.3538373 11.3538373  G(1)= -0.0440380  0.0440380  0.0440380
 R(2)= 11.3538373  0.0000000 11.3538373  G(2)=  0.0440380 -0.0440380  0.0440380
 R(3)= 11.3538373 11.3538373  0.0000000  G(3)=  0.0440380  0.0440380 -0.0440380
 Unit cell volume ucvol=  2.9272377E+03 bohr^3
 Angles (23,13,12)=  6.00000000E+01  6.00000000E+01  6.00000000E+01 degrees

 Coarse grid specifications (used for wave-functions):

 getcut: wavevector=  0.0000  0.0000  0.0000  ngfft=  60  60  60
         ecut(hartree)=     16.000   => boxcut(ratio)=   2.07524

 Fine grid specifications (used for densities):

 getcut: wavevector=  0.0000  0.0000  0.0000  ngfft=  96  96  96
         ecut(hartree)=     40.000   => boxcut(ratio)=   2.10000
--------------------------------------------------------------------------------

-inwffil : will read wavefunctions from disk file Cs2TiI6o_DS1_WFK

================================================================================
 prteigrs : about to open file Cs2TiI6o_DS2_EIG
 Non-SCF case, kpt    1 ( -0.08333 -0.16667  0.00000), residuals and eigenvalues=
  8.08E-19  4.02E-19  3.49E-19  1.47E-19  8.71E-19  6.02E-19  7.91E-19  5.49E-19
  4.80E-19  6.71E-19  9.70E-19  4.68E-19  9.43E-19  1.03E-19  9.47E-19  1.09E-19
  1.30E-19  1.42E-19  1.63E-19  9.93E-19  8.46E-19  1.55E-19  5.40E-19  5.89E-19
  6.67E-19  3.78E-19  9.74E-19  3.19E-19  1.56E-19  7.43E-19  6.84E-19  5.78E-19
  4.81E-19  5.22E-19  4.26E-19  8.93E-19  5.02E-19  6.11E-19  2.57E-19  3.54E-19
  3.05E-19  3.69E-19  1.10E-19  3.37E-19  7.02E-19  3.43E-19  1.55E-19  2.28E-19
  2.49E-19  2.53E-19  2.89E-19  2.21E-19  2.73E-19  2.53E-19  3.42E-19  3.76E-19
  2.01E-19  7.86E-19  2.66E-19  4.00E-19  4.98E-19  5.55E-19  8.11E-19  9.57E-19
  5.76E-19  4.07E-19  3.25E-19  8.85E-19  4.65E-19  3.29E-19  6.78E-19  4.72E-19
  4.56E-19  9.91E-19  7.93E-19  9.82E-19  7.23E-19  9.81E-19  2.35E-19  3.57E-19
  5.87E-19  3.70E-19  4.55E-19  3.11E-19  9.93E-19  9.28E-19  3.91E-19  6.48E-19
  7.71E-19  5.85E-19  6.37E-19  8.33E-19  9.06E-19  8.50E-19  4.36E-19  6.93E-19
  5.65E-19  8.42E-19  5.30E-19  4.38E-11
 -1.9340E+00 -1.1237E+00 -1.1237E+00 -1.1237E+00 -8.7385E-01 -8.7378E-01
 -5.4200E-01 -5.2574E-01 -5.2508E-01 -5.2499E-01 -5.2297E-01 -5.2273E-01
 -3.8977E-01 -3.8972E-01 -3.8954E-01 -3.8865E-01 -3.8864E-01 -3.8846E-01
 -2.3637E-01 -1.9721E-01 -1.9642E-01 -1.9463E-01 -1.9429E-01 -1.9306E-01
 -1.9273E-01 -1.8516E-01 -1.8285E-01 -1.4718E-01 -1.4622E-01 -1.4386E-01
 -1.3227E-01 -1.2700E-01 -1.2675E-01 -1.2066E-01 -1.2052E-01 -1.1771E-01
 -4.7885E-02 -4.5654E-02 -4.5509E-02  3.4213E-02  3.7770E-02  3.9986E-02
  5.9841E-02  6.0900E-02  6.1570E-02  7.1791E-02  8.1219E-02  8.3280E-02
  8.5035E-02  9.7260E-02  1.0046E-01  1.0054E-01  1.3459E-01  1.3954E-01
  1.6036E-01  1.6890E-01  1.7226E-01  1.8985E-01  1.9079E-01  2.0186E-01
  2.0331E-01  2.1076E-01  2.1139E-01  2.2266E-01  2.3442E-01  2.3596E-01
  2.4309E-01  2.5621E-01  2.5643E-01  2.6423E-01  2.6851E-01  2.7166E-01
  2.9385E-01  3.0635E-01  3.0805E-01  3.1288E-01  3.2215E-01  3.2843E-01
  3.3155E-01  3.3939E-01  3.4129E-01  3.4373E-01  3.4727E-01  3.4846E-01
  3.4862E-01  3.5688E-01  3.6632E-01  3.6791E-01  3.7357E-01  3.7491E-01
  3.8215E-01  3.8509E-01  3.8621E-01  3.8869E-01  3.9466E-01  4.0151E-01
  4.0214E-01  4.1939E-01  4.1973E-01  4.2464E-01
  prteigrs : nnsclo,ikpt=  200    1 max resid (incl. the buffer)=  4.38383E-11
 prteigrs : prtvol=0 or 1, do not print more k-points.

  prteigrs : nnsclo,ikpt=  200    2 max resid (incl. the buffer)=  2.50738E-07
  prteigrs : nnsclo,ikpt=  200    3 max resid (incl. the buffer)=  1.09219E-16
  prteigrs : nnsclo,ikpt=  200    4 max resid (incl. the buffer)=  1.66334E-08
  prteigrs : nnsclo,ikpt=  200    5 max resid (incl. the buffer)=  1.75822E-13
  prteigrs : nnsclo,ikpt=  200    6 max resid (incl. the buffer)=  2.14139E-07
  prteigrs : nnsclo,ikpt=  200    7 max resid (incl. the buffer)=  1.47243E-12
  prteigrs : nnsclo,ikpt=  200    8 max resid (incl. the buffer)=  7.11761E-10
  prteigrs : nnsclo,ikpt=  200    9 max resid (incl. the buffer)=  3.61723E-11
  prteigrs : nnsclo,ikpt=  200   10 max resid (incl. the buffer)=  3.02411E-09
  prteigrs : nnsclo,ikpt=  200   11 max resid (incl. the buffer)=  3.12338E-08
  prteigrs : nnsclo,ikpt=  200   12 max resid (incl. the buffer)=  1.09573E-11
  prteigrs : nnsclo,ikpt=  200   13 max resid (incl. the buffer)=  6.38472E-07
  prteigrs : nnsclo,ikpt=  200   14 max resid (incl. the buffer)=  2.04191E-08
  prteigrs : nnsclo,ikpt=  200   15 max resid (incl. the buffer)=  5.67036E-08
  prteigrs : nnsclo,ikpt=  200   16 max resid (incl. the buffer)=  2.49013E-11
  prteigrs : nnsclo,ikpt=  200   17 max resid (incl. the buffer)=  3.04313E-10
  prteigrs : nnsclo,ikpt=  200   18 max resid (incl. the buffer)=  7.19823E-07
  prteigrs : nnsclo,ikpt=  200   19 max resid (incl. the buffer)=  1.89494E-06
  prteigrs : nnsclo,ikpt=  200   20 max resid (incl. the buffer)=  3.96144E-07
  prteigrs : nnsclo,ikpt=  200   21 max resid (incl. the buffer)=  1.83844E-07
  prteigrs : nnsclo,ikpt=  200   22 max resid (incl. the buffer)=  3.95502E-07
  prteigrs : nnsclo,ikpt=  200   23 max resid (incl. the buffer)=  8.18540E-12
  prteigrs : nnsclo,ikpt=  200   24 max resid (incl. the buffer)=  3.11727E-11
  prteigrs : nnsclo,ikpt=  200   25 max resid (incl. the buffer)=  1.45701E-11
  prteigrs : nnsclo,ikpt=  200   26 max resid (incl. the buffer)=  1.11179E-13
  prteigrs : nnsclo,ikpt=  200   27 max resid (incl. the buffer)=  6.82057E-13


--- !ResultsGS
iteration_state: {dtset: 2, }
comment   : Summary of ground state results
lattice_vectors:
- [  0.0000000,  11.3538373,  11.3538373, ]
- [ 11.3538373,   0.0000000,  11.3538373, ]
- [ 11.3538373,  11.3538373,   0.0000000, ]
lattice_lengths: [  16.05675,   16.05675,   16.05675, ]
lattice_angles: [ 60.000,  60.000,  60.000, ] # degrees, (23, 13, 12)
lattice_volume:   2.9272377E+03
convergence: {deltae:  0.000E+00, res2:  0.000E+00, residm:  9.994E-19, diffor:  0.000E+00, }
etotal    :  -1.58825316E+02
entropy   :   0.00000000E+00
fermie    :  -1.17444554E-01
cartesian_stress_tensor: null
pressure_GPa: null
xred      :
- [  2.5000E-01,   2.5000E-01,   2.5000E-01, Cs]
- [  7.5000E-01,   7.5000E-01,   7.5000E-01, Cs]
- [  2.3994E-01,   2.3994E-01,   7.6006E-01,  I]
- [  7.6006E-01,   7.6006E-01,   2.3994E-01,  I]
- [  2.3994E-01,   7.6006E-01,   7.6006E-01,  I]
- [  7.6006E-01,   2.3994E-01,   7.6006E-01,  I]
- [  2.3994E-01,   7.6006E-01,   2.3994E-01,  I]
- [  7.6006E-01,   2.3994E-01,   2.3994E-01,  I]
- [  9.2618E-22,   4.7166E-22,  -4.1448E-22, Zr]
cartesian_forces: null
force_length_stats: {min: null, max: null, mean: null, }
...

 Integrated electronic density in atomic spheres:
 ------------------------------------------------
 Atom  Sphere_radius  Integrated_density
    1        2.20660          5.35328110
    2        2.20660          5.35328110
    3        2.30022          4.02305640
    4        2.30022          4.02305640
    5        2.30022          4.02305640
    6        2.30022          4.02305640
    7        2.30022          4.02305640
    8        2.30022          4.02305640
    9        2.21000          8.80064524

 PAW TEST:
 ==== Compensation charge inside spheres ============
[...]
                       0.000000  0.000000  0.000000  0.000000  0.000000  0.000000
                       0.000000  0.000000  0.000000  0.000000  0.000000  0.000000
                       0.000000  0.000000  0.000000  0.000000  0.000000  0.000000
                       0.000000  0.000000  0.000000  0.000000  0.000000  0.000000
                       0.000000  0.000000  0.000000  0.000000  0.000000  0.000000
                       0.000000  0.000000  0.000000  0.000000
              occ5     2.000000  2.000000  2.000000  2.000000  2.000000  2.000000
                       2.000000  2.000000  2.000000  2.000000  2.000000  2.000000
                       2.000000  2.000000  2.000000  2.000000  2.000000  2.000000
                       2.000000  2.000000  2.000000  2.000000  2.000000  2.000000
                       2.000000  2.000000  2.000000  2.000000  2.000000  2.000000
                       2.000000  2.000000  2.000000  2.000000  2.000000  2.000000
                       0.000000  0.000000  0.000000  0.000000  0.000000  0.000000
                       0.000000  0.000000  0.000000  0.000000  0.000000  0.000000
                       0.000000  0.000000  0.000000  0.000000  0.000000  0.000000
                       0.000000  0.000000  0.000000  0.000000  0.000000  0.000000
                       0.000000  0.000000  0.000000  0.000000  0.000000  0.000000
                       0.000000  0.000000  0.000000  0.000000  0.000000  0.000000
                       0.000000  0.000000  0.000000  0.000000  0.000000  0.000000
                       0.000000  0.000000  0.000000  0.000000  0.000000  0.000000
                       0.000000  0.000000  0.000000  0.000000  0.000000  0.000000
                       0.000000  0.000000  0.000000  0.000000  0.000000  0.000000
                       0.000000  0.000000  0.000000  0.000000
              occ6     2.000000  2.000000  2.000000  2.000000  2.000000  2.000000
                       2.000000  2.000000  2.000000  2.000000  2.000000  2.000000
                       2.000000  2.000000  2.000000  2.000000  2.000000  2.000000
                       2.000000  2.000000  2.000000  2.000000  2.000000  2.000000
                       2.000000  2.000000  2.000000  2.000000  2.000000  2.000000
                       2.000000  2.000000  2.000000  2.000000  2.000000  2.000000
                       0.000000  0.000000  0.000000  0.000000  0.000000  0.000000
                       0.000000  0.000000  0.000000  0.000000  0.000000  0.000000
                       0.000000  0.000000  0.000000  0.000000  0.000000  0.000000
                       0.000000  0.000000  0.000000  0.000000  0.000000  0.000000
                       0.000000  0.000000  0.000000  0.000000  0.000000  0.000000
                       0.000000  0.000000  0.000000  0.000000  0.000000  0.000000
                       0.000000  0.000000  0.000000  0.000000  0.000000  0.000000
                       0.000000  0.000000  0.000000  0.000000  0.000000  0.000000
                       0.000000  0.000000  0.000000  0.000000  0.000000  0.000000
                       0.000000  0.000000  0.000000  0.000000  0.000000  0.000000
                       0.000000  0.000000  0.000000  0.000000
        optdriver1          0
        optdriver2          0
        optdriver3          0
        optdriver4          1
        optdriver5          1
        optdriver6          1
        pawecutdg      4.00000000E+01 Hartree
            prtwf1          1
            prtwf2          1
            prtwf3          1
            prtwf4          3
            prtwf5          3
            prtwf6          3
            rfdir1          0       0       0
            rfdir2          0       0       0
            rfdir3          0       0       0
            rfdir4          1       0       0
            rfdir5          0       1       0
            rfdir6          0       0       1
           rfelfd1          0
           rfelfd2          0
           rfelfd3          0
           rfelfd4          2
           rfelfd5          2
           rfelfd6          2
            rprim      0.0000000000E+00  7.0710678119E-01  7.0710678119E-01
                       7.0710678119E-01  0.0000000000E+00  7.0710678119E-01
                       7.0710678119E-01  7.0710678119E-01  0.0000000000E+00
           shiftk      5.00000000E-01  5.00000000E-01  5.00000000E-01
          spgroup         225
           strten1     2.6041662086E-06  2.6041662086E-06  2.6041662086E-06
                       0.0000000000E+00  0.0000000000E+00  0.0000000000E+00
           symrel      1  0  0   0  1  0   0  0  1      -1  0  0   0 -1  0   0  0 -1
                       0 -1  1   0 -1  0   1 -1  0       0  1 -1   0  1  0  -1  1  0
                      -1  0  0  -1  0  1  -1  1  0       1  0  0   1  0 -1   1 -1  0
                       0  1 -1   1  0 -1   0  0 -1       0 -1  1  -1  0  1   0  0  1
                      -1  0  0  -1  1  0  -1  0  1       1  0  0   1 -1  0   1  0 -1
                       0 -1  1   1 -1  0   0 -1  0       0  1 -1  -1  1  0   0  1  0
                       1  0  0   0  0  1   0  1  0      -1  0  0   0  0 -1   0 -1  0
                       0  1 -1   0  0 -1   1  0 -1       0 -1  1   0  0  1  -1  0  1
                      -1  0  1  -1  1  0  -1  0  0       1  0 -1   1 -1  0   1  0  0
                       0 -1  0   1 -1  0   0 -1  1       0  1  0  -1  1  0   0  1 -1
                       1  0 -1   0  0 -1   0  1 -1      -1  0  1   0  0  1   0 -1  1
                       0  1  0   0  0  1   1  0  0       0 -1  0   0  0 -1  -1  0  0
                       1  0 -1   0  1 -1   0  0 -1      -1  0  1   0 -1  1   0  0  1
                       0 -1  0   0 -1  1   1 -1  0       0  1  0   0  1 -1  -1  1  0
                      -1  0  1  -1  0  0  -1  1  0       1  0 -1   1  0  0   1 -1  0
                       0  1  0   1  0  0   0  0  1       0 -1  0  -1  0  0   0  0 -1
                       0  0 -1   0  1 -1   1  0 -1       0  0  1   0 -1  1  -1  0  1
                       1 -1  0   0 -1  1   0 -1  0      -1  1  0   0  1 -1   0  1  0
                       0  0  1   1  0  0   0  1  0       0  0 -1  -1  0  0   0 -1  0
                      -1  1  0  -1  0  0  -1  0  1       1 -1  0   1  0  0   1  0 -1
                       0  0  1   0  1  0   1  0  0       0  0 -1   0 -1  0  -1  0  0
                       1 -1  0   0 -1  0   0 -1  1      -1  1  0   0  1  0   0  1 -1
                       0  0 -1   1  0 -1   0  1 -1       0  0  1  -1  0  1   0 -1  1
                      -1  1  0  -1  0  1  -1  0  0       1 -1  0   1  0 -1   1  0  0
           tolwfr      1.00000000E-18
            typat      1  1  2  2  2  2  2  2  3
           useylm           1
              wtk1       0.02778    0.02778    0.02778    0.05556    0.02778    0.02778
                         0.05556    0.02778    0.05556    0.05556    0.02778    0.02778
                         0.02778    0.05556    0.02778    0.05556    0.05556    0.05556
                         0.02778    0.02778    0.02778    0.02778    0.02778    0.05556
                         0.05556    0.00926    0.00926    0.00926
              wtk2       0.02778    0.02778    0.02778    0.05556    0.02778    0.02778
                         0.05556    0.02778    0.05556    0.05556    0.02778    0.02778
                         0.02778    0.05556    0.02778    0.05556    0.05556    0.05556
                         0.02778    0.02778    0.02778    0.02778    0.02778    0.05556
                         0.05556    0.00926    0.00926    0.00926
              wtk3       0.00231    0.00231    0.00231    0.00231    0.00231    0.00231
                         0.00231    0.00231    0.00231    0.00231    0.00231    0.00231
                         0.00231    0.00231    0.00231    0.00231    0.00231    0.00231
                         0.00231    0.00231    0.00231    0.00231    0.00231    0.00231
                         0.00231    0.00231    0.00231    0.00231    0.00231    0.00231
                         0.00231    0.00231    0.00231    0.00231    0.00231    0.00231
                         0.00231    0.00231    0.00231    0.00231    0.00231    0.00231
                         0.00231    0.00231    0.00231    0.00231    0.00231    0.00231
                         0.00231    0.00231
              wtk4       0.00231    0.00231    0.00231    0.00231    0.00231    0.00231
                         0.00231    0.00231    0.00231    0.00231    0.00231    0.00231
                         0.00231    0.00231    0.00231    0.00231    0.00231    0.00231
                         0.00231    0.00231    0.00231    0.00231    0.00231    0.00231
                         0.00231    0.00231    0.00231    0.00231    0.00231    0.00231
                         0.00231    0.00231    0.00231    0.00231    0.00231    0.00231
                         0.00231    0.00231    0.00231    0.00231    0.00231    0.00231
                         0.00231    0.00231    0.00231    0.00231    0.00231    0.00231
                         0.00231    0.00231
              wtk5       0.00231    0.00231    0.00231    0.00231    0.00231    0.00231
                         0.00231    0.00231    0.00231    0.00231    0.00231    0.00231
                         0.00231    0.00231    0.00231    0.00231    0.00231    0.00231
                         0.00231    0.00231    0.00231    0.00231    0.00231    0.00231
                         0.00231    0.00231    0.00231    0.00231    0.00231    0.00231
                         0.00231    0.00231    0.00231    0.00231    0.00231    0.00231
                         0.00231    0.00231    0.00231    0.00231    0.00231    0.00231
                         0.00231    0.00231    0.00231    0.00231    0.00231    0.00231
                         0.00231    0.00231
              wtk6       0.00231    0.00231    0.00231    0.00231    0.00231    0.00231
                         0.00231    0.00231    0.00231    0.00231    0.00231    0.00231
                         0.00231    0.00231    0.00231    0.00231    0.00231    0.00231
                         0.00231    0.00231    0.00231    0.00231    0.00231    0.00231
                         0.00231    0.00231    0.00231    0.00231    0.00231    0.00231
                         0.00231    0.00231    0.00231    0.00231    0.00231    0.00231
                         0.00231    0.00231    0.00231    0.00231    0.00231    0.00231
                         0.00231    0.00231    0.00231    0.00231    0.00231    0.00231
                         0.00231    0.00231
                       outvars : Printing only first  50 k-points.
           xangst      3.0040959602E+00  3.0040959602E+00  3.0040959602E+00
                       9.0122878806E+00  9.0122878806E+00  9.0122878806E+00
                       6.0081919204E+00  6.0081919204E+00  2.8831675630E+00
                       6.0081919204E+00  6.0081919204E+00  9.1332162777E+00
                       9.1332162777E+00  6.0081919204E+00  6.0081919204E+00
                       6.0081919204E+00  9.1332162777E+00  6.0081919204E+00
                       6.0081919204E+00  2.8831675630E+00  6.0081919204E+00
                       2.8831675630E+00  6.0081919204E+00  6.0081919204E+00
                       3.4351441761E-22  3.0743847827E-21  8.3985010397E-21
            xcart      5.6769186417E+00  5.6769186417E+00  5.6769186417E+00
                       1.7030755925E+01  1.7030755925E+01  1.7030755925E+01
                       1.1353837283E+01  1.1353837283E+01  5.4483970893E+00
                       1.1353837283E+01  1.1353837283E+01  1.7259277477E+01
                       1.7259277477E+01  1.1353837283E+01  1.1353837283E+01
                       1.1353837283E+01  1.7259277477E+01  1.1353837283E+01
                       1.1353837283E+01  5.4483970893E+00  1.1353837283E+01
                       5.4483970893E+00  1.1353837283E+01  1.1353837283E+01
                       6.4914817199E-22  5.8097452665E-21  1.5870866892E-20
             xred      2.5000000000E-01  2.5000000000E-01  2.5000000000E-01
                       7.5000000000E-01  7.5000000000E-01  7.5000000000E-01
                       2.3993637364E-01  2.3993637364E-01  7.6006362636E-01
                       7.6006362636E-01  7.6006362636E-01  2.3993637364E-01
                       2.3993637364E-01  7.6006362636E-01  7.6006362636E-01
                       7.6006362636E-01  2.3993637364E-01  7.6006362636E-01
                       2.3993637364E-01  7.6006362636E-01  2.3993637364E-01
                       7.6006362636E-01  2.3993637364E-01  2.3993637364E-01
                       9.2618308073E-22  4.7165859128E-22 -4.1448424962E-22
            znucl       55.00000   53.00000   40.00000

================================================================================


- Timing analysis has been suppressed with timopt=0



================================================================================

 Suggested references for the acknowledgment of ABINIT usage.

 The users of ABINIT have little formal obligations with respect to the ABINIT group
 (those specified in the GNU General Public License, http://www.gnu.org/copyleft/gpl.txt).
 However, it is common practice in the scientific literature,
 to acknowledge the efforts of people that have made the research possible.
 In this spirit, please find below suggested citations of work written by ABINIT developers,
 corresponding to implementations inside of ABINIT that you have used in the present run.
 Note also that it will be of great value to readers of publications presenting these results,
 to read papers enabling them to understand the theoretical formalism and details
 of the ABINIT implementation.
 For information on why they are suggested, see also https://docs.abinit.org/theory/acknowledgments.
-
- [1] Projector augmented-wave formulation of response to strain and electric-field perturbation 
- within density functional perturbation theory 
- A. Martin, M. Torrent, and R. Caracas. Phys. Rev. B 99, 094112 (2019)
- Comment: in case Elastic constants, Born Effective charges, piezoelectric tensor 
- are computed within the Projector Augmented-Wave (PAW) approach. 
- Strong suggestion to cite this paper in your publications.
- DOI and bibtex: see https://docs.abinit.org/theory/bibliography/#martin2019
-
- [2] Projector augmented-wave approach to density-functional perturbation theory.
- C. Audouze, F. Jollet, M. Torrent and X. Gonze, Phys. Rev. B 73, 235101 (2006).
- Comparison between projector augmented-wave and ultrasoft pseudopotential formalisms
- at the density-functional perturbation theory level.
- C. Audouze, F. Jollet, M. Torrent and X. Gonze, Phys. Rev. B 78, 035105 (2008).
- Comment: to be cited in case the computation of response function with PAW, i.e. (rfphon=1 or rfelfd=1) and usepaw=1.
- Strong suggestion to cite these papers.
- DOI and bibtex: see https://docs.abinit.org/theory/bibliography/#audouze2006,
- and https://docs.abinit.org/theory/bibliography/#audouze2008
-
- [3] Implementation of the Projector Augmented-Wave Method in the ABINIT code.
- M. Torrent, F. Jollet, F. Bottin, G. Zerah, and X. Gonze Comput. Mat. Science 42, 337, (2008).
- Comment: PAW calculations. Strong suggestion to cite this paper.
- DOI and bibtex: see https://docs.abinit.org/theory/bibliography/#torrent2008
-
- [4] Libxc: A library of exchange and correlation functionals for density functional theory.
- M.A.L. Marques, M.J.T. Oliveira, T. Burnus, Computer Physics Communications 183, 2227 (2012).
- Comment: to be cited when LibXC is used (negative value of ixc)
- Strong suggestion to cite this paper.
- DOI and bibtex: see https://docs.abinit.org/theory/bibliography/#marques2012
-
- [5] The Abinit project: Impact, environment and recent developments.
- Computer Phys. Comm. 248, 107042 (2020).
- X.Gonze, B. Amadon, G. Antonius, F.Arnardi, L.Baguet, J.-M.Beuken,
- J.Bieder, F.Bottin, J.Bouchet, E.Bousquet, N.Brouwer, F.Bruneval,
- G.Brunin, T.Cavignac, J.-B. Charraud, Wei Chen, M.Cote, S.Cottenier,
- J.Denier, G.Geneste, Ph.Ghosez, M.Giantomassi, Y.Gillet, O.Gingras,
- D.R.Hamann, G.Hautier, Xu He, N.Helbig, N.Holzwarth, Y.Jia, F.Jollet,
- W.Lafargue-Dit-Hauret, K.Lejaeghere, M.A.L.Marques, A.Martin, C.Martins,
- H.P.C. Miranda, F.Naccarato, K. Persson, G.Petretto, V.Planes, Y.Pouillon,
- S.Prokhorenko, F.Ricci, G.-M.Rignanese, A.H.Romero, M.M.Schmitt, M.Torrent,
- M.J.van Setten, B.Van Troeye, M.J.Verstraete, G.Zerah and J.W.Zwanzig
- Comment: the fifth generic paper describing the ABINIT project.
- Note that a version of this paper, that is not formatted for Computer Phys. Comm. 
- is available at https://www.abinit.org/sites/default/files/ABINIT20.pdf .
- The licence allows the authors to put it on the Web.
- DOI and bibtex: see https://docs.abinit.org/theory/bibliography/#gonze2020
-
- [6] First-principles responses of solids to atomic displacements and homogeneous electric fields:,
- implementation of a conjugate-gradient algorithm. X. Gonze, Phys. Rev. B55, 10337 (1997).
- Comment: Non-vanishing rfphon and/or rfelfd, in the norm-conserving case.
- DOI and bibtex: see https://docs.abinit.org/theory/bibliography/#gonze1997
-
- [7] Dynamical matrices, Born effective charges, dielectric permittivity tensors, and ,
- interatomic force constants from density-functional perturbation theory,
- X. Gonze and C. Lee, Phys. Rev. B55, 10355 (1997).
- Comment: Non-vanishing rfphon and/or rfelfd, in the norm-conserving case.
- DOI and bibtex: see https://docs.abinit.org/theory/bibliography/#gonze1997a
-
- [8] ABINIT: Overview, and focus on selected capabilities
- J. Chem. Phys. 152, 124102 (2020).
- A. Romero, D.C. Allan, B. Amadon, G. Antonius, T. Applencourt, L.Baguet,
- J.Bieder, F.Bottin, J.Bouchet, E.Bousquet, F.Bruneval,
- G.Brunin, D.Caliste, M.Cote,
- J.Denier, C. Dreyer, Ph.Ghosez, M.Giantomassi, Y.Gillet, O.Gingras,
- D.R.Hamann, G.Hautier, F.Jollet, G. Jomard,
- A.Martin, 
- H.P.C. Miranda, F.Naccarato, G.Petretto, N.A. Pike, V.Planes,
- S.Prokhorenko, T. Rangel, F.Ricci, G.-M.Rignanese, M.Royo, M.Stengel, M.Torrent,
- M.J.van Setten, B.Van Troeye, M.J.Verstraete, J.Wiktor, J.W.Zwanziger, and X.Gonze.
- Comment: a global overview of ABINIT, with focus on selected capabilities .
- Note that a version of this paper, that is not formatted for J. Chem. Phys 
- is available at https://www.abinit.org/sites/default/files/ABINIT20_JPC.pdf .
- The licence allows the authors to put it on the Web.
- DOI and bibtex: see https://docs.abinit.org/theory/bibliography/#romero2020
-
- [9] Recent developments in the ABINIT software package.
- Computer Phys. Comm. 205, 106 (2016).
- X.Gonze, F.Jollet, F.Abreu Araujo, D.Adams, B.Amadon, T.Applencourt,
- C.Audouze, J.-M.Beuken, J.Bieder, A.Bokhanchuk, E.Bousquet, F.Bruneval
- D.Caliste, M.Cote, F.Dahm, F.Da Pieve, M.Delaveau, M.Di Gennaro,
- B.Dorado, C.Espejo, G.Geneste, L.Genovese, A.Gerossier, M.Giantomassi,
- Y.Gillet, D.R.Hamann, L.He, G.Jomard, J.Laflamme Janssen, S.Le Roux,
- A.Levitt, A.Lherbier, F.Liu, I.Lukacevic, A.Martin, C.Martins,
- M.J.T.Oliveira, S.Ponce, Y.Pouillon, T.Rangel, G.-M.Rignanese,
- A.H.Romero, B.Rousseau, O.Rubel, A.A.Shukri, M.Stankovski, M.Torrent,
- M.J.Van Setten, B.Van Troeye, M.J.Verstraete, D.Waroquier, J.Wiktor,
- B.Xu, A.Zhou, J.W.Zwanziger.
- Comment: the fourth generic paper describing the ABINIT project.
- Note that a version of this paper, that is not formatted for Computer Phys. Comm. 
- is available at https://www.abinit.org/sites/default/files/ABINIT16.pdf .
- The licence allows the authors to put it on the Web.
- DOI and bibtex: see https://docs.abinit.org/theory/bibliography/#gonze2016
-
- Proc.   0 individual time (sec): cpu=       3214.9  wall=       3215.2

================================================================================

 Calculation completed.
.Delivered   1 WARNINGs and   0 COMMENTs to log file.
+Overall time at end (sec) : cpu=      19288.5  wall=      19290.8
