
.Version 9.2.2 of ABINIT 
.(MPI version, prepared for a x86_64_linux_gnu9.3 computer) 

.Copyright (C) 1998-2020 ABINIT group . 
 ABINIT comes with ABSOLUTELY NO WARRANTY.
 It is free software, and you are welcome to redistribute it
 under certain conditions (GNU General Public License,
 see ~abinit/COPYING or http://www.gnu.org/copyleft/gpl.txt).

 ABINIT is a project of the Universite Catholique de Louvain,
 Corning Inc. and other collaborators, see ~abinit/doc/developers/contributors.txt .
 Please read https://docs.abinit.org/theory/acknowledgments for suggested
 acknowledgments of the ABINIT effort.
 For more information, see https://www.abinit.org .

.Starting date : Thu 15 Dec 2022.
- ( at 10h43 )
  
- The starting date is more than 2 years after the initial release
- of this version of ABINIT, namely Nov 2020.
- Note that the use beyond 3 years after the release will not be supported.
- Action: please, switch to a more recent version of ABINIT.

- input  file    -> Cs2TiI6.in
- output file    -> Cs2TiI6.out
- root for input  files -> Cs2TiI6i
- root for output files -> Cs2TiI6o

- inpspheads : Reading pseudopotential header in XML form from 
-   ../../../Psps_for_tests/ATOMICDATA/Cs.GGA_PBE-JTH.xml
- inpspheads : Reading pseudopotential header in XML form from 
-   ../../../Psps_for_tests/ATOMICDATA/I.GGA_PBE-JTH.xml
- inpspheads : Reading pseudopotential header in XML form from 
-   ../../../Psps_for_tests/ATOMICDATA/Zr.GGA_PBE-JTH.xml
- inpspheads : Reading pseudopotential header in XML form from 
-   ../../../Psps_for_tests/ATOMICDATA/Cl.GGA_PBE-JTH.xml

 DATASET    1 : space group Im m 2 (# 44); Bravais oI (body-center ortho.)
================================================================================
 Values of the parameters that define the memory need for DATASET  1.
     intxc =       0    ionmov =       0      iscf =      17    lmnmax =      18
     lnmax =       6     mgfft =      54  mpssoang =       3    mqgrid =    3449
     natom =       9  nloc_mem =       2    nspden =       1   nspinor =       1
    nsppol =       1      nsym =       4    n1xccc =       1    ntypat =       4
    occopt =       1   xclevel =       2
-    mband =          42        mffmem =           1         mkmem =          47
       mpw =        6960          nfft =      157464          nkpt =         280
Pmy_natom=         2
 PAW method is used; the additional fine FFT grid is defined by:
   mgfftf=        90    nfftf =    729000
================================================================================
P This job should need less than                     438.556 Mbytes of memory.
  Rough estimation (10% accuracy) of disk space for files :
_ WF disk file :   1248.928 Mbytes ; DEN or POT disk file :      5.564 Mbytes.
================================================================================


 DATASET    2 : space group Im m 2 (# 44); Bravais oI (body-center ortho.)
================================================================================
 Values of the parameters that define the memory need for DATASET  2.
     intxc =       0    ionmov =       0      iscf =      17    lmnmax =      18
     lnmax =       6     mgfft =      54  mpssoang =       3    mqgrid =    3446
     natom =       9  nloc_mem =       2    nspden =       1   nspinor =       1
    nsppol =       1      nsym =       4    n1xccc =       1    ntypat =       4
    occopt =       1   xclevel =       2
-    mband =          42        mffmem =           1         mkmem =          47
       mpw =        6942          nfft =      157464          nkpt =         280
Pmy_natom=         2
 PAW method is used; the additional fine FFT grid is defined by:
   mgfftf=        90    nfftf =    729000
================================================================================
P This job should need less than                     437.958 Mbytes of memory.
  Rough estimation (10% accuracy) of disk space for files :
_ WF disk file :   1245.698 Mbytes ; DEN or POT disk file :      5.564 Mbytes.
================================================================================


 DATASET    3 : space group Im m 2 (# 44); Bravais oI (body-center ortho.)
================================================================================
 Values of the parameters that define the memory need for DATASET  3.
     intxc =       0    ionmov =       0      iscf =      17    lmnmax =      18
     lnmax =       6     mgfft =      54  mpssoang =       3    mqgrid =    3442
     natom =       9  nloc_mem =       2    nspden =       1   nspinor =       1
    nsppol =       1      nsym =       4    n1xccc =       1    ntypat =       4
    occopt =       1   xclevel =       2
-    mband =          42        mffmem =           1         mkmem =          47
       mpw =        6923          nfft =      157464          nkpt =         280
Pmy_natom=         2
 PAW method is used; the additional fine FFT grid is defined by:
   mgfftf=        90    nfftf =    729000
================================================================================
P This job should need less than                     437.327 Mbytes of memory.
  Rough estimation (10% accuracy) of disk space for files :
_ WF disk file :   1242.288 Mbytes ; DEN or POT disk file :      5.564 Mbytes.
================================================================================


 DATASET    4 : space group Im m 2 (# 44); Bravais oI (body-center ortho.)
================================================================================
 Values of the parameters that define the memory need for DATASET  4.
     intxc =       0    ionmov =       0      iscf =      17    lmnmax =      18
     lnmax =       6     mgfft =      54  mpssoang =       3    mqgrid =    3439
     natom =       9  nloc_mem =       2    nspden =       1   nspinor =       1
    nsppol =       1      nsym =       4    n1xccc =       1    ntypat =       4
    occopt =       1   xclevel =       2
-    mband =          42        mffmem =           1         mkmem =          47
       mpw =        6906          nfft =      157464          nkpt =         280
Pmy_natom=         2
 PAW method is used; the additional fine FFT grid is defined by:
   mgfftf=        90    nfftf =    729000
================================================================================
P This job should need less than                     436.763 Mbytes of memory.
  Rough estimation (10% accuracy) of disk space for files :
_ WF disk file :   1239.238 Mbytes ; DEN or POT disk file :      5.564 Mbytes.
================================================================================


 DATASET    5 : space group Im m 2 (# 44); Bravais oI (body-center ortho.)
================================================================================
 Values of the parameters that define the memory need for DATASET  5.
     intxc =       0    ionmov =       0      iscf =      17    lmnmax =      18
     lnmax =       6     mgfft =      54  mpssoang =       3    mqgrid =    3435
     natom =       9  nloc_mem =       2    nspden =       1   nspinor =       1
    nsppol =       1      nsym =       4    n1xccc =       1    ntypat =       4
    occopt =       1   xclevel =       2
-    mband =          42        mffmem =           1         mkmem =          47
       mpw =        6883          nfft =      157464          nkpt =         280
Pmy_natom=         2
 PAW method is used; the additional fine FFT grid is defined by:
   mgfftf=        90    nfftf =    729000
================================================================================
P This job should need less than                     435.995 Mbytes of memory.
  Rough estimation (10% accuracy) of disk space for files :
_ WF disk file :   1235.111 Mbytes ; DEN or POT disk file :      5.564 Mbytes.
================================================================================


 DATASET    6 : space group Im m 2 (# 44); Bravais oI (body-center ortho.)
================================================================================
 Values of the parameters that define the memory need for DATASET  6.
     intxc =       0    ionmov =       0      iscf =      17    lmnmax =      18
     lnmax =       6     mgfft =      54  mpssoang =       3    mqgrid =    3431
     natom =       9  nloc_mem =       2    nspden =       1   nspinor =       1
    nsppol =       1      nsym =       4    n1xccc =       1    ntypat =       4
    occopt =       1   xclevel =       2
-    mband =          42        mffmem =           1         mkmem =          47
       mpw =        6865          nfft =      157464          nkpt =         280
Pmy_natom=         2
 PAW method is used; the additional fine FFT grid is defined by:
   mgfftf=        90    nfftf =    729000
================================================================================
P This job should need less than                     435.398 Mbytes of memory.
  Rough estimation (10% accuracy) of disk space for files :
_ WF disk file :   1231.881 Mbytes ; DEN or POT disk file :      5.564 Mbytes.
================================================================================


 DATASET    7 : space group Im m 2 (# 44); Bravais oI (body-center ortho.)
================================================================================
 Values of the parameters that define the memory need for DATASET  7.
     intxc =       0    ionmov =       0      iscf =      17    lmnmax =      18
     lnmax =       6     mgfft =      54  mpssoang =       3    mqgrid =    3428
     natom =       9  nloc_mem =       2    nspden =       1   nspinor =       1
    nsppol =       1      nsym =       4    n1xccc =       1    ntypat =       4
    occopt =       1   xclevel =       2
-    mband =          42        mffmem =           1         mkmem =          47
       mpw =        6849          nfft =      157464          nkpt =         280
Pmy_natom=         2
 PAW method is used; the additional fine FFT grid is defined by:
   mgfftf=        90    nfftf =    729000
================================================================================
P This job should need less than                     434.868 Mbytes of memory.
  Rough estimation (10% accuracy) of disk space for files :
_ WF disk file :   1229.010 Mbytes ; DEN or POT disk file :      5.564 Mbytes.
================================================================================


 DATASET    8 : space group Im m 2 (# 44); Bravais oI (body-center ortho.)
================================================================================
 Values of the parameters that define the memory need for DATASET  8.
     intxc =       0    ionmov =       0      iscf =      17    lmnmax =      18
     lnmax =       6     mgfft =      54  mpssoang =       3    mqgrid =    3424
     natom =       9  nloc_mem =       2    nspden =       1   nspinor =       1
    nsppol =       1      nsym =       4    n1xccc =       1    ntypat =       4
    occopt =       1   xclevel =       2
-    mband =          42        mffmem =           1         mkmem =          47
       mpw =        6836          nfft =      157464          nkpt =         280
Pmy_natom=         2
 PAW method is used; the additional fine FFT grid is defined by:
   mgfftf=        90    nfftf =    729000
================================================================================
P This job should need less than                     434.439 Mbytes of memory.
  Rough estimation (10% accuracy) of disk space for files :
_ WF disk file :   1226.677 Mbytes ; DEN or POT disk file :      5.564 Mbytes.
================================================================================


 DATASET    9 : space group Im m 2 (# 44); Bravais oI (body-center ortho.)
================================================================================
 Values of the parameters that define the memory need for DATASET  9.
     intxc =       0    ionmov =       0      iscf =      17    lmnmax =      18
     lnmax =       6     mgfft =      54  mpssoang =       3    mqgrid =    3421
     natom =       9  nloc_mem =       2    nspden =       1   nspinor =       1
    nsppol =       1      nsym =       4    n1xccc =       1    ntypat =       4
    occopt =       1   xclevel =       2
-    mband =          42        mffmem =           1         mkmem =          47
       mpw =        6810          nfft =      157464          nkpt =         280
Pmy_natom=         2
 PAW method is used; the additional fine FFT grid is defined by:
   mgfftf=        90    nfftf =    729000
================================================================================
P This job should need less than                     433.571 Mbytes of memory.
  Rough estimation (10% accuracy) of disk space for files :
_ WF disk file :   1222.011 Mbytes ; DEN or POT disk file :      5.564 Mbytes.
================================================================================


 DATASET   10 : space group Im m 2 (# 44); Bravais oI (body-center ortho.)
================================================================================
 Values of the parameters that define the memory need for DATASET 10.
     intxc =       0    ionmov =       0      iscf =      17    lmnmax =      18
     lnmax =       6     mgfft =      54  mpssoang =       3    mqgrid =    3418
     natom =       9  nloc_mem =       2    nspden =       1   nspinor =       1
    nsppol =       1      nsym =       4    n1xccc =       1    ntypat =       4
    occopt =       1   xclevel =       2
-    mband =          42        mffmem =           1         mkmem =          47
       mpw =        6785          nfft =      157464          nkpt =         280
Pmy_natom=         2
 PAW method is used; the additional fine FFT grid is defined by:
   mgfftf=        90    nfftf =    729000
================================================================================
P This job should need less than                     432.736 Mbytes of memory.
  Rough estimation (10% accuracy) of disk space for files :
_ WF disk file :   1217.525 Mbytes ; DEN or POT disk file :      5.564 Mbytes.
================================================================================

--------------------------------------------------------------------------------
------------- Echo of variables that govern the present computation ------------
--------------------------------------------------------------------------------
-
- outvars: echo of selected default values                                      
-   iomode0 =  0 , fftalg0 =112 , wfoptalg0 = 10
-
- outvars: echo of global parameters not present in the input file              
-  max_nthreads =    0
-
 -outvars: echo values of preprocessed input variables --------
            acell1     1.4601374490E+01  1.4766564340E+01  1.4766564340E+01 Bohr
            acell2     1.4587193392E+01  1.4751873886E+01  1.4751873886E+01 Bohr
            acell3     1.4571054451E+01  1.4737808933E+01  1.4737808933E+01 Bohr
            acell4     1.4557481397E+01  1.4723027191E+01  1.4723027191E+01 Bohr
            acell5     1.4543779740E+01  1.4708134313E+01  1.4708134313E+01 Bohr
            acell6     1.4530467161E+01  1.4693344040E+01  1.4693344040E+01 Bohr
            acell7     1.4518048060E+01  1.4678152693E+01  1.4678152693E+01 Bohr
            acell8     1.4503431486E+01  1.4663486429E+01  1.4663486429E+01 Bohr
            acell9     1.4487771684E+01  1.4648126751E+01  1.4648126751E+01 Bohr
            acell10    1.4473508970E+01  1.4633451866E+01  1.4633451866E+01 Bohr
              amu      1.32905430E+02  1.26904470E+02  9.12240000E+01
                       3.54527000E+01
           diemac      1.20000000E+01
             ecut      1.60000000E+01 Hartree
-          fftalg         112
           istwfk        2    0    0    0    0    0    3    0    0    0
                         0    0    0    0    0    0    0    0    0    0
                         0    0    0    0    0    0    0    0    0    0
                         0    0    0    0    0    0    0    0    0    0
                         0    0    0    0    0    0    0    0    0    0
                       outvar_i_n : Printing only first  50 k-points.
              ixc     -101130
           jdtset        1    2    3    4    5    6    7    8    9   10
              kpt      0.00000000E+00  0.00000000E+00  0.00000000E+00
                       8.33333333E-02  0.00000000E+00  0.00000000E+00
                       1.66666667E-01  0.00000000E+00  0.00000000E+00
                       2.50000000E-01  0.00000000E+00  0.00000000E+00
                       3.33333333E-01  0.00000000E+00  0.00000000E+00
                       4.16666667E-01  0.00000000E+00  0.00000000E+00
                       5.00000000E-01  0.00000000E+00  0.00000000E+00
                       0.00000000E+00  8.33333333E-02  0.00000000E+00
                       8.33333333E-02  8.33333333E-02  0.00000000E+00
                       1.66666667E-01  8.33333333E-02  0.00000000E+00
                       2.50000000E-01  8.33333333E-02  0.00000000E+00
                       3.33333333E-01  8.33333333E-02  0.00000000E+00
                       4.16666667E-01  8.33333333E-02  0.00000000E+00
                       5.00000000E-01  8.33333333E-02  0.00000000E+00
                      -4.16666667E-01  8.33333333E-02  0.00000000E+00
                      -3.33333333E-01  8.33333333E-02  0.00000000E+00
                      -2.50000000E-01  8.33333333E-02  0.00000000E+00
                      -1.66666667E-01  8.33333333E-02  0.00000000E+00
                      -8.33333333E-02  8.33333333E-02  0.00000000E+00
                       0.00000000E+00  1.66666667E-01  0.00000000E+00
                       8.33333333E-02  1.66666667E-01  0.00000000E+00
                       1.66666667E-01  1.66666667E-01  0.00000000E+00
                       2.50000000E-01  1.66666667E-01  0.00000000E+00
                       3.33333333E-01  1.66666667E-01  0.00000000E+00
                       4.16666667E-01  1.66666667E-01  0.00000000E+00
                       5.00000000E-01  1.66666667E-01  0.00000000E+00
                      -4.16666667E-01  1.66666667E-01  0.00000000E+00
                      -3.33333333E-01  1.66666667E-01  0.00000000E+00
                      -2.50000000E-01  1.66666667E-01  0.00000000E+00
                      -1.66666667E-01  1.66666667E-01  0.00000000E+00
                      -8.33333333E-02  1.66666667E-01  0.00000000E+00
                       0.00000000E+00  2.50000000E-01  0.00000000E+00
                       8.33333333E-02  2.50000000E-01  0.00000000E+00
                       1.66666667E-01  2.50000000E-01  0.00000000E+00
                       2.50000000E-01  2.50000000E-01  0.00000000E+00
                       3.33333333E-01  2.50000000E-01  0.00000000E+00
                       4.16666667E-01  2.50000000E-01  0.00000000E+00
                       5.00000000E-01  2.50000000E-01  0.00000000E+00
                      -4.16666667E-01  2.50000000E-01  0.00000000E+00
                      -3.33333333E-01  2.50000000E-01  0.00000000E+00
                      -2.50000000E-01  2.50000000E-01  0.00000000E+00
                      -1.66666667E-01  2.50000000E-01  0.00000000E+00
                      -8.33333333E-02  2.50000000E-01  0.00000000E+00
                       0.00000000E+00  3.33333333E-01  0.00000000E+00
                       8.33333333E-02  3.33333333E-01  0.00000000E+00
                       1.66666667E-01  3.33333333E-01  0.00000000E+00
                       2.50000000E-01  3.33333333E-01  0.00000000E+00
                       3.33333333E-01  3.33333333E-01  0.00000000E+00
                       4.16666667E-01  3.33333333E-01  0.00000000E+00
                       5.00000000E-01  3.33333333E-01  0.00000000E+00
                       outvar_i_n : Printing only first  50 k-points.
         kptrlatt       12    0    0      0   12    0      0    0   12
          kptrlen1     1.75216494E+02
          kptrlen2     1.75046321E+02
          kptrlen3     1.74852653E+02
          kptrlen4     1.74689777E+02
          kptrlen5     1.74525357E+02
          kptrlen6     1.74365606E+02
          kptrlen7     1.74216577E+02
          kptrlen8     1.74041178E+02
          kptrlen9     1.73853260E+02
          kptrlen10    1.73682108E+02
P           mkmem          47
            natom           9
            nband          42
           ndtset          10
            ngfft          54      54      54
          ngfftdg          90      90      90
             nkpt         280
            nstep        2500
             nsym           4
           ntypat           4
              occ      2.000000  2.000000  2.000000  2.000000  2.000000  2.000000
                       2.000000  2.000000  2.000000  2.000000  2.000000  2.000000
                       2.000000  2.000000  2.000000  2.000000  2.000000  2.000000
                       2.000000  2.000000  2.000000  2.000000  2.000000  2.000000
                       2.000000  2.000000  2.000000  2.000000  2.000000  2.000000
                       2.000000  2.000000  2.000000  2.000000  2.000000  2.000000
                       0.000000  0.000000  0.000000  0.000000  0.000000  0.000000
        pawecutdg      4.00000000E+01 Hartree
            prtwf           0
            rprim1     0.0000000000E+00  7.0710678119E-01  7.0710678119E-01
                       7.0901724180E-01 -5.9693247296E-03  7.0516587977E-01
                       7.0901724180E-01  7.0516587977E-01 -5.9693247296E-03
            rprim2     0.0000000000E+00  7.0710678119E-01  7.0710678119E-01
                       7.0903106676E-01 -5.9391410568E-03  7.0515223390E-01
                       7.0903106676E-01  7.0515223390E-01 -5.9391410568E-03
            rprim3     0.0000000000E+00  7.0710678119E-01  7.0710678119E-01
                       7.0913199994E-01 -5.9446332167E-03  7.0505068470E-01
                       7.0913199994E-01  7.0505068470E-01 -5.9446332167E-03
            rprim4     0.0000000000E+00  7.0710678119E-01  7.0710678119E-01
                       7.0913375307E-01 -5.8932836669E-03  7.0504935250E-01
                       7.0913375307E-01  7.0504935250E-01 -5.8932836669E-03
            rprim5     0.0000000000E+00  7.0710678119E-01  7.0710678119E-01
                       7.0911922762E-01 -5.8589605336E-03  7.0506424785E-01
                       7.0911922762E-01  7.0506424785E-01 -5.8589605336E-03
            rprim6     0.0000000000E+00  7.0710678119E-01  7.0710678119E-01
                       7.0912012816E-01 -5.7954205932E-03  7.0506386727E-01
                       7.0912012816E-01  7.0506386727E-01 -5.7954205932E-03
            rprim7     0.0000000000E+00  7.0710678119E-01  7.0710678119E-01
                       7.0906434602E-01 -5.7266431129E-03  7.0512052783E-01
                       7.0906434602E-01  7.0512052783E-01 -5.7266431129E-03
            rprim8     0.0000000000E+00  7.0710678119E-01  7.0710678119E-01
                       7.0908107456E-01 -5.7152313902E-03  7.0510379792E-01
                       7.0908107456E-01  7.0510379792E-01 -5.7152313902E-03
            rprim9     0.0000000000E+00  7.0710678119E-01  7.0710678119E-01
                       7.0899551199E-01 -5.8229657442E-03  7.0518895131E-01
                       7.0899551199E-01  7.0518895131E-01 -5.8229657442E-03
            rprim10    0.0000000000E+00  7.0710678119E-01  7.0710678119E-01
                       7.0901153723E-01 -5.7949307096E-03  7.0517307014E-01
                       7.0901153723E-01  7.0517307014E-01 -5.7949307096E-03
          spgroup          44
           symrel      1  0  0   0  1  0   0  0  1       1  0  0   1  0 -1   1 -1  0
                       1  0  0   0  0  1   0  1  0       1  0  0   1 -1  0   1  0 -1
           toldfe      1.00000000E-08 Hartree
            typat      1  1  2  4  2  4  2  2  3
           useylm           1
              wtk        0.00058    0.00231    0.00231    0.00231    0.00231    0.00231
                         0.00116    0.00231    0.00231    0.00463    0.00463    0.00463
                         0.00463    0.00463    0.00463    0.00463    0.00463    0.00463
                         0.00463    0.00231    0.00463    0.00231    0.00463    0.00463
                         0.00463    0.00463    0.00463    0.00463    0.00463    0.00463
                         0.00463    0.00231    0.00463    0.00463    0.00231    0.00463
                         0.00463    0.00463    0.00463    0.00463    0.00463    0.00463
                         0.00463    0.00231    0.00463    0.00463    0.00463    0.00231
                         0.00463    0.00463
                       outvars : Printing only first  50 k-points.
           xangst1     2.7829348058E+00  2.7155746237E+00  2.7155746237E+00
                       8.2977699980E+00  8.1791869095E+00  8.1791869095E+00
                       5.5403524019E+00  5.4801723371E+00  2.7123939763E+00
                       5.5403524019E+00  5.3694180454E+00  8.4197532621E+00
                       8.2282027665E+00  5.4707306274E+00  5.4707306274E+00
                       5.5403524019E+00  8.4197532621E+00  5.3694180454E+00
                       5.5403524019E+00  2.7123939763E+00  5.4801723371E+00
                       2.8525020373E+00  5.4707306275E+00  5.4707306275E+00
                       5.1899288634E-16 -1.0906212254E-01 -1.0906212254E-01
           xangst2     2.7801140432E+00  2.7130971653E+00  2.7130971653E+00
                       8.2897830134E+00  8.1714030997E+00  8.1714030997E+00
                       5.5349485283E+00  5.4749848348E+00  2.7113512829E+00
                       5.5349485283E+00  5.3646857587E+00  8.4085604271E+00
                       8.2183997334E+00  5.4659088532E+00  5.4659088532E+00
                       5.5349485283E+00  8.4085604271E+00  5.3646857587E+00
                       5.5349485283E+00  2.7113512829E+00  5.4749848348E+00
                       2.8514973232E+00  5.4659088534E+00  5.4659088534E+00
                      -2.6884494421E-16 -1.0945279978E-01 -1.0945279978E-01
           xangst3     2.7805401893E+00  2.7100981685E+00  2.7100981685E+00
                       8.2803767780E+00  8.1623651566E+00  8.1623651566E+00
                       5.5304584836E+00  5.4703024564E+00  2.7099046137E+00
                       5.5304584836E+00  5.3594026367E+00  8.3962537450E+00
                       8.2102881426E+00  5.4598405665E+00  5.4598405665E+00
                       5.5304584836E+00  8.3962537450E+00  5.3594026367E+00
                       5.5304584836E+00  2.7099046137E+00  5.4703024564E+00
                       2.8506288247E+00  5.4598405667E+00  5.4598405667E+00
                       3.8375264658E-17 -1.0987200456E-01 -1.0987200456E-01
           xangst4     2.7779235405E+00  2.7077594639E+00  2.7077594639E+00
                       8.2719268551E+00  8.1549476217E+00  8.1549476217E+00
                       5.5249251978E+00  5.4652777084E+00  2.7089241213E+00
                       5.5249251978E+00  5.3552670343E+00  8.3853062996E+00
                       8.2002572973E+00  5.4551866614E+00  5.4551866614E+00
                       5.5249251978E+00  8.3853062996E+00  5.3552670343E+00
                       5.5249251978E+00  2.7089241213E+00  5.4652777084E+00
                       2.8495930982E+00  5.4551866616E+00  5.4551866616E+00
                       7.6673739549E-17 -1.1035030968E-01 -1.1035030968E-01
           xangst5     2.7751569675E+00  2.7054557045E+00  2.7054557045E+00
                       8.2632899929E+00  8.1475169108E+00  8.1475169108E+00
                       5.5192234802E+00  5.4602850788E+00  2.7078551985E+00
                       5.5192234802E+00  5.3507135535E+00  8.3743802621E+00
                       8.1899394792E+00  5.4505413435E+00  5.4505413435E+00
                       5.5192234802E+00  8.3743802621E+00  5.3507135535E+00
                       5.5192234802E+00  2.7078551985E+00  5.4602850788E+00
                       2.8485074812E+00  5.4505413435E+00  5.4505413435E+00
                       3.3883985034E-35 -1.1079974491E-01 -1.1079974491E-01
           xangst6     2.7720007010E+00  2.7032336581E+00  2.7032336581E+00
                       8.2553601715E+00  8.1403134998E+00  8.1403134998E+00
                       5.5136804362E+00  5.4551425065E+00  2.7069598279E+00
                       5.5136804362E+00  5.3466694288E+00  8.3634962663E+00
                       8.1799235976E+00  5.4460532718E+00  5.4460532718E+00
                       5.5136804362E+00  8.3634962663E+00  5.3466694288E+00
                       5.5136804362E+00  2.7069598279E+00  5.4551425065E+00
                       2.8474372749E+00  5.4460532718E+00  5.4460532718E+00
                      -2.5383544536E-36 -1.1128299752E-01 -1.1128299752E-01
           xangst7     2.7678569311E+00  2.7011893258E+00  2.7011893258E+00
                       8.2472362709E+00  8.1336221286E+00  8.1336221286E+00
                       5.5075466010E+00  5.4496127722E+00  2.7061178255E+00
                       5.5075466010E+00  5.3427430762E+00  8.3533625225E+00
                       8.1687400434E+00  5.4422528624E+00  5.4422528624E+00
                       5.5075466010E+00  8.3533625225E+00  5.3427430762E+00
                       5.5075466010E+00  2.7061178255E+00  5.4496127722E+00
                       2.8463531586E+00  5.4422528625E+00  5.4422528625E+00
                      -4.0543033312E-34 -1.1169095309E-01 -1.1169095309E-01
           xangst8     2.7657964414E+00  2.6986389023E+00  2.6986389023E+00
                       8.2385502022E+00  8.1256024055E+00  8.1256024055E+00
                       5.5021733218E+00  5.4448160311E+00  2.7048862666E+00
                       5.5021733218E+00  5.3376563653E+00  8.3420555621E+00
                       8.1590883481E+00  5.4370708676E+00  5.4370708676E+00
                       5.5021733218E+00  8.3420555621E+00  5.3376563653E+00
                       5.5021733218E+00  2.7048862666E+00  5.4448160311E+00
                       2.8452582955E+00  5.4370708677E+00  5.4370708677E+00
                      -1.2601162117E-34 -1.1208924292E-01 -1.1208924292E-01
           xangst9     2.7632254441E+00  2.6960616123E+00  2.6960616123E+00
                       8.2282679207E+00  8.1171654557E+00  8.1171654557E+00
                       5.4957466824E+00  5.4395217315E+00  2.7030368443E+00
                       5.4957466824E+00  5.3293673394E+00  8.3312744794E+00
                       8.1474212298E+00  5.4322959506E+00  5.4322959506E+00
                       5.4957466824E+00  8.3312744794E+00  5.3293673394E+00
                       5.4957466824E+00  2.7030368443E+00  5.4395217315E+00
                       2.8440721351E+00  5.4322959507E+00  5.4322959507E+00
                       3.4320962837E-16 -1.1218861634E-01 -1.1218861634E-01
           xangst10    2.7601608308E+00  2.6937564668E+00  2.6937564668E+00
                       8.2205691511E+00  8.1095234193E+00  8.1095234193E+00
                       5.4903649910E+00  5.4341790379E+00  2.7018335720E+00
                       5.4903649910E+00  5.3244506523E+00  8.3199724813E+00
                       8.1377624268E+00  5.4275489145E+00  5.4275489145E+00
                       5.4903649910E+00  8.3199724813E+00  5.3244506523E+00
                       5.4903649910E+00  2.7018335720E+00  5.4341790379E+00
                       2.8429675552E+00  5.4275489147E+00  5.4275489147E+00
                       1.5238824066E-16 -1.1267783804E-01 -1.1267783804E-01
            xcart1     5.2589846286E+00  5.1316923322E+00  5.1316923322E+00
                       1.5680512810E+01  1.5456423249E+01  1.5456423249E+01
                       1.0469748719E+01  1.0356024878E+01  5.1256817798E+00
                       1.0469748719E+01  1.0146729599E+01  1.5911027772E+01
                       1.5549049794E+01  1.0338182633E+01  1.0338182633E+01
                       1.0469748719E+01  1.5911027772E+01  1.0146729599E+01
                       1.0469748719E+01  5.1256817798E+00  1.0356024878E+01
                       5.3904476440E+00  1.0338182633E+01  1.0338182633E+01
                       9.8075442010E-16 -2.0609754307E-01 -2.0609754307E-01
            xcart2     5.2536541598E+00  5.1270106143E+00  5.1270106143E+00
                       1.5665419596E+01  1.5441713980E+01  1.5441713980E+01
                       1.0459536878E+01  1.0346221920E+01  5.1237113746E+00
                       1.0459536878E+01  1.0137786873E+01  1.5889876379E+01
                       1.5530524747E+01  1.0329070800E+01  1.0329070800E+01
                       1.0459536878E+01  1.5889876379E+01  1.0137786873E+01
                       1.0459536878E+01  5.1237113746E+00  1.0346221920E+01
                       5.3885490096E+00  1.0329070800E+01  1.0329070800E+01
                      -5.0804331677E-16 -2.0683581606E-01 -2.0683581606E-01
            xcart3     5.2544594592E+00  5.1213433316E+00  5.1213433316E+00
                       1.5647644388E+01  1.5424634743E+01  1.5424634743E+01
                       1.0451051923E+01  1.0337373507E+01  5.1209775661E+00
                       1.0451051923E+01  1.0127803219E+01  1.5866620120E+01
                       1.5515196062E+01  1.0317603400E+01  1.0317603400E+01
                       1.0451051923E+01  1.5866620120E+01  1.0127803219E+01
                       1.0451051923E+01  5.1209775661E+00  1.0337373507E+01
                       5.3869077852E+00  1.0317603400E+01  1.0317603400E+01
                       7.2518740481E-17 -2.0762799829E-01 -2.0762799829E-01
            xcart4     5.2495147097E+00  5.1169238206E+00  5.1169238206E+00
                       1.5631676347E+01  1.5410617633E+01  1.5410617633E+01
                       1.0440595529E+01  1.0327878109E+01  5.1191247040E+00
                       1.0440595529E+01  1.0119988063E+01  1.5845932447E+01
                       1.5496240511E+01  1.0308808794E+01  1.0308808794E+01
                       1.0440595529E+01  1.5845932447E+01  1.0119988063E+01
                       1.0440595529E+01  5.1191247040E+00  1.0327878109E+01
                       5.3849505458E+00  1.0308808794E+01  1.0308808794E+01
                       1.4489236933E-16 -2.0853186397E-01 -2.0853186397E-01
            xcart5     5.2442866443E+00  5.1125703462E+00  5.1125703462E+00
                       1.5615355043E+01  1.5396575624E+01  1.5396575624E+01
                       1.0429820844E+01  1.0318443406E+01  5.1171047327E+00
                       1.0429820844E+01  1.0111383232E+01  1.5825285228E+01
                       1.5476742661E+01  1.0300030415E+01  1.0300030415E+01
                       1.0429820844E+01  1.5825285228E+01  1.0111383232E+01
                       1.0429820844E+01  5.1171047327E+00  1.0318443406E+01
                       5.3828990270E+00  1.0300030415E+01  1.0300030415E+01
                       6.4031452005E-35 -2.0938117346E-01 -2.0938117346E-01
            xcart6     5.2383221651E+00  5.1083712870E+00  5.1083712870E+00
                       1.5600369852E+01  1.5382963150E+01  1.5382963150E+01
                       1.0419346009E+01  1.0308725353E+01  5.1154127274E+00
                       1.0419346009E+01  1.0103740944E+01  1.5804717457E+01
                       1.5457815387E+01  1.0291549189E+01  1.0291549189E+01
                       1.0419346009E+01  1.5804717457E+01  1.0103740944E+01
                       1.0419346009E+01  5.1154127274E+00  1.0308725353E+01
                       5.3808766301E+00  1.0291549189E+01  1.0291549189E+01
                      -4.7967947454E-36 -2.1029438856E-01 -2.1029438856E-01
            xcart7     5.2304915748E+00  5.1045080588E+00  5.1045080588E+00
                       1.5585017905E+01  1.5370318291E+01  1.5370318291E+01
                       1.0407754740E+01  1.0298275670E+01  5.1138215736E+00
                       1.0407754740E+01  1.0096321212E+01  1.5785567456E+01
                       1.5436681533E+01  1.0284367456E+01  1.0284367456E+01
                       1.0407754740E+01  1.5785567456E+01  1.0096321212E+01
                       1.0407754740E+01  5.1138215736E+00  1.0298275670E+01
                       5.3788279473E+00  1.0284367456E+01  1.0284367456E+01
                      -7.6615229555E-34 -2.1106531287E-01 -2.1106531287E-01
            xcart8     5.2265978136E+00  5.0996884569E+00  5.0996884569E+00
                       1.5568603614E+01  1.5355163211E+01  1.5355163211E+01
                       1.0397600714E+01  1.0289211143E+01  5.1114942645E+00
                       1.0397600714E+01  1.0086708722E+01  1.5764200398E+01
                       1.5418442472E+01  1.0274574905E+01  1.0274574905E+01
                       1.0397600714E+01  1.5764200398E+01  1.0086708722E+01
                       1.0397600714E+01  5.1114942645E+00  1.0289211143E+01
                       5.3767589558E+00  1.0274574905E+01  1.0274574905E+01
                      -2.3812745357E-34 -2.1181797157E-01 -2.1181797157E-01
            xcart9     5.2217393328E+00  5.0948180845E+00  5.0948180845E+00
                       1.5549172918E+01  1.5339219687E+01  1.5339219687E+01
                       1.0385456126E+01  1.0279206366E+01  5.1079993629E+00
                       1.0385456126E+01  1.0071044733E+01  1.5743827104E+01
                       1.5396394814E+01  1.0265551619E+01  1.0265551619E+01
                       1.0385456126E+01  1.5743827104E+01  1.0071044733E+01
                       1.0385456126E+01  5.1079993629E+00  1.0279206366E+01
                       5.3745174374E+00  1.0265551620E+01  1.0265551620E+01
                       6.4857220379E-16 -2.1200576010E-01 -2.1200576010E-01
            xcart10    5.2159480530E+00  5.0904619909E+00  5.0904619909E+00
                       1.5534624352E+01  1.5324778331E+01  1.5324778331E+01
                       1.0375286202E+01  1.0269110139E+01  5.1057255078E+00
                       1.0375286202E+01  1.0061753541E+01  1.5722469423E+01
                       1.5378142321E+01  1.0256581021E+01  1.0256581021E+01
                       1.0375286202E+01  1.5722469423E+01  1.0061753541E+01
                       1.0375286202E+01  5.1057255078E+00  1.0269110139E+01
                       5.3724300839E+00  1.0256581022E+01  1.0256581022E+01
                       2.8797204073E-16 -2.1293025514E-01 -2.1293025514E-01
             xred1     2.4587773438E-01  2.5115142539E-01  2.5115142539E-01
                       7.4818058516E-01  7.4884857461E-01  7.4884857461E-01
                       2.4973898997E-01  2.5096032434E-01  7.4903967566E-01
                       7.6190975733E-01  7.7446362894E-01  2.2553637106E-01
                       2.5873252064E-01  7.4257034297E-01  7.4257034297E-01
                       7.6190975733E-01  2.2553637106E-01  7.7446362894E-01
                       2.4973898997E-01  7.4903967566E-01  2.5096032434E-01
                       7.4387320658E-01  2.5742965703E-01  2.5742965703E-01
                      -1.9961541345E-02  4.5171334362E-17  4.8503733341E-17
             xred2     2.4591664886E-01  2.5114181541E-01  2.5114181541E-01
                       7.4820027968E-01  7.4885818459E-01  7.4885818459E-01
                       2.4989714906E-01  2.5107029298E-01  7.4892970702E-01
                       7.6167773951E-01  7.7417196063E-01  2.2582803937E-01
                       2.5898313765E-01  7.4240977051E-01  7.4240977051E-01
                       7.6167773951E-01  2.2582803937E-01  7.7417196063E-01
                       2.4989714906E-01  7.4892970702E-01  2.5107029298E-01
                       7.4380267867E-01  2.5759022949E-01  2.5759022949E-01
                      -2.0052521989E-02 -2.5549751815E-17 -2.3022505513E-17
             xred3     2.4567472324E-01  2.5138423853E-01  2.5138423853E-01
                       7.4844320031E-01  7.4861576147E-01  7.4861576147E-01
                       2.5016567310E-01  2.5109083383E-01  7.4890916617E-01
                       7.6146210479E-01  7.7383736701E-01  2.2616263299E-01
                       2.5910991077E-01  7.4227915885E-01  7.4227915885E-01
                       7.6146210479E-01  2.2616263299E-01  7.7383736701E-01
                       2.5016567310E-01  7.4890916617E-01  2.5109083383E-01
                       7.4366822847E-01  2.5772084115E-01  2.5772084115E-01
                      -2.0151618546E-02  2.7956990446E-18  4.1431948593E-18
             xred4     2.4569386709E-01  2.5139919918E-01  2.5139919918E-01
                       7.4849226545E-01  7.4860080082E-01  7.4860080082E-01
                       2.5031388608E-01  2.5118753873E-01  7.4881246127E-01
                       7.6125378230E-01  7.7351771227E-01  2.2648228773E-01
                       2.5935359276E-01  7.4211478018E-01  7.4211478018E-01
                       7.6125378230E-01  2.2648228773E-01  7.7351771227E-01
                       2.5031388608E-01  7.4881246127E-01  2.5118753873E-01
                       7.4358315312E-01  2.5788521982E-01  2.5788521982E-01
                      -2.0258215152E-02  5.7870502285E-18  8.0907375793E-18
             xred5     2.4572977125E-01  2.5140828030E-01  2.5140828030E-01
                       7.4854633185E-01  7.4859171970E-01  7.4859171970E-01
                       2.5046383785E-01  2.5128335095E-01  7.4871664905E-01
                       7.6101979520E-01  7.7322630704E-01  2.2677369296E-01
                       2.5961154168E-01  7.4194671665E-01  7.4194671665E-01
                       7.6101979520E-01  2.2677369296E-01  7.7322630704E-01
                       2.5046383785E-01  7.4871664905E-01  2.5128335095E-01
                       7.4350497498E-01  2.5805328335E-01  2.5805328335E-01
                      -2.0359885842E-02 -1.1663452176E-19  1.1663452176E-19
             xred6     2.4581003151E-01  2.5137480609E-01  2.5137480609E-01
                       7.4855964369E-01  7.4862519391E-01  7.4862519391E-01
                       2.5059614463E-01  2.5139481538E-01  7.4860518462E-01
                       7.6080231433E-01  7.7290718289E-01  2.2709281711E-01
                       2.5986607436E-01  7.4178433917E-01  7.4178433917E-01
                       7.6080231433E-01  2.2709281711E-01  7.7290718289E-01
                       2.5059614463E-01  7.4860518462E-01  2.5139481538E-01
                       7.4343475270E-01  2.5821566083E-01  2.5821566083E-01
                      -2.0467420152E-02  5.0754166481E-20 -5.0754166481E-20
             xred7     2.4595524638E-01  2.5127857571E-01  2.5127857571E-01
                       7.4851239780E-01  7.4872142429E-01  7.4872142429E-01
                       2.5065177001E-01  2.5155778230E-01  7.4844221770E-01
                       7.6058674776E-01  7.7263216679E-01  2.2736783321E-01
                       2.6021249095E-01  7.4159518159E-01  7.4159518159E-01
                       7.6058674776E-01  2.2736783321E-01  7.7263216679E-01
                       2.5065177001E-01  7.4844221770E-01  2.5155778230E-01
                       7.4340285414E-01  2.5840481841E-01  2.5840481841E-01
                      -2.0560024789E-02  6.8230344953E-19 -6.8230344953E-19
             xred8     2.4592825626E-01  2.5133672457E-01  2.5133672457E-01
                       7.4860170540E-01  7.4866327543E-01  7.4866327543E-01
                       2.5085287500E-01  2.5162263457E-01  7.4837736543E-01
                       7.6034677766E-01  7.7235178320E-01  2.2764821680E-01
                       2.6042011071E-01  7.4144232387E-01  7.4144232387E-01
                       7.6034677766E-01  2.2764821680E-01  7.7235178320E-01
                       2.5085287500E-01  7.4837736543E-01  2.5162263457E-01
                       7.4330475845E-01  2.5855767613E-01  2.5855767613E-01
                      -2.0654136122E-02  4.4997172398E-19 -4.4997172398E-19
             xred9     2.4593032970E-01  2.5139672585E-01  2.5139672585E-01
                       7.4872378140E-01  7.4860327415E-01  7.4860327415E-01
                       2.5100558955E-01  2.5174216818E-01  7.4825783182E-01
                       7.5995020694E-01  7.7233731909E-01  2.2766268091E-01
                       2.6081665713E-01  7.4124788683E-01  7.4124788683E-01
                       7.5995020694E-01  2.2766268091E-01  7.7233731909E-01
                       2.5100558955E-01  7.4825783182E-01  2.5174216818E-01
                       7.4331243079E-01  2.5875211317E-01  2.5875211317E-01
                      -2.0694791979E-02  2.9081728057E-17  3.3368317078E-17
             xred10    2.4602744700E-01  2.5136405643E-01  2.5136405643E-01
                       7.4875555986E-01  7.4863594357E-01  7.4863594357E-01
                       2.5114131399E-01  2.5185379132E-01  7.4814620868E-01
                       7.5969444891E-01  7.7204736523E-01  2.2795263477E-01
                       2.6108064391E-01  7.4109484890E-01  7.4109484890E-01
                       7.5969444891E-01  2.2795263477E-01  7.7204736523E-01
                       2.5114131399E-01  7.4814620868E-01  2.5185379132E-01
                       7.4327034170E-01  2.5890515110E-01  2.5890515110E-01
                      -2.0805518225E-02  1.4141070969E-17  1.3614504647E-17
            znucl       55.00000   53.00000   40.00000   17.00000

================================================================================

 chkinp: Checking input parameters for consistency, jdtset=   1.

 chkinp: Checking input parameters for consistency, jdtset=   2.

 chkinp: Checking input parameters for consistency, jdtset=   3.

 chkinp: Checking input parameters for consistency, jdtset=   4.

 chkinp: Checking input parameters for consistency, jdtset=   5.

 chkinp: Checking input parameters for consistency, jdtset=   6.

 chkinp: Checking input parameters for consistency, jdtset=   7.

 chkinp: Checking input parameters for consistency, jdtset=   8.

 chkinp: Checking input parameters for consistency, jdtset=   9.

 chkinp: Checking input parameters for consistency, jdtset=  10.

================================================================================
== DATASET  1 ==================================================================
-   mpi_nproc: 6, omp_nthreads: -1 (-1 if OMP is not activated)


--- !DatasetInfo
iteration_state: {dtset: 1, }
dimensions: {natom: 9, nkpt: 280, mband: 42, nsppol: 1, nspinor: 1, nspden: 1, mpw: 6960, }
cutoff_energies: {ecut:  16.0, pawecutdg:  40.0, }
electrons: {nelect:   7.20000000E+01, charge:   0.00000000E+00, occopt:   1.00000000E+00, tsmear:   1.00000000E-02, }
meta: {optdriver: 0, ionmov: 0, optcell: 0, iscf: 17, paral_kgb: 0, }
...

 Real(R)+Recip(G) space primitive vectors, cartesian coordinates (Bohr,Bohr^-1):
 R(1)=  0.0000000 10.3247309 10.3247309  G(1)= -0.0477566  0.0484274  0.0484274
 R(2)= 10.4697487 -0.0881464 10.4128773  G(2)=  0.0477566 -0.0476144  0.0476144
 R(3)= 10.4697487 10.4128773 -0.0881464  G(3)=  0.0477566  0.0476144 -0.0476144
 Unit cell volume ucvol=  2.2702654E+03 bohr^3
 Angles (23,13,12)=  6.03772731E+01  6.03693698E+01  6.03693698E+01 degrees

 Coarse grid specifications (used for wave-functions):

 getcut: wavevector=  0.0000  0.0000  0.0000  ngfft=  54  54  54
         ecut(hartree)=     16.000   => boxcut(ratio)=   2.03114

 Fine grid specifications (used for densities):

 getcut: wavevector=  0.0000  0.0000  0.0000  ngfft=  90  90  90
         ecut(hartree)=     40.000   => boxcut(ratio)=   2.14081

--- Pseudopotential description ------------------------------------------------
- pspini: atom type   1  psp file is ../../../Psps_for_tests/ATOMICDATA/Cs.GGA_PBE-JTH.xml
- pspatm: opening atomic psp file    ../../../Psps_for_tests/ATOMICDATA/Cs.GGA_PBE-JTH.xml
- pspatm : Reading pseudopotential header in XML form from ../../../Psps_for_tests/ATOMICDATA/Cs.GGA_PBE-JTH.xml
 Pseudopotential format is: paw10
 basis_size (lnmax)=  6 (lmn_size= 18), orbitals=   0   0   1   1   2   2
 Spheres core radius: rc_sph= 2.20660278
 1 radial meshes are used:
  - mesh 1: r(i)=AA*[exp(BB*(i-1))-1], size=1500 , AA= 0.15922E-03 BB= 0.87573E-02
 Shapefunction is SIN type: shapef(r)=[sin(pi*r/rshp)/(pi*r/rshp)]**2
 Radius for shape functions =  2.00394208
 mmax= 1500
 Radial grid used for partial waves is grid 1
 Radial grid used for projectors is grid 1
 Radial grid used for (t)core density is grid 1
 Radial grid used for Vloc is grid 1
 Radial grid used for pseudo valence density is grid 1
 Mesh size for Vloc has been set to 1341 to avoid numerical noise.
 Compensation charge density is not taken into account in XC energy/potential
 pspatm: atomic psp has been read  and splines computed

- pspini: atom type   2  psp file is ../../../Psps_for_tests/ATOMICDATA/I.GGA_PBE-JTH.xml
- pspatm: opening atomic psp file    ../../../Psps_for_tests/ATOMICDATA/I.GGA_PBE-JTH.xml
- pspatm : Reading pseudopotential header in XML form from ../../../Psps_for_tests/ATOMICDATA/I.GGA_PBE-JTH.xml
 Pseudopotential format is: paw10
 basis_size (lnmax)=  4 (lmn_size=  8), orbitals=   0   0   1   1
 Spheres core radius: rc_sph= 2.30022271
 1 radial meshes are used:
  - mesh 1: r(i)=AA*[exp(BB*(i-1))-1], size=2000 , AA= 0.12610E-03 BB= 0.66836E-02
 Shapefunction is SIN type: shapef(r)=[sin(pi*r/rshp)/(pi*r/rshp)]**2
 Radius for shape functions =  2.10879093
 mmax= 2000
 Radial grid used for partial waves is grid 1
 Radial grid used for projectors is grid 1
 Radial grid used for (t)core density is grid 1
 Radial grid used for Vloc is grid 1
 Radial grid used for pseudo valence density is grid 1
 Mesh size for Vloc has been set to 1792 to avoid numerical noise.
 Compensation charge density is not taken into account in XC energy/potential
 pspatm: atomic psp has been read  and splines computed

- pspini: atom type   3  psp file is ../../../Psps_for_tests/ATOMICDATA/Zr.GGA_PBE-JTH.xml
- pspatm: opening atomic psp file    ../../../Psps_for_tests/ATOMICDATA/Zr.GGA_PBE-JTH.xml
- pspatm : Reading pseudopotential header in XML form from ../../../Psps_for_tests/ATOMICDATA/Zr.GGA_PBE-JTH.xml
 Pseudopotential format is: paw10
 basis_size (lnmax)=  6 (lmn_size= 18), orbitals=   0   0   1   1   2   2
 Spheres core radius: rc_sph= 2.21000000
 1 radial meshes are used:
  - mesh 1: r(i)=AA*[exp(BB*(i-1))-1], size= 941 , AA= 0.35256E-03 BB= 0.14102E-01
 Shapefunction is BESSEL type: shapef(r,l)=aa(1,l)*jl(q(1,l)*r)+aa(2,l)*jl(q(2,l)*r)
 Radius for shape functions =  2.21000000
 mmax=  941
 Radial grid used for partial waves is grid 1
 Radial grid used for projectors is grid 1
 Radial grid used for (t)core density is grid 1
 Radial grid used for Vloc is grid 1
 Radial grid used for pseudo valence density is grid 1
 Mesh size for Vloc has been set to  777 to avoid numerical noise.
 Compensation charge density is not taken into account in XC energy/potential
 pspatm: atomic psp has been read  and splines computed

- pspini: atom type   4  psp file is ../../../Psps_for_tests/ATOMICDATA/Cl.GGA_PBE-JTH.xml
- pspatm: opening atomic psp file    ../../../Psps_for_tests/ATOMICDATA/Cl.GGA_PBE-JTH.xml
- pspatm : Reading pseudopotential header in XML form from ../../../Psps_for_tests/ATOMICDATA/Cl.GGA_PBE-JTH.xml
 Pseudopotential format is: paw10
 basis_size (lnmax)=  4 (lmn_size=  8), orbitals=   0   0   1   1
 Spheres core radius: rc_sph= 1.80315674
 1 radial meshes are used:
  - mesh 1: r(i)=AA*[exp(BB*(i-1))-1], size=1400 , AA= 0.50355E-03 BB= 0.85603E-02
 Shapefunction is SIN type: shapef(r)=[sin(pi*r/rshp)/(pi*r/rshp)]**2
 Radius for shape functions =  1.61320365
 mmax= 1400
 Radial grid used for partial waves is grid 1
 Radial grid used for projectors is grid 1
 Radial grid used for (t)core density is grid 1
 Radial grid used for Vloc is grid 1
 Radial grid used for pseudo valence density is grid 1
 Mesh size for Vloc has been set to 1238 to avoid numerical noise.
 Compensation charge density is not taken into account in XC energy/potential
 pspatm: atomic psp has been read  and splines computed

   3.31979095E+04                                ecore*ucvol(ha*bohr**3)
--------------------------------------------------------------------------------

_setup2: Arith. and geom. avg. npw (full set) are    6940.138    6940.133

================================================================================

--- !BeginCycle
iteration_state: {dtset: 1, }
solver: {iscf: 17, nstep: 2500, nline: 4, wfoptalg: 10, }
tolerances: {toldfe: 1.00E-08, }
...

     iter   Etot(hartree)      deltaE(h)  residm     nres2
 ETOT  1  -165.61761725329    -1.656E+02 2.348E-01 1.841E+01
 ETOT  2  -165.81097308737    -1.934E-01 2.351E-02 4.441E+00
 ETOT  3  -165.80741154968     3.562E-03 1.120E-02 8.954E-01
 ETOT  4  -165.80816149009    -7.499E-04 2.851E-03 7.261E-02
 ETOT  5  -165.80781526137     3.462E-04 9.294E-04 6.207E-03
 ETOT  6  -165.80787061852    -5.536E-05 8.114E-04 1.229E-03
 ETOT  7  -165.80787137216    -7.536E-07 6.982E-04 3.910E-04
 ETOT  8  -165.80787311520    -1.743E-06 4.147E-04 5.895E-05
 ETOT  9  -165.80787328875    -1.736E-07 4.826E-04 2.477E-05
 ETOT 10  -165.80787335154    -6.279E-08 2.681E-04 1.570E-06
 ETOT 11  -165.80787337377    -2.222E-08 1.740E-04 1.191E-06
 ETOT 12  -165.80787337398    -2.170E-10 2.767E-04 8.410E-08
 ETOT 13  -165.80787337500    -1.019E-09 9.252E-05 4.994E-08

 At SCF step   13, etot is converged : 
  for the second time, diff in etot=  1.019E-09 < toldfe=  1.000E-08

 Cartesian components of stress tensor (hartree/bohr^3)
  sigma(1 1)= -7.55267306E-05  sigma(3 2)= -3.65409850E-08
  sigma(2 2)= -7.53896102E-05  sigma(3 1)=  8.00321642E-14
  sigma(3 3)= -7.53896102E-05  sigma(2 1)=  8.00318625E-14


--- !ResultsGS
iteration_state: {dtset: 1, }
comment   : Summary of ground state results
lattice_vectors:
- [  0.0000000,  10.3247309,  10.3247309, ]
- [ 10.4697487,  -0.0881464,  10.4128773, ]
- [ 10.4697487,  10.4128773,  -0.0881464, ]
lattice_lengths: [  14.60137,   14.76656,   14.76656, ]
lattice_angles: [ 60.377,  60.369,  60.369, ] # degrees, (23, 13, 12)
lattice_volume:   2.2702654E+03
convergence: {deltae: -1.019E-09, res2:  4.994E-08, residm:  9.252E-05, diffor: null, }
etotal    :  -1.65807873E+02
entropy   :   0.00000000E+00
fermie    :  -4.29561742E-02
cartesian_stress_tensor: # hartree/bohr^3
- [ -7.55267306E-05,   8.00318625E-14,   8.00321642E-14, ]
- [  8.00318625E-14,  -7.53896102E-05,  -3.65409850E-08, ]
- [  8.00321642E-14,  -3.65409850E-08,  -7.53896102E-05, ]
pressure_GPa:   2.2194E+00
xred      :
- [  2.4588E-01,   2.5115E-01,   2.5115E-01, Cs]
- [  7.4818E-01,   7.4885E-01,   7.4885E-01, Cs]
- [  2.4974E-01,   2.5096E-01,   7.4904E-01,  I]
- [  7.6191E-01,   7.7446E-01,   2.2554E-01, Cl]
- [  2.5873E-01,   7.4257E-01,   7.4257E-01,  I]
- [  7.6191E-01,   2.2554E-01,   7.7446E-01, Cl]
- [  2.4974E-01,   7.4904E-01,   2.5096E-01,  I]
- [  7.4387E-01,   2.5743E-01,   2.5743E-01,  I]
- [ -1.9962E-02,   4.5171E-17,   4.8504E-17, Zr]
cartesian_forces: # hartree/bohr
- [  7.33697223E-06,   2.99795076E-06,   2.99795076E-06, ]
- [ -7.33697223E-06,   2.99795076E-06,   2.99795076E-06, ]
- [ -2.00470744E-16,  -9.39966468E-06,  -6.54558649E-06, ]
- [  3.39950989E-16,   3.80917543E-05,  -1.10520542E-05, ]
- [  4.54220037E-06,  -4.32907903E-06,  -4.32907903E-06, ]
- [  3.39957139E-16,  -1.10520542E-05,   3.80917543E-05, ]
- [ -2.00469297E-16,  -6.54558649E-06,  -9.39966468E-06, ]
- [ -4.54220037E-06,  -4.32907903E-06,  -4.32907903E-06, ]
- [ -2.12026093E-16,  -8.43219241E-06,  -8.43219241E-06, ]
force_length_stats: {min:   7.62321682E-06, max:   3.96626985E-05, mean:   1.62614309E-05, }
...

 Integrated electronic density in atomic spheres:
 ------------------------------------------------
 Atom  Sphere_radius  Integrated_density
    1        2.20660          5.36623664
    2        2.20660          5.36623664
    3        2.30022          4.03207660
    4        1.80316          4.36283303
    5        2.30022          4.02821523
    6        1.80316          4.36283303
    7        2.30022          4.03207660
    8        2.30022          4.02821523
    9        2.21000          8.84888780

 PAW TEST:
 ==== Compensation charge inside spheres ============
 The following values must be close to each other ...
 Compensation charge over spherical meshes =     -5.497337509835955
 Compensation charge over fine fft grid    =     -5.497332613609524

 ==== Results concerning PAW augmentation regions ====

 Total pseudopotential strength Dij (hartree):
 Atom #  1
   0.43019  -0.14251  -0.00000  -0.00000   0.00000  -0.00000  -0.00000  -0.00001  -0.00000  -0.00000  -0.00000  -0.00000 ...
  -0.14251   0.04287  -0.00000  -0.00000  -0.00000   0.00000   0.00000   0.00000   0.00000   0.00000   0.00000   0.00000 ...
  -0.00000  -0.00000  -0.09234  -0.00000  -0.00000  -0.16731   0.00000   0.00000   0.00000  -0.00000  -0.00000  -0.00000 ...
  -0.00000  -0.00000  -0.00000  -0.09234  -0.00000   0.00000  -0.16731   0.00000  -0.00000  -0.00000   0.00000   0.00000 ...
   0.00000  -0.00000  -0.00000  -0.00000  -0.09234   0.00000   0.00000  -0.16731  -0.00000  -0.00000  -0.00000  -0.00000 ...
  -0.00000   0.00000  -0.16731   0.00000   0.00000   0.40097  -0.00000  -0.00001  -0.00000   0.00000   0.00000  -0.00000 ...
  -0.00000   0.00000   0.00000  -0.16731   0.00000  -0.00000   0.40097  -0.00001  -0.00000   0.00000  -0.00000  -0.00000 ...
  -0.00001   0.00000   0.00000   0.00000  -0.16731  -0.00001  -0.00001   0.40098  -0.00000  -0.00000   0.00000  -0.00000 ...
  -0.00000   0.00000   0.00000  -0.00000  -0.00000  -0.00000  -0.00000  -0.00000   0.00540  -0.00000   0.00000   0.00000 ...
  -0.00000   0.00000  -0.00000  -0.00000  -0.00000   0.00000   0.00000  -0.00000  -0.00000   0.00540  -0.00000  -0.00000 ...
  -0.00000   0.00000  -0.00000   0.00000  -0.00000   0.00000  -0.00000   0.00000   0.00000  -0.00000   0.00540  -0.00000 ...
  -0.00000   0.00000  -0.00000   0.00000  -0.00000  -0.00000  -0.00000  -0.00000   0.00000  -0.00000  -0.00000   0.00540 ...
   ...  only 12  components have been written...
 Atom #  9
   3.07083  -0.89426   0.00001   0.00001   0.00000   0.00000   0.00000   0.00000   0.00000   0.00001   0.00002   0.00000 ...
  -0.89426   0.26720  -0.00001  -0.00001   0.00000   0.00000   0.00000   0.00000   0.00000  -0.00000  -0.00000   0.00000 ...
   0.00001  -0.00001   0.27088   0.00000   0.00000  -0.05515  -0.00000   0.00000   0.00000  -0.00011   0.00007   0.00000 ...
   0.00001  -0.00001   0.00000   0.27088   0.00000  -0.00000  -0.05515   0.00000   0.00000  -0.00011  -0.00013   0.00000 ...
   0.00000   0.00000   0.00000   0.00000   0.27079   0.00000   0.00000  -0.05514  -0.00011   0.00000   0.00000  -0.00011 ...
   0.00000   0.00000  -0.05515  -0.00000   0.00000   0.01510   0.00000   0.00000   0.00000   0.00002  -0.00001   0.00000 ...
   0.00000   0.00000  -0.00000  -0.05515   0.00000   0.00000   0.01510   0.00000   0.00000   0.00002   0.00002   0.00000 ...
   0.00000   0.00000   0.00000   0.00000  -0.05514   0.00000   0.00000   0.01510   0.00002   0.00000   0.00000   0.00002 ...
   0.00000   0.00000   0.00000   0.00000  -0.00011   0.00000   0.00000   0.00002  -0.01214   0.00000   0.00000   0.00001 ...
   0.00001  -0.00000  -0.00011  -0.00011   0.00000   0.00002   0.00002   0.00000   0.00000  -0.01211   0.00001   0.00000 ...
   0.00002  -0.00000   0.00007  -0.00013   0.00000  -0.00001   0.00002   0.00000   0.00000   0.00001  -0.01203   0.00000 ...
   0.00000   0.00000   0.00000   0.00000  -0.00011   0.00000   0.00000   0.00002   0.00001   0.00000   0.00000  -0.01214 ...
   ...  only 12  components have been written...


 Augmentation waves occupancies Rhoij:
 Atom #  1
   1.99806  -0.01378   0.00002   0.00002   0.00000  -0.00000  -0.00000   0.00002  -0.00367  -0.00057  -0.00076  -0.00367 ...
  -0.01378   0.17958   0.00001   0.00001   0.00176  -0.00002  -0.00002  -0.00003   0.02262   0.00636   0.00814   0.02262 ...
   0.00002   0.00001   2.00847   0.00052   0.00221  -0.00499  -0.00007  -0.00036   0.00081   0.00121   0.00120  -0.00161 ...
   0.00002   0.00001   0.00052   2.00847   0.00221  -0.00007  -0.00499  -0.00036  -0.00161   0.00121   0.00022   0.00081 ...
   0.00000   0.00176   0.00221   0.00221   2.00676  -0.00036  -0.00036  -0.00469  -0.00170  -0.00178  -0.00096  -0.00170 ...
  -0.00000  -0.00002  -0.00499  -0.00007  -0.00036   0.00014   0.00001   0.00002  -0.00001  -0.00008  -0.00007   0.00005 ...
  -0.00000  -0.00002  -0.00007  -0.00499  -0.00036   0.00001   0.00014   0.00002   0.00005  -0.00008  -0.00002  -0.00001 ...
   0.00002  -0.00003  -0.00036  -0.00036  -0.00469   0.00002   0.00002   0.00011   0.00009   0.00006   0.00002   0.00009 ...
  -0.00367   0.02262   0.00081  -0.00161  -0.00170  -0.00001   0.00005   0.00009   0.05323  -0.00034  -0.01836  -0.00209 ...
  -0.00057   0.00636   0.00121   0.00121  -0.00178  -0.00008  -0.00008   0.00006  -0.00034   0.07943   0.00232  -0.00034 ...
  -0.00076   0.00814   0.00120   0.00022  -0.00096  -0.00007  -0.00002   0.00002  -0.01836   0.00232   0.03831   0.00808 ...
  -0.00367   0.02262  -0.00161   0.00081  -0.00170   0.00005  -0.00001   0.00009  -0.00209  -0.00034   0.00808   0.05323 ...
   ...  only 12  components have been written...
 Atom #  9
   1.99333  -0.06455   0.00005   0.00005   0.00000   0.00096   0.00096   0.00000   0.00000   0.00071  -0.00205   0.00000 ...
  -0.06455   1.06061   0.00443   0.00443   0.00000  -0.04544  -0.04544   0.00000   0.00000  -0.00146   0.01872   0.00000 ...
   0.00005   0.00443   1.96769  -0.00001   0.00000  -0.19589   0.00016   0.00000   0.00000  -0.00284  -0.00072   0.00000 ...
   0.00005   0.00443  -0.00001   1.96769   0.00000   0.00016  -0.19589   0.00000   0.00000  -0.00284   0.00161   0.00000 ...
   0.00000   0.00000   0.00000   0.00000   1.96948   0.00000   0.00000  -0.18434  -0.00299   0.00000   0.00000  -0.00299 ...
   0.00096  -0.04544  -0.19589   0.00016   0.00000   1.70567  -0.01164   0.00000   0.00000   0.04131   0.08566   0.00000 ...
   0.00096  -0.04544   0.00016  -0.19589   0.00000  -0.01164   1.70567   0.00000   0.00000   0.04131  -0.17319   0.00000 ...
   0.00000   0.00000   0.00000   0.00000  -0.18434   0.00000   0.00000   1.50866   0.06061   0.00000   0.00000   0.06061 ...
   0.00000   0.00000   0.00000   0.00000  -0.00299   0.00000   0.00000   0.06061   0.49119   0.00000   0.00000   0.00520 ...
   0.00071  -0.00146  -0.00284  -0.00284   0.00000   0.04131   0.04131   0.00000   0.00000   0.51134  -0.00210   0.00000 ...
  -0.00205   0.01872  -0.00072   0.00161   0.00000   0.08566  -0.17319   0.00000   0.00000  -0.00210   1.47456   0.00000 ...
   0.00000   0.00000   0.00000   0.00000  -0.00299   0.00000   0.00000   0.06061   0.00520   0.00000   0.00000   0.49119 ...
   ...  only 12  components have been written...


================================================================================

 ----iterations are completed or convergence reached----

 Mean square residual over all n,k,spin=   29.785E-08; max=  92.516E-06
 reduced coordinates (array xred) for    9 atoms
       0.245877734380      0.251151425390      0.251151425390
       0.748180585160      0.748848574610      0.748848574610
       0.249738989970      0.250960324340      0.749039675660
       0.761909757330      0.774463628940      0.225536371060
       0.258732520640      0.742570342970      0.742570342970
       0.761909757330      0.225536371060      0.774463628940
       0.249738989970      0.749039675660      0.250960324340
       0.743873206580      0.257429657030      0.257429657030
      -0.019961541345      0.000000000000      0.000000000000
 rms dE/dt=  1.6134E-04; max dE/dt=  1.5149E-04; dE/dt below (all hartree)
    1      -0.000084538001     -0.000119085256     -0.000119085256
    2      -0.000084538001      0.000034547255      0.000034547255
    3       0.000141998497      0.000056013877      0.000085984620
    4      -0.000301809559      0.000107125371     -0.000408934930
    5       0.000066761221     -0.000014175086     -0.000014175086
    6      -0.000301809559     -0.000408934930      0.000107125371
    7       0.000141998497      0.000085984620      0.000056013877
    8       0.000066761221      0.000080936307      0.000080936307
    9       0.000151488304      0.000075744152      0.000075744152

 cartesian coordinates (angstrom) at end:
    1      2.78293480578500     2.71557462372268     2.71557462372268
    2      8.29776999795453     8.17918690952867     8.17918690952867
    3      5.54035240186977     5.48017233712880     2.71239397633159
    4      5.54035240186977     5.36941804542508     8.41975326206390
    5      8.22820276646219     5.47073062739830     5.47073062739830
    6      5.54035240186977     8.41975326206390     5.36941804542508
    7      5.54035240186977     2.71239397633159     5.48017233712880
    8      2.85250203727734     5.47073062746588     5.47073062746588
    9      0.00000000000000    -0.10906212253755    -0.10906212253755

 cartesian forces (hartree/bohr) at end:
    1      0.00000733697223     0.00000299795076     0.00000299795076
    2     -0.00000733697223     0.00000299795076     0.00000299795076
    3     -0.00000000000000    -0.00000939966468    -0.00000654558649
    4      0.00000000000000     0.00003809175433    -0.00001105205421
    5      0.00000454220037    -0.00000432907903    -0.00000432907903
    6      0.00000000000000    -0.00001105205421     0.00003809175433
    7     -0.00000000000000    -0.00000654558649    -0.00000939966468
    8     -0.00000454220037    -0.00000432907903    -0.00000432907903
    9     -0.00000000000000    -0.00000843219241    -0.00000843219241
 frms,max,avg= 1.1880111E-05 3.8091754E-05   0.000E+00  1.096E-06  1.096E-06 h/b

 cartesian forces (eV/Angstrom) at end:
    1      0.00037728224978     0.00015416081355     0.00015416081355
    2     -0.00037728224977     0.00015416081355     0.00015416081355
    3     -0.00000000000001    -0.00048335015097    -0.00033658756233
    4      0.00000000000002     0.00195875659836    -0.00056831942986
    5      0.00023356931431    -0.00022261017555    -0.00022261017555
    6      0.00000000000002    -0.00056831942986     0.00195875659836
    7     -0.00000000000001    -0.00033658756233    -0.00048335015097
    8     -0.00023356931432    -0.00022261017555    -0.00022261017555
    9     -0.00000000000001    -0.00043360073119    -0.00043360073119
 frms,max,avg= 6.1089981E-04 1.9587566E-03   0.000E+00  5.636E-05  5.636E-05 e/A
 length scales= 14.601374490000 14.766564340000 14.766564340000 bohr
              =  7.726714594195  7.814129297906  7.814129297906 angstroms
 prteigrs : about to open file Cs2TiI6o_DS1_EIG
 Fermi (or HOMO) energy (hartree) =  -0.04296   Average Vxc (hartree)=  -0.30697
 Eigenvalues (hartree) for nkpt= 280  k points:
 kpt#   1, nband= 42, wtk=  0.00058, kpt=  0.0000  0.0000  0.0000 (reduced coord)
  -1.86848   -1.06066   -1.06025   -1.05915   -0.80001   -0.79967   -0.58380   -0.57883
  -0.48432   -0.46920   -0.46173   -0.46165   -0.32240   -0.32183   -0.32099   -0.31824
  -0.31770   -0.31746   -0.20507   -0.17600   -0.16917   -0.16288   -0.15945   -0.15576
  -0.14603   -0.14457   -0.12851   -0.11369   -0.11131   -0.09383   -0.08191   -0.06962
  -0.06672   -0.05143   -0.05096   -0.04296    0.01564    0.01612    0.02203    0.10601
   0.10670    0.10835
 prteigrs : prtvol=0 or 1, do not print more k-points.


--- !EnergyTerms
iteration_state     : {dtset: 1, }
comment             : Components of total free energy in Hartree
kinetic             :  4.95807155044290E+01
hartree             :  3.55661172686290E+01
xc                  : -5.59383235636164E+01
Ewald energy        : -1.24291376487860E+02
psp_core            :  1.46229198401483E+01
local_psp           : -1.13464612758427E+02
spherical_terms     :  2.81166214988387E+01
total_energy        : -1.65807938697858E+02
total_energy_eV     : -4.51186346694276E+03
...


--- !EnergyTermsDC
iteration_state     : {dtset: 1, }
comment             : '"Double-counting" decomposition of free energy'
band_energy         : -2.76581676509725E+01
Ewald energy        : -1.24291376487860E+02
psp_core            :  1.46229198401483E+01
xc_dc               : -4.89462803713004E+01
spherical_terms     :  2.04650312949823E+01
total_energy_dc     : -1.65807873375002E+02
total_energy_dc_eV  : -4.51186168941746E+03
...


 Cartesian components of stress tensor (hartree/bohr^3)
  sigma(1 1)= -7.55267306E-05  sigma(3 2)= -3.65409850E-08
  sigma(2 2)= -7.53896102E-05  sigma(3 1)=  8.00321642E-14
  sigma(3 3)= -7.53896102E-05  sigma(2 1)=  8.00318625E-14

-Cartesian components of stress tensor (GPa)         [Pressure=  2.2194E+00 GPa]
- sigma(1 1)= -2.22207276E+00  sigma(3 2)= -1.07507271E-03
- sigma(2 2)= -2.21803853E+00  sigma(3 1)=  2.35462717E-09
- sigma(3 3)= -2.21803853E+00  sigma(2 1)=  2.35461829E-09

================================================================================
== DATASET  2 ==================================================================
-   mpi_nproc: 6, omp_nthreads: -1 (-1 if OMP is not activated)


--- !DatasetInfo
iteration_state: {dtset: 2, }
dimensions: {natom: 9, nkpt: 280, mband: 42, nsppol: 1, nspinor: 1, nspden: 1, mpw: 6942, }
cutoff_energies: {ecut:  16.0, pawecutdg:  40.0, }
electrons: {nelect:   7.20000000E+01, charge:   0.00000000E+00, occopt:   1.00000000E+00, tsmear:   1.00000000E-02, }
meta: {optdriver: 0, ionmov: 0, optcell: 0, iscf: 17, paral_kgb: 0, }
...

 Real(R)+Recip(G) space primitive vectors, cartesian coordinates (Bohr,Bohr^-1):
 R(1)=  0.0000000 10.3147034 10.3147034  G(1)= -0.0478033  0.0484745  0.0484745
 R(2)= 10.4595369 -0.0876135 10.4023168  G(2)=  0.0478033 -0.0476648  0.0476648
 R(3)= 10.4595369 10.4023168 -0.0876135  G(3)=  0.0478033  0.0476648 -0.0476648
 Unit cell volume ucvol=  2.2634546E+03 bohr^3
 Angles (23,13,12)=  6.03731645E+01  6.03685990E+01  6.03685990E+01 degrees

 Coarse grid specifications (used for wave-functions):

 getcut: wavevector=  0.0000  0.0000  0.0000  ngfft=  54  54  54
         ecut(hartree)=     16.000   => boxcut(ratio)=   2.03316

 Fine grid specifications (used for densities):

 getcut: wavevector=  0.0000  0.0000  0.0000  ngfft=  90  90  90
         ecut(hartree)=     40.000   => boxcut(ratio)=   2.14294

--- Pseudopotential description ------------------------------------------------
- pspini: atom type   1  psp file is ../../../Psps_for_tests/ATOMICDATA/Cs.GGA_PBE-JTH.xml
- pspatm: opening atomic psp file    ../../../Psps_for_tests/ATOMICDATA/Cs.GGA_PBE-JTH.xml
- pspatm : Reading pseudopotential header in XML form from ../../../Psps_for_tests/ATOMICDATA/Cs.GGA_PBE-JTH.xml
 Pseudopotential format is: paw10
 basis_size (lnmax)=  6 (lmn_size= 18), orbitals=   0   0   1   1   2   2
 Spheres core radius: rc_sph= 2.20660278
 1 radial meshes are used:
  - mesh 1: r(i)=AA*[exp(BB*(i-1))-1], size=1500 , AA= 0.15922E-03 BB= 0.87573E-02
 Shapefunction is SIN type: shapef(r)=[sin(pi*r/rshp)/(pi*r/rshp)]**2
 Radius for shape functions =  2.00394208
 mmax= 1500
 Radial grid used for partial waves is grid 1
 Radial grid used for projectors is grid 1
 Radial grid used for (t)core density is grid 1
 Radial grid used for Vloc is grid 1
 Radial grid used for pseudo valence density is grid 1
 Mesh size for Vloc has been set to 1341 to avoid numerical noise.
 Compensation charge density is not taken into account in XC energy/potential
 pspatm: atomic psp has been read  and splines computed

- pspini: atom type   2  psp file is ../../../Psps_for_tests/ATOMICDATA/I.GGA_PBE-JTH.xml
- pspatm: opening atomic psp file    ../../../Psps_for_tests/ATOMICDATA/I.GGA_PBE-JTH.xml
- pspatm : Reading pseudopotential header in XML form from ../../../Psps_for_tests/ATOMICDATA/I.GGA_PBE-JTH.xml
 Pseudopotential format is: paw10
 basis_size (lnmax)=  4 (lmn_size=  8), orbitals=   0   0   1   1
 Spheres core radius: rc_sph= 2.30022271
 1 radial meshes are used:
  - mesh 1: r(i)=AA*[exp(BB*(i-1))-1], size=2000 , AA= 0.12610E-03 BB= 0.66836E-02
 Shapefunction is SIN type: shapef(r)=[sin(pi*r/rshp)/(pi*r/rshp)]**2
 Radius for shape functions =  2.10879093
 mmax= 2000
 Radial grid used for partial waves is grid 1
 Radial grid used for projectors is grid 1
 Radial grid used for (t)core density is grid 1
 Radial grid used for Vloc is grid 1
 Radial grid used for pseudo valence density is grid 1
 Mesh size for Vloc has been set to 1792 to avoid numerical noise.
 Compensation charge density is not taken into account in XC energy/potential
 pspatm: atomic psp has been read  and splines computed

- pspini: atom type   3  psp file is ../../../Psps_for_tests/ATOMICDATA/Zr.GGA_PBE-JTH.xml
- pspatm: opening atomic psp file    ../../../Psps_for_tests/ATOMICDATA/Zr.GGA_PBE-JTH.xml
- pspatm : Reading pseudopotential header in XML form from ../../../Psps_for_tests/ATOMICDATA/Zr.GGA_PBE-JTH.xml
 Pseudopotential format is: paw10
 basis_size (lnmax)=  6 (lmn_size= 18), orbitals=   0   0   1   1   2   2
 Spheres core radius: rc_sph= 2.21000000
 1 radial meshes are used:
  - mesh 1: r(i)=AA*[exp(BB*(i-1))-1], size= 941 , AA= 0.35256E-03 BB= 0.14102E-01
 Shapefunction is BESSEL type: shapef(r,l)=aa(1,l)*jl(q(1,l)*r)+aa(2,l)*jl(q(2,l)*r)
 Radius for shape functions =  2.21000000
 mmax=  941
 Radial grid used for partial waves is grid 1
 Radial grid used for projectors is grid 1
 Radial grid used for (t)core density is grid 1
 Radial grid used for Vloc is grid 1
 Radial grid used for pseudo valence density is grid 1
 Mesh size for Vloc has been set to  777 to avoid numerical noise.
 Compensation charge density is not taken into account in XC energy/potential
 pspatm: atomic psp has been read  and splines computed

- pspini: atom type   4  psp file is ../../../Psps_for_tests/ATOMICDATA/Cl.GGA_PBE-JTH.xml
- pspatm: opening atomic psp file    ../../../Psps_for_tests/ATOMICDATA/Cl.GGA_PBE-JTH.xml
- pspatm : Reading pseudopotential header in XML form from ../../../Psps_for_tests/ATOMICDATA/Cl.GGA_PBE-JTH.xml
 Pseudopotential format is: paw10
 basis_size (lnmax)=  4 (lmn_size=  8), orbitals=   0   0   1   1
 Spheres core radius: rc_sph= 1.80315674
 1 radial meshes are used:
  - mesh 1: r(i)=AA*[exp(BB*(i-1))-1], size=1400 , AA= 0.50355E-03 BB= 0.85603E-02
 Shapefunction is SIN type: shapef(r)=[sin(pi*r/rshp)/(pi*r/rshp)]**2
 Radius for shape functions =  1.61320365
 mmax= 1400
 Radial grid used for partial waves is grid 1
 Radial grid used for projectors is grid 1
 Radial grid used for (t)core density is grid 1
 Radial grid used for Vloc is grid 1
 Radial grid used for pseudo valence density is grid 1
 Mesh size for Vloc has been set to 1238 to avoid numerical noise.
 Compensation charge density is not taken into account in XC energy/potential
 pspatm: atomic psp has been read  and splines computed

--------------------------------------------------------------------------------

_setup2: Arith. and geom. avg. npw (full set) are    6919.032    6919.027

================================================================================

--- !BeginCycle
iteration_state: {dtset: 2, }
solver: {iscf: 17, nstep: 2500, nline: 4, wfoptalg: 10, }
tolerances: {toldfe: 1.00E-08, }
...

     iter   Etot(hartree)      deltaE(h)  residm     nres2
 ETOT  1  -165.61264100543    -1.656E+02 2.190E-01 1.854E+01
 ETOT  2  -165.81048576023    -1.978E-01 1.969E-02 4.521E+00
 ETOT  3  -165.80686077173     3.625E-03 4.814E-03 9.143E-01
 ETOT  4  -165.80762213572    -7.614E-04 2.942E-03 7.418E-02
 ETOT  5  -165.80726536282     3.568E-04 7.841E-04 6.162E-03
 ETOT  6  -165.80732036568    -5.500E-05 1.461E-03 1.161E-03
 ETOT  7  -165.80732133374    -9.681E-07 6.498E-04 3.455E-04
 ETOT  8  -165.80732308832    -1.755E-06 5.352E-04 5.457E-05
 ETOT  9  -165.80732325253    -1.642E-07 4.623E-04 2.054E-05
 ETOT 10  -165.80732332198    -6.945E-08 7.189E-04 1.471E-06
 ETOT 11  -165.80732334059    -1.861E-08 6.480E-04 1.053E-06
 ETOT 12  -165.80732334101    -4.201E-10 4.365E-04 8.263E-08
 ETOT 13  -165.80732334193    -9.209E-10 2.326E-04 4.037E-08

 At SCF step   13, etot is converged : 
  for the second time, diff in etot=  9.209E-10 < toldfe=  1.000E-08

 Cartesian components of stress tensor (hartree/bohr^3)
  sigma(1 1)= -7.75843926E-05  sigma(3 2)= -4.61969736E-08
  sigma(2 2)= -7.74353015E-05  sigma(3 1)=  2.90832596E-13
  sigma(3 3)= -7.74353015E-05  sigma(2 1)=  2.90832373E-13


--- !ResultsGS
iteration_state: {dtset: 2, }
comment   : Summary of ground state results
lattice_vectors:
- [  0.0000000,  10.3147034,  10.3147034, ]
- [ 10.4595369,  -0.0876135,  10.4023168, ]
- [ 10.4595369,  10.4023168,  -0.0876135, ]
lattice_lengths: [  14.58719,   14.75187,   14.75187, ]
lattice_angles: [ 60.373,  60.369,  60.369, ] # degrees, (23, 13, 12)
lattice_volume:   2.2634546E+03
convergence: {deltae: -9.209E-10, res2:  4.037E-08, residm:  2.326E-04, diffor: null, }
etotal    :  -1.65807323E+02
entropy   :   0.00000000E+00
fermie    :  -4.23005532E-02
cartesian_stress_tensor: # hartree/bohr^3
- [ -7.75843926E-05,   2.90832373E-13,   2.90832596E-13, ]
- [  2.90832373E-13,  -7.74353015E-05,  -4.61969736E-08, ]
- [  2.90832596E-13,  -4.61969736E-08,  -7.74353015E-05, ]
pressure_GPa:   2.2797E+00
xred      :
- [  2.4592E-01,   2.5114E-01,   2.5114E-01, Cs]
- [  7.4820E-01,   7.4886E-01,   7.4886E-01, Cs]
- [  2.4990E-01,   2.5107E-01,   7.4893E-01,  I]
- [  7.6168E-01,   7.7417E-01,   2.2583E-01, Cl]
- [  2.5898E-01,   7.4241E-01,   7.4241E-01,  I]
- [  7.6168E-01,   2.2583E-01,   7.7417E-01, Cl]
- [  2.4990E-01,   7.4893E-01,   2.5107E-01,  I]
- [  7.4380E-01,   2.5759E-01,   2.5759E-01,  I]
- [ -2.0053E-02,  -2.5550E-17,  -2.3023E-17, Zr]
cartesian_forces: # hartree/bohr
- [  9.70522354E-06,   6.42323580E-06,   6.42323580E-06, ]
- [ -9.70522354E-06,   6.42323580E-06,   6.42323580E-06, ]
- [ -1.06013979E-15,  -1.34473450E-05,  -9.89063114E-06, ]
- [  1.61336914E-15,   3.70601673E-05,  -1.54328998E-06, ]
- [  4.54401411E-06,  -6.04585017E-06,  -6.04585017E-06, ]
- [  1.61337382E-15,  -1.54328998E-06,   3.70601673E-05, ]
- [ -1.06013723E-15,  -9.89063114E-06,  -1.34473450E-05, ]
- [ -4.54401411E-06,  -6.04585017E-06,  -6.04585017E-06, ]
- [ -1.17503821E-15,  -1.29336725E-05,  -1.29336725E-05, ]
force_length_stats: {min:   9.68259638E-06, max:   3.70922869E-05, mean:   1.90903295E-05, }
...

 Integrated electronic density in atomic spheres:
 ------------------------------------------------
 Atom  Sphere_radius  Integrated_density
    1        2.20660          5.36432354
    2        2.20660          5.36432354
    3        2.30022          4.03199047
    4        1.80316          4.36234559
    5        2.30022          4.02781508
    6        1.80316          4.36234559
    7        2.30022          4.03199047
    8        2.30022          4.02781508
    9        2.21000          8.84605786

 PAW TEST:
 ==== Compensation charge inside spheres ============
 The following values must be close to each other ...
 Compensation charge over spherical meshes =     -5.497521909413578
 Compensation charge over fine fft grid    =     -5.497516613674562

 ==== Results concerning PAW augmentation regions ====

 Total pseudopotential strength Dij (hartree):
 Atom #  1
   0.43003  -0.14246   0.00000   0.00000   0.00000  -0.00000  -0.00000  -0.00001  -0.00000  -0.00000  -0.00000  -0.00000 ...
  -0.14246   0.04285  -0.00000  -0.00000  -0.00000   0.00000   0.00000   0.00000   0.00000   0.00000   0.00000   0.00000 ...
   0.00000  -0.00000  -0.09232  -0.00000  -0.00000  -0.16732   0.00000   0.00000   0.00000  -0.00000  -0.00000  -0.00000 ...
   0.00000  -0.00000  -0.00000  -0.09232  -0.00000   0.00000  -0.16732   0.00000  -0.00000  -0.00000   0.00000   0.00000 ...
   0.00000  -0.00000  -0.00000  -0.00000  -0.09232   0.00000   0.00000  -0.16732  -0.00000  -0.00000  -0.00000  -0.00000 ...
  -0.00000   0.00000  -0.16732   0.00000   0.00000   0.40093  -0.00000  -0.00001  -0.00000   0.00000   0.00000   0.00000 ...
[...]
                       5.4957466824E+00  2.7030368443E+00  5.4395217315E+00
                       2.8440721351E+00  5.4322959507E+00  5.4322959507E+00
                       3.4320962837E-16 -1.1218861634E-01 -1.1218861634E-01
           xangst10    2.7601608308E+00  2.6937564668E+00  2.6937564668E+00
                       8.2205691511E+00  8.1095234193E+00  8.1095234193E+00
                       5.4903649910E+00  5.4341790379E+00  2.7018335720E+00
                       5.4903649910E+00  5.3244506523E+00  8.3199724813E+00
                       8.1377624268E+00  5.4275489145E+00  5.4275489145E+00
                       5.4903649910E+00  8.3199724813E+00  5.3244506523E+00
                       5.4903649910E+00  2.7018335720E+00  5.4341790379E+00
                       2.8429675552E+00  5.4275489147E+00  5.4275489147E+00
                       1.5238824066E-16 -1.1267783804E-01 -1.1267783804E-01
            xcart1     5.2589846286E+00  5.1316923322E+00  5.1316923322E+00
                       1.5680512810E+01  1.5456423249E+01  1.5456423249E+01
                       1.0469748719E+01  1.0356024878E+01  5.1256817798E+00
                       1.0469748719E+01  1.0146729599E+01  1.5911027772E+01
                       1.5549049794E+01  1.0338182633E+01  1.0338182633E+01
                       1.0469748719E+01  1.5911027772E+01  1.0146729599E+01
                       1.0469748719E+01  5.1256817798E+00  1.0356024878E+01
                       5.3904476440E+00  1.0338182633E+01  1.0338182633E+01
                       9.8075442010E-16 -2.0609754307E-01 -2.0609754307E-01
            xcart2     5.2536541598E+00  5.1270106143E+00  5.1270106143E+00
                       1.5665419596E+01  1.5441713980E+01  1.5441713980E+01
                       1.0459536878E+01  1.0346221920E+01  5.1237113746E+00
                       1.0459536878E+01  1.0137786873E+01  1.5889876379E+01
                       1.5530524747E+01  1.0329070800E+01  1.0329070800E+01
                       1.0459536878E+01  1.5889876379E+01  1.0137786873E+01
                       1.0459536878E+01  5.1237113746E+00  1.0346221920E+01
                       5.3885490096E+00  1.0329070800E+01  1.0329070800E+01
                      -5.0804331677E-16 -2.0683581606E-01 -2.0683581606E-01
            xcart3     5.2544594592E+00  5.1213433316E+00  5.1213433316E+00
                       1.5647644388E+01  1.5424634743E+01  1.5424634743E+01
                       1.0451051923E+01  1.0337373507E+01  5.1209775661E+00
                       1.0451051923E+01  1.0127803219E+01  1.5866620120E+01
                       1.5515196062E+01  1.0317603400E+01  1.0317603400E+01
                       1.0451051923E+01  1.5866620120E+01  1.0127803219E+01
                       1.0451051923E+01  5.1209775661E+00  1.0337373507E+01
                       5.3869077852E+00  1.0317603400E+01  1.0317603400E+01
                       7.2518740481E-17 -2.0762799829E-01 -2.0762799829E-01
            xcart4     5.2495147097E+00  5.1169238206E+00  5.1169238206E+00
                       1.5631676347E+01  1.5410617633E+01  1.5410617633E+01
                       1.0440595529E+01  1.0327878109E+01  5.1191247040E+00
                       1.0440595529E+01  1.0119988063E+01  1.5845932447E+01
                       1.5496240511E+01  1.0308808794E+01  1.0308808794E+01
                       1.0440595529E+01  1.5845932447E+01  1.0119988063E+01
                       1.0440595529E+01  5.1191247040E+00  1.0327878109E+01
                       5.3849505458E+00  1.0308808794E+01  1.0308808794E+01
                       1.4489236933E-16 -2.0853186397E-01 -2.0853186397E-01
            xcart5     5.2442866443E+00  5.1125703462E+00  5.1125703462E+00
                       1.5615355043E+01  1.5396575624E+01  1.5396575624E+01
                       1.0429820844E+01  1.0318443406E+01  5.1171047327E+00
                       1.0429820844E+01  1.0111383232E+01  1.5825285228E+01
                       1.5476742661E+01  1.0300030415E+01  1.0300030415E+01
                       1.0429820844E+01  1.5825285228E+01  1.0111383232E+01
                       1.0429820844E+01  5.1171047327E+00  1.0318443406E+01
                       5.3828990270E+00  1.0300030415E+01  1.0300030415E+01
                       6.4031452005E-35 -2.0938117346E-01 -2.0938117346E-01
            xcart6     5.2383221651E+00  5.1083712870E+00  5.1083712870E+00
                       1.5600369852E+01  1.5382963150E+01  1.5382963150E+01
                       1.0419346009E+01  1.0308725353E+01  5.1154127274E+00
                       1.0419346009E+01  1.0103740944E+01  1.5804717457E+01
                       1.5457815387E+01  1.0291549189E+01  1.0291549189E+01
                       1.0419346009E+01  1.5804717457E+01  1.0103740944E+01
                       1.0419346009E+01  5.1154127274E+00  1.0308725353E+01
                       5.3808766301E+00  1.0291549189E+01  1.0291549189E+01
                      -4.7967947454E-36 -2.1029438856E-01 -2.1029438856E-01
            xcart7     5.2304915748E+00  5.1045080588E+00  5.1045080588E+00
                       1.5585017905E+01  1.5370318291E+01  1.5370318291E+01
                       1.0407754740E+01  1.0298275670E+01  5.1138215736E+00
                       1.0407754740E+01  1.0096321212E+01  1.5785567456E+01
                       1.5436681533E+01  1.0284367456E+01  1.0284367456E+01
                       1.0407754740E+01  1.5785567456E+01  1.0096321212E+01
                       1.0407754740E+01  5.1138215736E+00  1.0298275670E+01
                       5.3788279473E+00  1.0284367456E+01  1.0284367456E+01
                      -7.6615229555E-34 -2.1106531287E-01 -2.1106531287E-01
            xcart8     5.2265978136E+00  5.0996884569E+00  5.0996884569E+00
                       1.5568603614E+01  1.5355163211E+01  1.5355163211E+01
                       1.0397600714E+01  1.0289211143E+01  5.1114942645E+00
                       1.0397600714E+01  1.0086708722E+01  1.5764200398E+01
                       1.5418442472E+01  1.0274574905E+01  1.0274574905E+01
                       1.0397600714E+01  1.5764200398E+01  1.0086708722E+01
                       1.0397600714E+01  5.1114942645E+00  1.0289211143E+01
                       5.3767589558E+00  1.0274574905E+01  1.0274574905E+01
                      -2.3812745357E-34 -2.1181797157E-01 -2.1181797157E-01
            xcart9     5.2217393328E+00  5.0948180845E+00  5.0948180845E+00
                       1.5549172918E+01  1.5339219687E+01  1.5339219687E+01
                       1.0385456126E+01  1.0279206366E+01  5.1079993629E+00
                       1.0385456126E+01  1.0071044733E+01  1.5743827104E+01
                       1.5396394814E+01  1.0265551619E+01  1.0265551619E+01
                       1.0385456126E+01  1.5743827104E+01  1.0071044733E+01
                       1.0385456126E+01  5.1079993629E+00  1.0279206366E+01
                       5.3745174374E+00  1.0265551620E+01  1.0265551620E+01
                       6.4857220379E-16 -2.1200576010E-01 -2.1200576010E-01
            xcart10    5.2159480530E+00  5.0904619909E+00  5.0904619909E+00
                       1.5534624352E+01  1.5324778331E+01  1.5324778331E+01
                       1.0375286202E+01  1.0269110139E+01  5.1057255078E+00
                       1.0375286202E+01  1.0061753541E+01  1.5722469423E+01
                       1.5378142321E+01  1.0256581021E+01  1.0256581021E+01
                       1.0375286202E+01  1.5722469423E+01  1.0061753541E+01
                       1.0375286202E+01  5.1057255078E+00  1.0269110139E+01
                       5.3724300839E+00  1.0256581022E+01  1.0256581022E+01
                       2.8797204073E-16 -2.1293025514E-01 -2.1293025514E-01
             xred1     2.4587773438E-01  2.5115142539E-01  2.5115142539E-01
                       7.4818058516E-01  7.4884857461E-01  7.4884857461E-01
                       2.4973898997E-01  2.5096032434E-01  7.4903967566E-01
                       7.6190975733E-01  7.7446362894E-01  2.2553637106E-01
                       2.5873252064E-01  7.4257034297E-01  7.4257034297E-01
                       7.6190975733E-01  2.2553637106E-01  7.7446362894E-01
                       2.4973898997E-01  7.4903967566E-01  2.5096032434E-01
                       7.4387320658E-01  2.5742965703E-01  2.5742965703E-01
                      -1.9961541345E-02  4.5171334362E-17  4.8503733341E-17
             xred2     2.4591664886E-01  2.5114181541E-01  2.5114181541E-01
                       7.4820027968E-01  7.4885818459E-01  7.4885818459E-01
                       2.4989714906E-01  2.5107029298E-01  7.4892970702E-01
                       7.6167773951E-01  7.7417196063E-01  2.2582803937E-01
                       2.5898313765E-01  7.4240977051E-01  7.4240977051E-01
                       7.6167773951E-01  2.2582803937E-01  7.7417196063E-01
                       2.4989714906E-01  7.4892970702E-01  2.5107029298E-01
                       7.4380267867E-01  2.5759022949E-01  2.5759022949E-01
                      -2.0052521989E-02 -2.5549751815E-17 -2.3022505513E-17
             xred3     2.4567472324E-01  2.5138423853E-01  2.5138423853E-01
                       7.4844320031E-01  7.4861576147E-01  7.4861576147E-01
                       2.5016567310E-01  2.5109083383E-01  7.4890916617E-01
                       7.6146210479E-01  7.7383736701E-01  2.2616263299E-01
                       2.5910991077E-01  7.4227915885E-01  7.4227915885E-01
                       7.6146210479E-01  2.2616263299E-01  7.7383736701E-01
                       2.5016567310E-01  7.4890916617E-01  2.5109083383E-01
                       7.4366822847E-01  2.5772084115E-01  2.5772084115E-01
                      -2.0151618546E-02  2.7956990446E-18  4.1431948593E-18
             xred4     2.4569386709E-01  2.5139919918E-01  2.5139919918E-01
                       7.4849226545E-01  7.4860080082E-01  7.4860080082E-01
                       2.5031388608E-01  2.5118753873E-01  7.4881246127E-01
                       7.6125378230E-01  7.7351771227E-01  2.2648228773E-01
                       2.5935359276E-01  7.4211478018E-01  7.4211478018E-01
                       7.6125378230E-01  2.2648228773E-01  7.7351771227E-01
                       2.5031388608E-01  7.4881246127E-01  2.5118753873E-01
                       7.4358315312E-01  2.5788521982E-01  2.5788521982E-01
                      -2.0258215152E-02  5.7870502285E-18  8.0907375793E-18
             xred5     2.4572977125E-01  2.5140828030E-01  2.5140828030E-01
                       7.4854633185E-01  7.4859171970E-01  7.4859171970E-01
                       2.5046383785E-01  2.5128335095E-01  7.4871664905E-01
                       7.6101979520E-01  7.7322630704E-01  2.2677369296E-01
                       2.5961154168E-01  7.4194671665E-01  7.4194671665E-01
                       7.6101979520E-01  2.2677369296E-01  7.7322630704E-01
                       2.5046383785E-01  7.4871664905E-01  2.5128335095E-01
                       7.4350497498E-01  2.5805328335E-01  2.5805328335E-01
                      -2.0359885842E-02 -1.1663452176E-19  1.1663452176E-19
             xred6     2.4581003151E-01  2.5137480609E-01  2.5137480609E-01
                       7.4855964369E-01  7.4862519391E-01  7.4862519391E-01
                       2.5059614463E-01  2.5139481538E-01  7.4860518462E-01
                       7.6080231433E-01  7.7290718289E-01  2.2709281711E-01
                       2.5986607436E-01  7.4178433917E-01  7.4178433917E-01
                       7.6080231433E-01  2.2709281711E-01  7.7290718289E-01
                       2.5059614463E-01  7.4860518462E-01  2.5139481538E-01
                       7.4343475270E-01  2.5821566083E-01  2.5821566083E-01
                      -2.0467420152E-02  5.0754166481E-20 -5.0754166481E-20
             xred7     2.4595524638E-01  2.5127857571E-01  2.5127857571E-01
                       7.4851239780E-01  7.4872142429E-01  7.4872142429E-01
                       2.5065177001E-01  2.5155778230E-01  7.4844221770E-01
                       7.6058674776E-01  7.7263216679E-01  2.2736783321E-01
                       2.6021249095E-01  7.4159518159E-01  7.4159518159E-01
                       7.6058674776E-01  2.2736783321E-01  7.7263216679E-01
                       2.5065177001E-01  7.4844221770E-01  2.5155778230E-01
                       7.4340285414E-01  2.5840481841E-01  2.5840481841E-01
                      -2.0560024789E-02  6.8230344953E-19 -6.8230344953E-19
             xred8     2.4592825626E-01  2.5133672457E-01  2.5133672457E-01
                       7.4860170540E-01  7.4866327543E-01  7.4866327543E-01
                       2.5085287500E-01  2.5162263457E-01  7.4837736543E-01
                       7.6034677766E-01  7.7235178320E-01  2.2764821680E-01
                       2.6042011071E-01  7.4144232387E-01  7.4144232387E-01
                       7.6034677766E-01  2.2764821680E-01  7.7235178320E-01
                       2.5085287500E-01  7.4837736543E-01  2.5162263457E-01
                       7.4330475845E-01  2.5855767613E-01  2.5855767613E-01
                      -2.0654136122E-02  4.4997172398E-19 -4.4997172398E-19
             xred9     2.4593032970E-01  2.5139672585E-01  2.5139672585E-01
                       7.4872378140E-01  7.4860327415E-01  7.4860327415E-01
                       2.5100558955E-01  2.5174216818E-01  7.4825783182E-01
                       7.5995020694E-01  7.7233731909E-01  2.2766268091E-01
                       2.6081665713E-01  7.4124788683E-01  7.4124788683E-01
                       7.5995020694E-01  2.2766268091E-01  7.7233731909E-01
                       2.5100558955E-01  7.4825783182E-01  2.5174216818E-01
                       7.4331243079E-01  2.5875211317E-01  2.5875211317E-01
                      -2.0694791979E-02  2.9081728057E-17  3.3368317078E-17
             xred10    2.4602744700E-01  2.5136405643E-01  2.5136405643E-01
                       7.4875555986E-01  7.4863594357E-01  7.4863594357E-01
                       2.5114131399E-01  2.5185379132E-01  7.4814620868E-01
                       7.5969444891E-01  7.7204736523E-01  2.2795263477E-01
                       2.6108064391E-01  7.4109484890E-01  7.4109484890E-01
                       7.5969444891E-01  2.2795263477E-01  7.7204736523E-01
                       2.5114131399E-01  7.4814620868E-01  2.5185379132E-01
                       7.4327034170E-01  2.5890515110E-01  2.5890515110E-01
                      -2.0805518225E-02  1.4141070969E-17  1.3614504647E-17
            znucl       55.00000   53.00000   40.00000   17.00000

================================================================================


- Timing analysis has been suppressed with timopt=0



================================================================================

 Suggested references for the acknowledgment of ABINIT usage.

 The users of ABINIT have little formal obligations with respect to the ABINIT group
 (those specified in the GNU General Public License, http://www.gnu.org/copyleft/gpl.txt).
 However, it is common practice in the scientific literature,
 to acknowledge the efforts of people that have made the research possible.
 In this spirit, please find below suggested citations of work written by ABINIT developers,
 corresponding to implementations inside of ABINIT that you have used in the present run.
 Note also that it will be of great value to readers of publications presenting these results,
 to read papers enabling them to understand the theoretical formalism and details
 of the ABINIT implementation.
 For information on why they are suggested, see also https://docs.abinit.org/theory/acknowledgments.
-
- [1] Implementation of the Projector Augmented-Wave Method in the ABINIT code.
- M. Torrent, F. Jollet, F. Bottin, G. Zerah, and X. Gonze Comput. Mat. Science 42, 337, (2008).
- Comment: PAW calculations. Strong suggestion to cite this paper.
- DOI and bibtex: see https://docs.abinit.org/theory/bibliography/#torrent2008
-
- [2] Libxc: A library of exchange and correlation functionals for density functional theory.
- M.A.L. Marques, M.J.T. Oliveira, T. Burnus, Computer Physics Communications 183, 2227 (2012).
- Comment: to be cited when LibXC is used (negative value of ixc)
- Strong suggestion to cite this paper.
- DOI and bibtex: see https://docs.abinit.org/theory/bibliography/#marques2012
-
- [3] The Abinit project: Impact, environment and recent developments.
- Computer Phys. Comm. 248, 107042 (2020).
- X.Gonze, B. Amadon, G. Antonius, F.Arnardi, L.Baguet, J.-M.Beuken,
- J.Bieder, F.Bottin, J.Bouchet, E.Bousquet, N.Brouwer, F.Bruneval,
- G.Brunin, T.Cavignac, J.-B. Charraud, Wei Chen, M.Cote, S.Cottenier,
- J.Denier, G.Geneste, Ph.Ghosez, M.Giantomassi, Y.Gillet, O.Gingras,
- D.R.Hamann, G.Hautier, Xu He, N.Helbig, N.Holzwarth, Y.Jia, F.Jollet,
- W.Lafargue-Dit-Hauret, K.Lejaeghere, M.A.L.Marques, A.Martin, C.Martins,
- H.P.C. Miranda, F.Naccarato, K. Persson, G.Petretto, V.Planes, Y.Pouillon,
- S.Prokhorenko, F.Ricci, G.-M.Rignanese, A.H.Romero, M.M.Schmitt, M.Torrent,
- M.J.van Setten, B.Van Troeye, M.J.Verstraete, G.Zerah and J.W.Zwanzig
- Comment: the fifth generic paper describing the ABINIT project.
- Note that a version of this paper, that is not formatted for Computer Phys. Comm. 
- is available at https://www.abinit.org/sites/default/files/ABINIT20.pdf .
- The licence allows the authors to put it on the Web.
- DOI and bibtex: see https://docs.abinit.org/theory/bibliography/#gonze2020
-
- [4] ABINIT: Overview, and focus on selected capabilities
- J. Chem. Phys. 152, 124102 (2020).
- A. Romero, D.C. Allan, B. Amadon, G. Antonius, T. Applencourt, L.Baguet,
- J.Bieder, F.Bottin, J.Bouchet, E.Bousquet, F.Bruneval,
- G.Brunin, D.Caliste, M.Cote,
- J.Denier, C. Dreyer, Ph.Ghosez, M.Giantomassi, Y.Gillet, O.Gingras,
- D.R.Hamann, G.Hautier, F.Jollet, G. Jomard,
- A.Martin, 
- H.P.C. Miranda, F.Naccarato, G.Petretto, N.A. Pike, V.Planes,
- S.Prokhorenko, T. Rangel, F.Ricci, G.-M.Rignanese, M.Royo, M.Stengel, M.Torrent,
- M.J.van Setten, B.Van Troeye, M.J.Verstraete, J.Wiktor, J.W.Zwanziger, and X.Gonze.
- Comment: a global overview of ABINIT, with focus on selected capabilities .
- Note that a version of this paper, that is not formatted for J. Chem. Phys 
- is available at https://www.abinit.org/sites/default/files/ABINIT20_JPC.pdf .
- The licence allows the authors to put it on the Web.
- DOI and bibtex: see https://docs.abinit.org/theory/bibliography/#romero2020
-
- [5] Recent developments in the ABINIT software package.
- Computer Phys. Comm. 205, 106 (2016).
- X.Gonze, F.Jollet, F.Abreu Araujo, D.Adams, B.Amadon, T.Applencourt,
- C.Audouze, J.-M.Beuken, J.Bieder, A.Bokhanchuk, E.Bousquet, F.Bruneval
- D.Caliste, M.Cote, F.Dahm, F.Da Pieve, M.Delaveau, M.Di Gennaro,
- B.Dorado, C.Espejo, G.Geneste, L.Genovese, A.Gerossier, M.Giantomassi,
- Y.Gillet, D.R.Hamann, L.He, G.Jomard, J.Laflamme Janssen, S.Le Roux,
- A.Levitt, A.Lherbier, F.Liu, I.Lukacevic, A.Martin, C.Martins,
- M.J.T.Oliveira, S.Ponce, Y.Pouillon, T.Rangel, G.-M.Rignanese,
- A.H.Romero, B.Rousseau, O.Rubel, A.A.Shukri, M.Stankovski, M.Torrent,
- M.J.Van Setten, B.Van Troeye, M.J.Verstraete, D.Waroquier, J.Wiktor,
- B.Xu, A.Zhou, J.W.Zwanziger.
- Comment: the fourth generic paper describing the ABINIT project.
- Note that a version of this paper, that is not formatted for Computer Phys. Comm. 
- is available at https://www.abinit.org/sites/default/files/ABINIT16.pdf .
- The licence allows the authors to put it on the Web.
- DOI and bibtex: see https://docs.abinit.org/theory/bibliography/#gonze2016
-
- Proc.   0 individual time (sec): cpu=      15097.6  wall=      15119.7

================================================================================

 Calculation completed.
.Delivered   0 WARNINGs and   0 COMMENTs to log file.
+Overall time at end (sec) : cpu=      90601.0  wall=      90718.0
