
.Version 9.2.2 of ABINIT 
.(MPI version, prepared for a x86_64_linux_gnu9.3 computer) 

.Copyright (C) 1998-2020 ABINIT group . 
 ABINIT comes with ABSOLUTELY NO WARRANTY.
 It is free software, and you are welcome to redistribute it
 under certain conditions (GNU General Public License,
 see ~abinit/COPYING or http://www.gnu.org/copyleft/gpl.txt).

 ABINIT is a project of the Universite Catholique de Louvain,
 Corning Inc. and other collaborators, see ~abinit/doc/developers/contributors.txt .
 Please read https://docs.abinit.org/theory/acknowledgments for suggested
 acknowledgments of the ABINIT effort.
 For more information, see https://www.abinit.org .

.Starting date : Sun 20 Nov 2022.
- ( at 22h22 )
  
- input  file    -> Cs2TiI6.in
- output file    -> Cs2TiI6.out
- root for input  files -> Cs2TiI6i
- root for output files -> Cs2TiI6o

- inpspheads : Reading pseudopotential header in XML form from 
-   ../../../Psps_for_tests/ATOMICDATA/Cs.GGA_PBE-JTH.xml
- inpspheads : Reading pseudopotential header in XML form from 
-   ../../../Psps_for_tests/ATOMICDATA/I.GGA_PBE-JTH.xml
- inpspheads : Reading pseudopotential header in XML form from 
-   ../../../Psps_for_tests/ATOMICDATA/Hf.GGA_PBE-JTH.xml
- inpspheads : Reading pseudopotential header in XML form from 
-   ../../../Psps_for_tests/ATOMICDATA/Br.GGA_PBE-JTH.xml

 DATASET    1 : space group I4/m m m (#139); Bravais tI (body-center tetrag.)
================================================================================
 Values of the parameters that define the memory need for DATASET  1.
     intxc =       0    ionmov =       2      iscf =      17    lmnmax =      18
     lnmax =       6     mgfft =      64  mpssoang =       3    mqgrid =    3909
     natom =       9  nloc_mem =       2    nspden =       1   nspinor =       1
    nsppol =       1      nsym =      16    n1xccc =       1    ntypat =       4
    occopt =       1   xclevel =       2
-    mband =          42        mffmem =           1         mkmem =           4
       mpw =       10290          nfft =      262144          nkpt =          20
Pmy_natom=         2
 PAW method is used; the additional fine FFT grid is defined by:
   mgfftf=        96    nfftf =    884736
================================================================================
P This job should need less than                     301.077 Mbytes of memory.
  Rough estimation (10% accuracy) of disk space for files :
_ WF disk file :    131.893 Mbytes ; DEN or POT disk file :      6.752 Mbytes.
================================================================================


 DATASET    2 : space group I4/m m m (#139); Bravais tI (body-center tetrag.)
================================================================================
 Values of the parameters that define the memory need for DATASET  2.
     intxc =       0    ionmov =       2      iscf =      17    lmnmax =      18
     lnmax =       6     mgfft =      64  mpssoang =       3    mqgrid =    3905
     natom =       9  nloc_mem =       2    nspden =       1   nspinor =       1
    nsppol =       1      nsym =      16    n1xccc =       1    ntypat =       4
    occopt =       1   xclevel =       2
-    mband =          42        mffmem =           1         mkmem =           4
       mpw =       10270          nfft =      262144          nkpt =          20
Pmy_natom=         2
 PAW method is used; the additional fine FFT grid is defined by:
   mgfftf=        96    nfftf =    884736
================================================================================
P This job should need less than                     301.081 Mbytes of memory.
  Rough estimation (10% accuracy) of disk space for files :
_ WF disk file :    131.637 Mbytes ; DEN or POT disk file :      6.752 Mbytes.
================================================================================


 DATASET    3 : space group I4/m m m (#139); Bravais tI (body-center tetrag.)
================================================================================
 Values of the parameters that define the memory need for DATASET  3.
     intxc =       0    ionmov =       2      iscf =      17    lmnmax =      18
     lnmax =       6     mgfft =      64  mpssoang =       3    mqgrid =    3901
     natom =       9  nloc_mem =       2    nspden =       1   nspinor =       1
    nsppol =       1      nsym =      16    n1xccc =       1    ntypat =       4
    occopt =       1   xclevel =       2
-    mband =          42        mffmem =           1         mkmem =           4
       mpw =       10237          nfft =      262144          nkpt =          20
Pmy_natom=         2
 PAW method is used; the additional fine FFT grid is defined by:
   mgfftf=        96    nfftf =    884736
================================================================================
P This job should need less than                     301.050 Mbytes of memory.
  Rough estimation (10% accuracy) of disk space for files :
_ WF disk file :    131.214 Mbytes ; DEN or POT disk file :      6.752 Mbytes.
================================================================================


 DATASET    4 : space group I4/m m m (#139); Bravais tI (body-center tetrag.)
================================================================================
 Values of the parameters that define the memory need for DATASET  4.
     intxc =       0    ionmov =       2      iscf =      17    lmnmax =      18
     lnmax =       6     mgfft =      64  mpssoang =       3    mqgrid =    3897
     natom =       9  nloc_mem =       2    nspden =       1   nspinor =       1
    nsppol =       1      nsym =      16    n1xccc =       1    ntypat =       4
    occopt =       1   xclevel =       2
-    mband =          42        mffmem =           1         mkmem =           4
       mpw =       10204          nfft =      262144          nkpt =          20
Pmy_natom=         2
 PAW method is used; the additional fine FFT grid is defined by:
   mgfftf=        96    nfftf =    884736
================================================================================
P This job should need less than                     301.019 Mbytes of memory.
  Rough estimation (10% accuracy) of disk space for files :
_ WF disk file :    130.791 Mbytes ; DEN or POT disk file :      6.752 Mbytes.
================================================================================


 DATASET    5 : space group I4/m m m (#139); Bravais tI (body-center tetrag.)
================================================================================
 Values of the parameters that define the memory need for DATASET  5.
     intxc =       0    ionmov =       2      iscf =      17    lmnmax =      18
     lnmax =       6     mgfft =      64  mpssoang =       3    mqgrid =    3894
     natom =       9  nloc_mem =       2    nspden =       1   nspinor =       1
    nsppol =       1      nsym =      16    n1xccc =       1    ntypat =       4
    occopt =       1   xclevel =       2
-    mband =          42        mffmem =           1         mkmem =           4
       mpw =       10179          nfft =      262144          nkpt =          20
Pmy_natom=         2
 PAW method is used; the additional fine FFT grid is defined by:
   mgfftf=        96    nfftf =    884736
================================================================================
P This job should need less than                     301.011 Mbytes of memory.
  Rough estimation (10% accuracy) of disk space for files :
_ WF disk file :    130.470 Mbytes ; DEN or POT disk file :      6.752 Mbytes.
================================================================================


 DATASET    6 : space group I4/m m m (#139); Bravais tI (body-center tetrag.)
================================================================================
 Values of the parameters that define the memory need for DATASET  6.
     intxc =       0    ionmov =       2      iscf =      17    lmnmax =      18
     lnmax =       6     mgfft =      64  mpssoang =       3    mqgrid =    3890
     natom =       9  nloc_mem =       2    nspden =       1   nspinor =       1
    nsppol =       1      nsym =      16    n1xccc =       1    ntypat =       4
    occopt =       1   xclevel =       2
-    mband =          42        mffmem =           1         mkmem =           4
       mpw =       10144          nfft =      262144          nkpt =          20
Pmy_natom=         2
 PAW method is used; the additional fine FFT grid is defined by:
   mgfftf=        96    nfftf =    884736
================================================================================
P This job should need less than                     300.974 Mbytes of memory.
  Rough estimation (10% accuracy) of disk space for files :
_ WF disk file :    130.022 Mbytes ; DEN or POT disk file :      6.752 Mbytes.
================================================================================


 DATASET    7 : space group I4/m m m (#139); Bravais tI (body-center tetrag.)
================================================================================
 Values of the parameters that define the memory need for DATASET  7.
     intxc =       0    ionmov =       2      iscf =      17    lmnmax =      18
     lnmax =       6     mgfft =      64  mpssoang =       3    mqgrid =    3886
     natom =       9  nloc_mem =       2    nspden =       1   nspinor =       1
    nsppol =       1      nsym =      16    n1xccc =       1    ntypat =       4
    occopt =       1   xclevel =       2
-    mband =          42        mffmem =           1         mkmem =           4
       mpw =       10121          nfft =      262144          nkpt =          20
Pmy_natom=         2
 PAW method is used; the additional fine FFT grid is defined by:
   mgfftf=        96    nfftf =    884736
================================================================================
P This job should need less than                     300.973 Mbytes of memory.
  Rough estimation (10% accuracy) of disk space for files :
_ WF disk file :    129.727 Mbytes ; DEN or POT disk file :      6.752 Mbytes.
================================================================================


 DATASET    8 : space group I4/m m m (#139); Bravais tI (body-center tetrag.)
================================================================================
 Values of the parameters that define the memory need for DATASET  8.
     intxc =       0    ionmov =       2      iscf =      17    lmnmax =      18
     lnmax =       6     mgfft =      64  mpssoang =       3    mqgrid =    3882
     natom =       9  nloc_mem =       2    nspden =       1   nspinor =       1
    nsppol =       1      nsym =      16    n1xccc =       1    ntypat =       4
    occopt =       1   xclevel =       2
-    mband =          42        mffmem =           1         mkmem =           4
       mpw =       10082          nfft =      262144          nkpt =          20
Pmy_natom=         2
 PAW method is used; the additional fine FFT grid is defined by:
   mgfftf=        96    nfftf =    884736
================================================================================
P This job should need less than                     300.925 Mbytes of memory.
  Rough estimation (10% accuracy) of disk space for files :
_ WF disk file :    129.227 Mbytes ; DEN or POT disk file :      6.752 Mbytes.
================================================================================


 DATASET    9 : space group I4/m m m (#139); Bravais tI (body-center tetrag.)
================================================================================
 Values of the parameters that define the memory need for DATASET  9.
     intxc =       0    ionmov =       2      iscf =      17    lmnmax =      18
     lnmax =       6     mgfft =      64  mpssoang =       3    mqgrid =    3878
     natom =       9  nloc_mem =       2    nspden =       1   nspinor =       1
    nsppol =       1      nsym =      16    n1xccc =       1    ntypat =       4
    occopt =       1   xclevel =       2
-    mband =          42        mffmem =           1         mkmem =           4
       mpw =       10055          nfft =      262144          nkpt =          20
Pmy_natom=         2
 PAW method is used; the additional fine FFT grid is defined by:
   mgfftf=        96    nfftf =    884736
================================================================================
P This job should need less than                     300.913 Mbytes of memory.
  Rough estimation (10% accuracy) of disk space for files :
_ WF disk file :    128.881 Mbytes ; DEN or POT disk file :      6.752 Mbytes.
================================================================================


 DATASET   10 : space group I4/m m m (#139); Bravais tI (body-center tetrag.)
================================================================================
 Values of the parameters that define the memory need for DATASET 10.
     intxc =       0    ionmov =       2      iscf =      17    lmnmax =      18
     lnmax =       6     mgfft =      64  mpssoang =       3    mqgrid =    3874
     natom =       9  nloc_mem =       2    nspden =       1   nspinor =       1
    nsppol =       1      nsym =      16    n1xccc =       1    ntypat =       4
    occopt =       1   xclevel =       2
-    mband =          42        mffmem =           1         mkmem =           4
       mpw =       10025          nfft =      262144          nkpt =          20
Pmy_natom=         2
 PAW method is used; the additional fine FFT grid is defined by:
   mgfftf=        96    nfftf =    884736
================================================================================
P This job should need less than                     300.892 Mbytes of memory.
  Rough estimation (10% accuracy) of disk space for files :
_ WF disk file :    128.496 Mbytes ; DEN or POT disk file :      6.752 Mbytes.
================================================================================

--------------------------------------------------------------------------------
------------- Echo of variables that govern the present computation ------------
--------------------------------------------------------------------------------
-
- outvars: echo of selected default values                                      
-   iomode0 =  0 , fftalg0 =112 , wfoptalg0 = 10
-
- outvars: echo of global parameters not present in the input file              
-  max_nthreads =    0
-
 -outvars: echo values of preprocessed input variables --------
            acell1     1.4605029836E+01  1.4654274946E+01  1.4605029836E+01 Bohr
            acell2     1.4590410186E+01  1.4639606002E+01  1.4590410186E+01 Bohr
            acell3     1.4575790537E+01  1.4624937058E+01  1.4575790537E+01 Bohr
            acell4     1.4561170887E+01  1.4610268114E+01  1.4561170887E+01 Bohr
            acell5     1.4546551238E+01  1.4595599171E+01  1.4546551238E+01 Bohr
            acell6     1.4531931588E+01  1.4580930227E+01  1.4531931588E+01 Bohr
            acell7     1.4517311939E+01  1.4566261283E+01  1.4517311939E+01 Bohr
            acell8     1.4502692289E+01  1.4551592339E+01  1.4502692289E+01 Bohr
            acell9     1.4488072640E+01  1.4536923395E+01  1.4488072640E+01 Bohr
            acell10    1.4473452990E+01  1.4522254451E+01  1.4473452990E+01 Bohr
              amu      1.32905430E+02  1.26904470E+02  1.78490000E+02
                       7.99040000E+01
           diemac      1.20000000E+01
          dilatmx      1.15000000E+00
             ecut      1.60000000E+01 Hartree
           ecutsm      5.00000000E-01 Hartree
-          fftalg         112
          getxred1          0
          getxred2         -1
          getxred3         -1
          getxred4         -1
          getxred5         -1
          getxred6         -1
          getxred7         -1
          getxred8         -1
          getxred9         -1
          getxred10        -1
           ionmov           2
              ixc     -101130
           jdtset        1    2    3    4    5    6    7    8    9   10
              kpt      0.00000000E+00 -1.25000000E-01  0.00000000E+00
                       0.00000000E+00 -3.75000000E-01  0.00000000E+00
                       1.25000000E-01 -2.50000000E-01  0.00000000E+00
                       1.25000000E-01 -1.25000000E-01  1.25000000E-01
                       1.25000000E-01  5.00000000E-01  0.00000000E+00
                       2.50000000E-01 -3.75000000E-01  0.00000000E+00
                       1.25000000E-01 -3.75000000E-01  1.25000000E-01
                       2.50000000E-01 -2.50000000E-01  1.25000000E-01
                       2.50000000E-01 -1.25000000E-01  2.50000000E-01
                       1.25000000E-01  2.50000000E-01  0.00000000E+00
                       2.50000000E-01  3.75000000E-01  0.00000000E+00
                       3.75000000E-01  5.00000000E-01  0.00000000E+00
                       1.25000000E-01  3.75000000E-01  1.25000000E-01
                       2.50000000E-01  5.00000000E-01  1.25000000E-01
                       3.75000000E-01 -3.75000000E-01  1.25000000E-01
                       2.50000000E-01 -3.75000000E-01  2.50000000E-01
                       3.75000000E-01 -2.50000000E-01  2.50000000E-01
                       3.75000000E-01 -1.25000000E-01  3.75000000E-01
                       5.00000000E-01  2.50000000E-01  1.25000000E-01
                      -3.75000000E-01  3.75000000E-01  1.25000000E-01
         kptrlatt        4    4   -4     -4    4    4      4   -4    4
          kptrlen1     8.23390102E+01
          kptrlen2     8.22565888E+01
          kptrlen3     8.21741673E+01
          kptrlen4     8.20917459E+01
          kptrlen5     8.20093245E+01
          kptrlen6     8.19269030E+01
          kptrlen7     8.18444816E+01
          kptrlen8     8.17620602E+01
          kptrlen9     8.16796387E+01
          kptrlen10    8.15972173E+01
P           mkmem           4
            natom           9
            nband          42
           ndtset          10
            ngfft          64      64      64
          ngfftdg          96      96      96
             nkpt          20
            nstep          50
             nsym          16
            ntime        1000
           ntypat           4
              occ      2.000000  2.000000  2.000000  2.000000  2.000000  2.000000
                       2.000000  2.000000  2.000000  2.000000  2.000000  2.000000
                       2.000000  2.000000  2.000000  2.000000  2.000000  2.000000
                       2.000000  2.000000  2.000000  2.000000  2.000000  2.000000
                       2.000000  2.000000  2.000000  2.000000  2.000000  2.000000
                       2.000000  2.000000  2.000000  2.000000  2.000000  2.000000
                       0.000000  0.000000  0.000000  0.000000  0.000000  0.000000
          optcell           3
        optforces           1
        pawecutdg      4.00000000E+01 Hartree
            prtwf           0
            rprim      0.0000000000E+00  7.0471449841E-01  7.0949099764E-01
                       7.0710678119E-01  0.0000000000E+00  7.0710678119E-01
                       7.0949099764E-01  7.0471449841E-01  0.0000000000E+00
           shiftk     -5.00000000E-01  5.00000000E-01  5.00000000E-01
          spgroup         139
           symrel      1  0  0   0  1  0   0  0  1      -1  0  0   0 -1  0   0  0 -1
                       0  0 -1   0 -1  0  -1  0  0       0  0  1   0  1  0   1  0  0
                       0 -1  1   0 -1  0   1 -1  0       0  1 -1   0  1  0  -1  1  0
                      -1  1  0   0  1  0   0  1 -1       1 -1  0   0 -1  0   0 -1  1
                       0 -1  1  -1  0  1   0  0  1       0  1 -1   1  0 -1   0  0 -1
                       0  0 -1   1  0 -1   0  1 -1       0  0  1  -1  0  1   0 -1  1
                       1  0  0   1  0 -1   1 -1  0      -1  0  0  -1  0  1  -1  1  0
                      -1  1  0  -1  0  1  -1  0  0       1 -1  0   1  0 -1   1  0  0
           toldff      1.00000000E-08
           tolmxf      1.00000000E-05
            typat      1  1  2  4  4  2  4  4  3
           useylm           1
              wtk        0.03125    0.03125    0.06250    0.03125    0.06250    0.06250
                         0.03125    0.06250    0.03125    0.06250    0.06250    0.06250
                         0.03125    0.06250    0.06250    0.03125    0.06250    0.03125
                         0.06250    0.06250
           xangst1     2.7417034161E+00  2.7232454734E+00  2.7417034161E+00
                       8.2251102484E+00  8.1697364203E+00  8.2251102484E+00
                       5.4834068324E+00  8.0465055782E+00  5.4834068324E+00
                       5.4834068324E+00  5.4464909469E+00  2.6032304988E+00
                       5.4834068322E+00  5.4464909469E+00  8.3635831657E+00
                       5.4834068322E+00  2.8464763155E+00  5.4834068322E+00
                       8.3635831657E+00  5.4464909469E+00  5.4834068322E+00
                       2.6032304988E+00  5.4464909469E+00  5.4834068324E+00
                       3.9773461206E-21 -5.6944290871E-21  3.4074707417E-21
           xangst2     2.7389589683E+00  2.7205195020E+00  2.7389589683E+00
                       8.2168769048E+00  8.1615585059E+00  8.2168769048E+00
                       5.4779179366E+00  8.0384510180E+00  5.4779179366E+00
                       5.4779179366E+00  5.4410390040E+00  2.6006246625E+00
                       5.4779179364E+00  5.4410390040E+00  8.3552112106E+00
                       5.4779179365E+00  2.8436269899E+00  5.4779179365E+00
                       8.3552112106E+00  5.4410390040E+00  5.4779179364E+00
                       2.6006246625E+00  5.4410390040E+00  5.4779179366E+00
                       3.9733647931E-21 -5.6887289579E-21  3.4040598601E-21
           xangst3     2.7362145204E+00  2.7177935305E+00  2.7362145204E+00
                       8.2086435612E+00  8.1533805916E+00  8.2086435612E+00
                       5.4724290409E+00  8.0303964579E+00  5.4724290409E+00
                       5.4724290409E+00  5.4355870611E+00  2.5980188261E+00
                       5.4724290407E+00  5.4355870611E+00  8.3468392555E+00
                       5.4724290407E+00  2.8407776643E+00  5.4724290407E+00
                       8.3468392555E+00  5.4355870611E+00  5.4724290407E+00
                       2.5980188261E+00  5.4355870611E+00  5.4724290409E+00
                       3.9693834657E-21 -5.6830288287E-21  3.4006489785E-21
           xangst4     2.7334700725E+00  2.7150675591E+00  2.7334700725E+00
                       8.2004102176E+00  8.1452026773E+00  8.2004102176E+00
                       5.4669401452E+00  8.0223418978E+00  5.4669401452E+00
                       5.4669401452E+00  5.4301351182E+00  2.5954129898E+00
                       5.4669401450E+00  5.4301351182E+00  8.3384673004E+00
                       5.4669401450E+00  2.8379283386E+00  5.4669401450E+00
                       8.3384673004E+00  5.4301351182E+00  5.4669401450E+00
                       2.5954129898E+00  5.4301351182E+00  5.4669401452E+00
                       3.9654021382E-21 -5.6773286995E-21  3.3972380968E-21
           xangst5     2.7307256247E+00  2.7123415876E+00  2.7307256247E+00
                       8.1921768740E+00  8.1370247629E+00  8.1921768740E+00
                       5.4614512495E+00  8.0142873376E+00  5.4614512495E+00
                       5.4614512495E+00  5.4246831753E+00  2.5928071535E+00
                       5.4614512493E+00  5.4246831753E+00  8.3300953453E+00
                       5.4614512493E+00  2.8350790130E+00  5.4614512493E+00
                       8.3300953453E+00  5.4246831753E+00  5.4614512493E+00
                       2.5928071535E+00  5.4246831753E+00  5.4614512495E+00
                       3.9614208108E-21 -5.6716285703E-21  3.3938272152E-21
           xangst6     2.7279811768E+00  2.7096156162E+00  2.7279811768E+00
                       8.1839435304E+00  8.1288468486E+00  8.1839435304E+00
                       5.4559623537E+00  8.0062327775E+00  5.4559623537E+00
                       5.4559623537E+00  5.4192312324E+00  2.5902013171E+00
                       5.4559623535E+00  5.4192312324E+00  8.3217233901E+00
                       5.4559623535E+00  2.8322296873E+00  5.4559623535E+00
                       8.3217233901E+00  5.4192312324E+00  5.4559623535E+00
                       2.5902013171E+00  5.4192312324E+00  5.4559623537E+00
                       3.9574394833E-21 -5.6659284411E-21  3.3904163336E-21
           xangst7     2.7252367290E+00  2.7068896448E+00  2.7252367290E+00
                       8.1757101869E+00  8.1206689343E+00  8.1757101869E+00
                       5.4504734580E+00  7.9981782173E+00  5.4504734580E+00
                       5.4504734580E+00  5.4137792895E+00  2.5875954808E+00
                       5.4504734578E+00  5.4137792895E+00  8.3133514350E+00
                       5.4504734578E+00  2.8293803617E+00  5.4504734578E+00
                       8.3133514350E+00  5.4137792895E+00  5.4504734578E+00
                       2.5875954808E+00  5.4137792895E+00  5.4504734580E+00
                       3.9534581559E-21 -5.6602283118E-21  3.3870054520E-21
           xangst8     2.7224922811E+00  2.7041636733E+00  2.7224922811E+00
                       8.1674768433E+00  8.1124910199E+00  8.1674768433E+00
                       5.4449845623E+00  7.9901236572E+00  5.4449845623E+00
                       5.4449845623E+00  5.4083273466E+00  2.5849896445E+00
                       5.4449845621E+00  5.4083273466E+00  8.3049794799E+00
                       5.4449845621E+00  2.8265310360E+00  5.4449845621E+00
                       8.3049794799E+00  5.4083273466E+00  5.4449845621E+00
                       2.5849896445E+00  5.4083273466E+00  5.4449845623E+00
                       3.9494768284E-21 -5.6545281826E-21  3.3835945703E-21
           xangst9     2.7197478332E+00  2.7014377019E+00  2.7197478332E+00
                       8.1592434997E+00  8.1043131056E+00  8.1592434997E+00
                       5.4394956665E+00  7.9820690971E+00  5.4394956665E+00
                       5.4394956666E+00  5.4028754037E+00  2.5823838081E+00
                       5.4394956663E+00  5.4028754037E+00  8.2966075248E+00
                       5.4394956664E+00  2.8236817104E+00  5.4394956664E+00
                       8.2966075248E+00  5.4028754037E+00  5.4394956663E+00
                       2.5823838081E+00  5.4028754037E+00  5.4394956666E+00
                       3.9454955010E-21 -5.6488280534E-21  3.3801836887E-21
           xangst10    2.7170033854E+00  2.6987117304E+00  2.7170033854E+00
                       8.1510101561E+00  8.0961351913E+00  8.1510101561E+00
                       5.4340067708E+00  7.9740145369E+00  5.4340067708E+00
                       5.4340067708E+00  5.3974234608E+00  2.5797779718E+00
                       5.4340067706E+00  5.3974234608E+00  8.2882355697E+00
                       5.4340067706E+00  2.8208323848E+00  5.4340067706E+00
                       8.2882355697E+00  5.3974234608E+00  5.4340067706E+00
                       2.5797779718E+00  5.3974234608E+00  5.4340067708E+00
                       3.9415141735E-21 -5.6431279242E-21  3.3767728071E-21
            xcart1     5.1810685941E+00  5.1461881374E+00  5.1810685941E+00
                       1.5543205782E+01  1.5438564412E+01  1.5543205782E+01
                       1.0362137188E+01  1.5205691869E+01  1.0362137188E+01
                       1.0362137188E+01  1.0292376275E+01  4.9193927035E+00
                       1.0362137188E+01  1.0292376275E+01  1.5804881673E+01
                       1.0362137188E+01  5.3790606801E+00  1.0362137188E+01
                       1.5804881673E+01  1.0292376275E+01  1.0362137188E+01
                       4.9193927035E+00  1.0292376275E+01  1.0362137188E+01
                       7.5160949036E-21 -1.0760911458E-20  6.4391865077E-21
            xcart2     5.1758823392E+00  5.1410367979E+00  5.1758823392E+00
                       1.5527647018E+01  1.5423110394E+01  1.5527647018E+01
                       1.0351764679E+01  1.5190470957E+01  1.0351764679E+01
                       1.0351764679E+01  1.0282073596E+01  4.9144683865E+00
                       1.0351764678E+01  1.0282073596E+01  1.5789060970E+01
                       1.0351764678E+01  5.3736762350E+00  1.0351764678E+01
                       1.5789060970E+01  1.0282073596E+01  1.0351764678E+01
                       4.9144683865E+00  1.0282073596E+01  1.0351764679E+01
                       7.5085712850E-21 -1.0750139775E-20  6.4327408755E-21
            xcart3     5.1706960844E+00  5.1358854584E+00  5.1706960844E+00
                       1.5512088253E+01  1.5407656375E+01  1.5512088253E+01
                       1.0341392169E+01  1.5175250044E+01  1.0341392169E+01
                       1.0341392169E+01  1.0271770917E+01  4.9095440695E+00
                       1.0341392169E+01  1.0271770917E+01  1.5773240268E+01
                       1.0341392169E+01  5.3682917899E+00  1.0341392169E+01
                       1.5773240268E+01  1.0271770917E+01  1.0341392169E+01
                       4.9095440695E+00  1.0271770917E+01  1.0341392169E+01
                       7.5010476665E-21 -1.0739368092E-20  6.4262952434E-21
            xcart4     5.1655098295E+00  5.1307341190E+00  5.1655098295E+00
                       1.5496529489E+01  1.5392202357E+01  1.5496529489E+01
                       1.0331019659E+01  1.5160029131E+01  1.0331019659E+01
                       1.0331019659E+01  1.0261468238E+01  4.9046197525E+00
                       1.0331019659E+01  1.0261468238E+01  1.5757419566E+01
                       1.0331019659E+01  5.3629073447E+00  1.0331019659E+01
                       1.5757419566E+01  1.0261468238E+01  1.0331019659E+01
                       4.9046197525E+00  1.0261468238E+01  1.0331019659E+01
                       7.4935240480E-21 -1.0728596408E-20  6.4198496112E-21
            xcart5     5.1603235747E+00  5.1255827795E+00  5.1603235747E+00
                       1.5480970724E+01  1.5376748338E+01  1.5480970724E+01
                       1.0320647150E+01  1.5144808218E+01  1.0320647150E+01
                       1.0320647150E+01  1.0251165559E+01  4.8996954354E+00
                       1.0320647149E+01  1.0251165559E+01  1.5741598863E+01
                       1.0320647149E+01  5.3575228996E+00  1.0320647149E+01
                       1.5741598863E+01  1.0251165559E+01  1.0320647149E+01
                       4.8996954354E+00  1.0251165559E+01  1.0320647150E+01
                       7.4860004295E-21 -1.0717824725E-20  6.4134039791E-21
            xcart6     5.1551373198E+00  5.1204314400E+00  5.1551373198E+00
                       1.5465411960E+01  1.5361294320E+01  1.5465411960E+01
                       1.0310274640E+01  1.5129587306E+01  1.0310274640E+01
                       1.0310274640E+01  1.0240862880E+01  4.8947711184E+00
                       1.0310274640E+01  1.0240862880E+01  1.5725778161E+01
                       1.0310274640E+01  5.3521384545E+00  1.0310274640E+01
                       1.5725778161E+01  1.0240862880E+01  1.0310274640E+01
                       4.8947711184E+00  1.0240862880E+01  1.0310274640E+01
                       7.4784768110E-21 -1.0707053042E-20  6.4069583470E-21
            xcart7     5.1499510650E+00  5.1152801005E+00  5.1499510650E+00
                       1.5449853195E+01  1.5345840302E+01  1.5449853195E+01
                       1.0299902130E+01  1.5114366393E+01  1.0299902130E+01
                       1.0299902130E+01  1.0230560201E+01  4.8898468014E+00
                       1.0299902130E+01  1.0230560201E+01  1.5709957459E+01
                       1.0299902130E+01  5.3467540094E+00  1.0299902130E+01
                       1.5709957459E+01  1.0230560201E+01  1.0299902130E+01
                       4.8898468014E+00  1.0230560201E+01  1.0299902130E+01
                       7.4709531924E-21 -1.0696281359E-20  6.4005127148E-21
            xcart8     5.1447648102E+00  5.1101287611E+00  5.1447648102E+00
                       1.5434294430E+01  1.5330386283E+01  1.5434294430E+01
                       1.0289529620E+01  1.5099145480E+01  1.0289529620E+01
                       1.0289529620E+01  1.0220257522E+01  4.8849224844E+00
                       1.0289529620E+01  1.0220257522E+01  1.5694136756E+01
                       1.0289529620E+01  5.3413695642E+00  1.0289529620E+01
                       1.5694136756E+01  1.0220257522E+01  1.0289529620E+01
                       4.8849224844E+00  1.0220257522E+01  1.0289529620E+01
                       7.4634295739E-21 -1.0685509676E-20  6.3940670827E-21
            xcart9     5.1395785553E+00  5.1049774216E+00  5.1395785553E+00
                       1.5418735666E+01  1.5314932265E+01  1.5418735666E+01
                       1.0279157111E+01  1.5083924567E+01  1.0279157111E+01
                       1.0279157111E+01  1.0209954843E+01  4.8799981674E+00
                       1.0279157110E+01  1.0209954843E+01  1.5678316054E+01
                       1.0279157110E+01  5.3359851191E+00  1.0279157110E+01
                       1.5678316054E+01  1.0209954843E+01  1.0279157110E+01
                       4.8799981674E+00  1.0209954843E+01  1.0279157111E+01
                       7.4559059554E-21 -1.0674737993E-20  6.3876214505E-21
            xcart10    5.1343923005E+00  5.0998260821E+00  5.1343923005E+00
                       1.5403176901E+01  1.5299478246E+01  1.5403176901E+01
                       1.0268784601E+01  1.5068703654E+01  1.0268784601E+01
                       1.0268784601E+01  1.0199652164E+01  4.8750738503E+00
                       1.0268784601E+01  1.0199652164E+01  1.5662495351E+01
                       1.0268784601E+01  5.3306006740E+00  1.0268784601E+01
                       1.5662495351E+01  1.0199652164E+01  1.0268784601E+01
                       4.8750738503E+00  1.0199652164E+01  1.0268784601E+01
                       7.4483823369E-21 -1.0663966310E-20  6.3811758184E-21
             xred      2.5000000000E-01  2.5000000000E-01  2.5000000000E-01
                       7.5000000000E-01  7.5000000000E-01  7.5000000000E-01
                       7.3868713422E-01  2.6131286578E-01  7.3868713422E-01
                       2.3737345946E-01  2.3737345946E-01  7.6262654054E-01
                       7.6262654054E-01  7.6262654054E-01  2.3737345946E-01
                       2.6131286578E-01  7.3868713422E-01  2.6131286578E-01
                       2.3737345946E-01  7.6262654054E-01  7.6262654054E-01
                       7.6262654054E-01  2.3737345946E-01  2.3737345946E-01
                      -5.7472489725E-22  1.1961398034E-21 -4.7079764978E-22
            znucl       55.00000   53.00000   72.00000   35.00000

================================================================================

 chkinp: Checking input parameters for consistency, jdtset=   1.

 chkinp: Checking input parameters for consistency, jdtset=   2.

 chkinp: Checking input parameters for consistency, jdtset=   3.

 chkinp: Checking input parameters for consistency, jdtset=   4.

 chkinp: Checking input parameters for consistency, jdtset=   5.

 chkinp: Checking input parameters for consistency, jdtset=   6.

 chkinp: Checking input parameters for consistency, jdtset=   7.

 chkinp: Checking input parameters for consistency, jdtset=   8.

 chkinp: Checking input parameters for consistency, jdtset=   9.

 chkinp: Checking input parameters for consistency, jdtset=  10.

================================================================================
== DATASET  1 ==================================================================
-   mpi_nproc: 6, omp_nthreads: -1 (-1 if OMP is not activated)


--- !DatasetInfo
iteration_state: {dtset: 1, }
dimensions: {natom: 9, nkpt: 20, mband: 42, nsppol: 1, nspinor: 1, nspden: 1, mpw: 10290, }
cutoff_energies: {ecut:  16.0, pawecutdg:  40.0, }
electrons: {nelect:   7.20000000E+01, charge:   0.00000000E+00, occopt:   1.00000000E+00, tsmear:   1.00000000E-02, }
meta: {optdriver: 0, ionmov: 2, optcell: 3, iscf: 17, paral_kgb: 0, }
...

 Real(R)+Recip(G) space primitive vectors, cartesian coordinates (Bohr,Bohr^-1):
 R(1)=  0.0000000 10.2923763 10.3621372  G(1)= -0.0482526  0.0485796  0.0482526
 R(2)= 10.3621372  0.0000000 10.3621372  G(2)=  0.0482526 -0.0485796  0.0482526
 R(3)= 10.3621372 10.2923763  0.0000000  G(3)=  0.0482526  0.0485796 -0.0482526
 Unit cell volume ucvol=  2.2102649E+03 bohr^3
 Angles (23,13,12)=  5.98883992E+01  6.02232016E+01  5.98883992E+01 degrees

 Coarse grid specifications (used for wave-functions):

 getcut: wavevector=  0.0000  0.0000  0.0000  ngfft=  64  64  64
         ecut(hartree)=     21.160   => boxcut(ratio)=   2.10908

 Fine grid specifications (used for densities):

 getcut: wavevector=  0.0000  0.0000  0.0000  ngfft=  96  96  96
         ecut(hartree)=     52.900   => boxcut(ratio)=   2.00085

--- Pseudopotential description ------------------------------------------------
- pspini: atom type   1  psp file is ../../../Psps_for_tests/ATOMICDATA/Cs.GGA_PBE-JTH.xml
- pspatm: opening atomic psp file    ../../../Psps_for_tests/ATOMICDATA/Cs.GGA_PBE-JTH.xml
- pspatm : Reading pseudopotential header in XML form from ../../../Psps_for_tests/ATOMICDATA/Cs.GGA_PBE-JTH.xml
 Pseudopotential format is: paw10
 basis_size (lnmax)=  6 (lmn_size= 18), orbitals=   0   0   1   1   2   2
 Spheres core radius: rc_sph= 2.20660278
 1 radial meshes are used:
  - mesh 1: r(i)=AA*[exp(BB*(i-1))-1], size=1500 , AA= 0.15922E-03 BB= 0.87573E-02
 Shapefunction is SIN type: shapef(r)=[sin(pi*r/rshp)/(pi*r/rshp)]**2
 Radius for shape functions =  2.00394208
 mmax= 1500
 Radial grid used for partial waves is grid 1
 Radial grid used for projectors is grid 1
 Radial grid used for (t)core density is grid 1
 Radial grid used for Vloc is grid 1
 Radial grid used for pseudo valence density is grid 1
 Mesh size for Vloc has been set to 1341 to avoid numerical noise.
 Compensation charge density is not taken into account in XC energy/potential
 pspatm: atomic psp has been read  and splines computed

- pspini: atom type   2  psp file is ../../../Psps_for_tests/ATOMICDATA/I.GGA_PBE-JTH.xml
- pspatm: opening atomic psp file    ../../../Psps_for_tests/ATOMICDATA/I.GGA_PBE-JTH.xml
- pspatm : Reading pseudopotential header in XML form from ../../../Psps_for_tests/ATOMICDATA/I.GGA_PBE-JTH.xml
 Pseudopotential format is: paw10
 basis_size (lnmax)=  4 (lmn_size=  8), orbitals=   0   0   1   1
 Spheres core radius: rc_sph= 2.30022271
 1 radial meshes are used:
  - mesh 1: r(i)=AA*[exp(BB*(i-1))-1], size=2000 , AA= 0.12610E-03 BB= 0.66836E-02
 Shapefunction is SIN type: shapef(r)=[sin(pi*r/rshp)/(pi*r/rshp)]**2
 Radius for shape functions =  2.10879093
 mmax= 2000
 Radial grid used for partial waves is grid 1
 Radial grid used for projectors is grid 1
 Radial grid used for (t)core density is grid 1
 Radial grid used for Vloc is grid 1
 Radial grid used for pseudo valence density is grid 1
 Mesh size for Vloc has been set to 1792 to avoid numerical noise.
 Compensation charge density is not taken into account in XC energy/potential
 pspatm: atomic psp has been read  and splines computed

- pspini: atom type   3  psp file is ../../../Psps_for_tests/ATOMICDATA/Hf.GGA_PBE-JTH.xml
- pspatm: opening atomic psp file    ../../../Psps_for_tests/ATOMICDATA/Hf.GGA_PBE-JTH.xml
- pspatm : Reading pseudopotential header in XML form from ../../../Psps_for_tests/ATOMICDATA/Hf.GGA_PBE-JTH.xml
 Pseudopotential format is: paw10
 basis_size (lnmax)=  6 (lmn_size= 18), orbitals=   0   0   1   1   2   2
 Spheres core radius: rc_sph= 2.41000000
 1 radial meshes are used:
  - mesh 1: r(i)=AA*[exp(BB*(i-1))-1], size= 972 , AA= 0.19796E-03 BB= 0.14253E-01
 Shapefunction is SIN type: shapef(r)=[sin(pi*r/rshp)/(pi*r/rshp)]**2
 Radius for shape functions =  2.41000000
 mmax=  972
 Radial grid used for partial waves is grid 1
 Radial grid used for projectors is grid 1
 Radial grid used for (t)core density is grid 1
 Radial grid used for Vloc is grid 1
 Radial grid used for pseudo valence density is grid 1
 Mesh size for Vloc has been set to  809 to avoid numerical noise.
 Compensation charge density is not taken into account in XC energy/potential
 pspatm: atomic psp has been read  and splines computed

- pspini: atom type   4  psp file is ../../../Psps_for_tests/ATOMICDATA/Br.GGA_PBE-JTH.xml
- pspatm: opening atomic psp file    ../../../Psps_for_tests/ATOMICDATA/Br.GGA_PBE-JTH.xml
- pspatm : Reading pseudopotential header in XML form from ../../../Psps_for_tests/ATOMICDATA/Br.GGA_PBE-JTH.xml
 Pseudopotential format is: paw10
 basis_size (lnmax)=  4 (lmn_size=  8), orbitals=   0   0   1   1
 Spheres core radius: rc_sph= 2.20000000
 1 radial meshes are used:
  - mesh 1: r(i)=AA*[exp(BB*(i-1))-1], size= 927 , AA= 0.40483E-03 BB= 0.14169E-01
 Shapefunction is BESSEL type: shapef(r,l)=aa(1,l)*jl(q(1,l)*r)+aa(2,l)*jl(q(2,l)*r)
 Radius for shape functions =  2.02066386
 mmax=  927
 Radial grid used for partial waves is grid 1
 Radial grid used for projectors is grid 1
 Radial grid used for (t)core density is grid 1
 Radial grid used for Vloc is grid 1
 Radial grid used for pseudo valence density is grid 1
 Mesh size for Vloc has been set to  763 to avoid numerical noise.
 Compensation charge density is not taken into account in XC energy/potential
 pspatm: atomic psp has been read  and splines computed

   3.47331270E+04                                ecore*ucvol(ha*bohr**3)
--------------------------------------------------------------------------------

_setup2: Arith. and geom. avg. npw (full set) are   10274.219   10274.213

================================================================================

=== [ionmov= 2] Broyden-Fletcher-Goldfard-Shanno method (forces)            
================================================================================

--- Iteration: (   1/1000) Internal Cycle: (1/1)
--------------------------------------------------------------------------------

---SELF-CONSISTENT-FIELD CONVERGENCE--------------------------------------------

--- !BeginCycle
iteration_state: {dtset: 1, itime: 1, icycle: 1, }
solver: {iscf: 17, nstep: 50, nline: 4, wfoptalg: 10, }
tolerances: {toldff: 1.00E-08, }
...

     iter   Etot(hartree)      deltaE(h)  residm     nres2    diffor    maxfor
 ETOT  1  -167.18170025851    -1.672E+02 6.702E+00 7.096E+00 1.715E-02 1.715E-02
 ETOT  2  -169.19155557175    -2.010E+00 2.653E-02 4.050E+00 1.887E-02 6.686E-03
 ETOT  3  -169.17667565092     1.488E-02 1.367E-02 7.052E-01 3.838E-02 3.169E-02
 ETOT  4  -169.17709283174    -4.172E-04 4.241E-03 1.383E-01 3.625E-02 4.554E-03
 ETOT  5  -169.17712257129    -2.974E-05 2.733E-03 1.160E-02 8.536E-03 3.982E-03
 ETOT  6  -169.17720143724    -7.887E-05 1.420E-03 1.004E-03 4.132E-03 1.495E-04
 ETOT  7  -169.17721179833    -1.036E-05 1.104E-03 2.710E-04 4.656E-04 6.151E-04
 ETOT  8  -169.17721518515    -3.387E-06 8.934E-04 8.639E-06 1.466E-04 4.685E-04
 ETOT  9  -169.17721533698    -1.518E-07 5.425E-04 1.547E-06 4.978E-05 5.183E-04
 ETOT 10  -169.17721536307    -2.610E-08 5.342E-04 1.627E-07 2.722E-05 4.959E-04
 ETOT 11  -169.17721536395    -8.809E-10 2.749E-04 4.190E-08 6.093E-06 5.020E-04
 ETOT 12  -169.17721536403    -8.021E-11 2.769E-04 4.553E-09 2.283E-06 5.034E-04
 ETOT 13  -169.17721536404    -6.651E-12 1.369E-04 1.461E-09 3.533E-07 5.037E-04
 ETOT 14  -169.17721536408    -3.553E-11 1.400E-04 2.420E-10 5.911E-07 5.043E-04
 ETOT 15  -169.17721536410    -2.223E-11 9.303E-05 3.858E-11 3.031E-07 5.040E-04
 ETOT 16  -169.17721536410    -1.734E-12 7.118E-05 2.543E-12 1.531E-07 5.041E-04
 ETOT 17  -169.17721536411    -9.067E-12 8.309E-05 7.027E-13 3.114E-08 5.041E-04
 ETOT 18  -169.17721536410     9.379E-12 3.820E-05 5.357E-14 1.080E-08 5.041E-04
 ETOT 19  -169.17721536411    -7.987E-12 6.898E-05 6.108E-15 2.930E-09 5.041E-04
 ETOT 20  -169.17721536411     9.948E-13 3.016E-05 1.873E-15 1.275E-09 5.041E-04

 At SCF step   20, forces are converged : 
  for the second time, max diff in force=  1.275E-09 < toldff=  1.000E-08

 Cartesian components of stress tensor (hartree/bohr^3)
  sigma(1 1)= -6.78993490E-05  sigma(3 2)= -2.54652735E-13
  sigma(2 2)= -6.75784492E-05  sigma(3 1)=  5.05879722E-13
  sigma(3 3)= -6.78993490E-05  sigma(2 1)= -2.54652823E-13


--- !ResultsGS
iteration_state: {dtset: 1, itime: 1, icycle: 1, }
comment   : Summary of ground state results
lattice_vectors:
- [  0.0000000,  10.2923763,  10.3621372, ]
- [ 10.3621372,   0.0000000,  10.3621372, ]
- [ 10.3621372,  10.2923763,   0.0000000, ]
lattice_lengths: [  14.60503,   14.65427,   14.60503, ]
lattice_angles: [ 59.888,  60.223,  59.888, ] # degrees, (23, 13, 12)
lattice_volume:   2.2102649E+03
convergence: {deltae:  9.948E-13, res2:  1.873E-15, residm:  3.016E-05, diffor:  1.275E-09, }
etotal    :  -1.69177215E+02
entropy   :   0.00000000E+00
fermie    :  -7.73218429E-02
cartesian_stress_tensor: # hartree/bohr^3
- [ -6.78993490E-05,  -2.54652823E-13,   5.05879722E-13, ]
- [ -2.54652823E-13,  -6.75784492E-05,  -2.54652735E-13, ]
- [  5.05879722E-13,  -2.54652735E-13,  -6.78993490E-05, ]
pressure_GPa:   1.9945E+00
xred      :
- [  2.5000E-01,   2.5000E-01,   2.5000E-01, Cs]
- [  7.5000E-01,   7.5000E-01,   7.5000E-01, Cs]
- [  7.3869E-01,   2.6131E-01,   7.3869E-01,  I]
- [  2.3737E-01,   2.3737E-01,   7.6263E-01, Br]
- [  7.6263E-01,   7.6263E-01,   2.3737E-01, Br]
- [  2.6131E-01,   7.3869E-01,   2.6131E-01,  I]
- [  2.3737E-01,   7.6263E-01,   7.6263E-01, Br]
- [  7.6263E-01,   2.3737E-01,   2.3737E-01, Br]
- [ -5.7472E-22,   1.1961E-21,  -4.7080E-22, Hf]
cartesian_forces: # hartree/bohr
- [  4.67737621E-28,   1.33882445E-20,  -7.12798623E-21, ]
- [  4.28759486E-28,   1.33882438E-20,  -7.12798619E-21, ]
- [  5.17942157E-20,  -4.17650027E-04,  -5.89222013E-20, ]
- [  1.81082551E-14,  -1.82309888E-14,   5.04137427E-04, ]
- [ -1.81082970E-14,   1.82310035E-14,  -5.04137427E-04, ]
- [  2.41589291E-21,   4.17650027E-04,  -9.54387852E-21, ]
- [ -5.04137427E-04,   1.82309614E-14,  -1.81082623E-14, ]
- [  5.04137427E-04,  -1.82309467E-14,   1.81082062E-14, ]
- [ -0.00000000E+00,   1.33882444E-20,  -7.12798560E-21, ]
force_length_stats: {min:   1.51675067E-20, max:   5.04137427E-04, mean:   3.16872196E-04, }
...

 Integrated electronic density in atomic spheres:
 ------------------------------------------------
 Atom  Sphere_radius  Integrated_density
    1        2.20660          5.36800048
    2        2.20660          5.36800048
    3        2.30022          4.04008250
    4        2.20000          4.94297314
    5        2.20000          4.94297314
    6        2.30022          4.04008250
    7        2.20000          4.94297314
    8        2.20000          4.94297314
    9        2.41000          9.30549895

 PAW TEST:
 ==== Compensation charge inside spheres ============
 The following values must be close to each other ...
 Compensation charge over spherical meshes =     -0.380586405153204
 Compensation charge over fine fft grid    =     -0.380594490049498

 ==== Results concerning PAW augmentation regions ====

 Total pseudopotential strength Dij (hartree):
 Atom #  1
   0.43344  -0.14357   0.00000   0.00000   0.00000   0.00000   0.00000   0.00000   0.00000   0.00000  -0.00000   0.00000 ...
  -0.14357   0.04321   0.00000   0.00000   0.00000   0.00000   0.00000   0.00000   0.00000   0.00000   0.00000   0.00000 ...
   0.00000   0.00000  -0.09273   0.00000   0.00000  -0.16708   0.00000   0.00000   0.00000   0.00000   0.00000  -0.00000 ...
   0.00000   0.00000   0.00000  -0.09273   0.00000   0.00000  -0.16707   0.00000  -0.00000   0.00000   0.00000   0.00000 ...
   0.00000   0.00000   0.00000   0.00000  -0.09273   0.00000   0.00000  -0.16707   0.00000  -0.00000   0.00000   0.00000 ...
   0.00000   0.00000  -0.16708   0.00000   0.00000   0.40197   0.00000   0.00000   0.00000   0.00000   0.00000   0.00000 ...
   0.00000   0.00000   0.00000  -0.16707   0.00000   0.00000   0.40196   0.00000   0.00000   0.00000   0.00000   0.00000 ...
   0.00000   0.00000   0.00000   0.00000  -0.16707   0.00000   0.00000   0.40196   0.00000   0.00000   0.00000   0.00000 ...
   0.00000   0.00000   0.00000  -0.00000   0.00000   0.00000   0.00000   0.00000   0.00534   0.00000   0.00000   0.00000 ...
   0.00000   0.00000   0.00000   0.00000  -0.00000   0.00000   0.00000   0.00000   0.00000   0.00534   0.00000   0.00000 ...
  -0.00000   0.00000   0.00000   0.00000   0.00000   0.00000   0.00000   0.00000   0.00000   0.00000   0.00534   0.00000 ...
   0.00000   0.00000  -0.00000   0.00000   0.00000   0.00000   0.00000   0.00000   0.00000   0.00000   0.00000   0.00534 ...
   ...  only 12  components have been written...
 Atom #  9
  -3.51016   0.42528   0.00000   0.00000   0.00000   0.00000   0.00000   0.00000   0.00000   0.00000   0.00005   0.00000 ...
   0.42528   0.00343   0.00000   0.00000   0.00000   0.00000   0.00000   0.00000   0.00000   0.00000  -0.00001   0.00000 ...
   0.00000   0.00000  -1.44262   0.00000   0.00000   0.12069   0.00000   0.00000   0.00000   0.00000   0.00000   0.00000 ...
   0.00000   0.00000   0.00000  -1.44233   0.00000   0.00000   0.12064   0.00000   0.00000   0.00000   0.00000   0.00000 ...
   0.00000   0.00000   0.00000   0.00000  -1.44233   0.00000   0.00000   0.12064   0.00000   0.00000   0.00000   0.00000 ...
   0.00000   0.00000   0.12069   0.00000   0.00000   0.01384   0.00000   0.00000   0.00000   0.00000   0.00000   0.00000 ...
   0.00000   0.00000   0.00000   0.12064   0.00000   0.00000   0.01384   0.00000   0.00000   0.00000   0.00000   0.00000 ...
   0.00000   0.00000   0.00000   0.00000   0.12064   0.00000   0.00000   0.01384   0.00000   0.00000   0.00000   0.00000 ...
   0.00000   0.00000   0.00000   0.00000   0.00000   0.00000   0.00000   0.00000  -0.39142   0.00000   0.00000   0.00000 ...
   0.00000   0.00000   0.00000   0.00000   0.00000   0.00000   0.00000   0.00000   0.00000  -0.39142   0.00000   0.00000 ...
   0.00005  -0.00001   0.00000   0.00000   0.00000   0.00000   0.00000   0.00000   0.00000   0.00000  -0.39072   0.00000 ...
   0.00000   0.00000   0.00000   0.00000   0.00000   0.00000   0.00000   0.00000   0.00000   0.00000   0.00000  -0.39136 ...
   ...  only 12  components have been written...


 Augmentation waves occupancies Rhoij:
 Atom #  1
   1.99801  -0.01413   0.00000   0.00000   0.00000   0.00000   0.00000   0.00000   0.00000   0.00000  -0.00123   0.00000 ...
  -0.01413   0.17113   0.00000   0.00000   0.00000   0.00000   0.00000   0.00000   0.00000   0.00000   0.01179   0.00000 ...
   0.00000   0.00000   2.00647   0.00000   0.00000  -0.00467   0.00000   0.00000   0.00000   0.00000   0.00000  -0.00104 ...
   0.00000   0.00000   0.00000   2.00938   0.00000   0.00000  -0.00515   0.00000  -0.00117   0.00000   0.00000   0.00000 ...
   0.00000   0.00000   0.00000   0.00000   2.00938   0.00000   0.00000  -0.00515   0.00000  -0.00117   0.00000   0.00000 ...
   0.00000   0.00000  -0.00467   0.00000   0.00000   0.00010   0.00000   0.00000   0.00000   0.00000   0.00000   0.00003 ...
   0.00000   0.00000   0.00000  -0.00515   0.00000   0.00000   0.00014   0.00000   0.00003   0.00000   0.00000   0.00000 ...
   0.00000   0.00000   0.00000   0.00000  -0.00515   0.00000   0.00000   0.00014   0.00000   0.00003   0.00000   0.00000 ...
   0.00000   0.00000   0.00000  -0.00117   0.00000   0.00000   0.00003   0.00000   0.04641   0.00000   0.00000   0.00000 ...
   0.00000   0.00000   0.00000   0.00000  -0.00117   0.00000   0.00000   0.00003   0.00000   0.04641   0.00000   0.00000 ...
  -0.00123   0.01179   0.00000   0.00000   0.00000   0.00000   0.00000   0.00000   0.00000   0.00000   0.03495   0.00000 ...
   0.00000   0.00000  -0.00104   0.00000   0.00000   0.00003   0.00000   0.00000   0.00000   0.00000   0.00000   0.08280 ...
   ...  only 12  components have been written...
 Atom #  9
   1.99791  -0.02118   0.00000   0.00000   0.00000   0.00000   0.00000   0.00000   0.00000   0.00000  -0.00004   0.00000 ...
  -0.02118   1.01252   0.00000   0.00000   0.00000   0.00000   0.00000   0.00000   0.00000   0.00000   0.01810   0.00000 ...
   0.00000   0.00000   1.99274   0.00000   0.00000  -0.06031   0.00000   0.00000   0.00000   0.00000   0.00000   0.00000 ...
   0.00000   0.00000   0.00000   1.99248   0.00000   0.00000  -0.06531   0.00000   0.00000   0.00000   0.00000   0.00000 ...
   0.00000   0.00000   0.00000   0.00000   1.99248   0.00000   0.00000  -0.06531   0.00000   0.00000   0.00000   0.00000 ...
   0.00000   0.00000  -0.06031   0.00000   0.00000   1.19060   0.00000   0.00000   0.00000   0.00000   0.00000   0.00000 ...
   0.00000   0.00000   0.00000  -0.06531   0.00000   0.00000   1.35617   0.00000   0.00000   0.00000   0.00000   0.00000 ...
   0.00000   0.00000   0.00000   0.00000  -0.06531   0.00000   0.00000   1.35617   0.00000   0.00000   0.00000   0.00000 ...
   0.00000   0.00000   0.00000   0.00000   0.00000   0.00000   0.00000   0.00000   0.48450   0.00000   0.00000   0.00000 ...
   0.00000   0.00000   0.00000   0.00000   0.00000   0.00000   0.00000   0.00000   0.00000   0.48450   0.00000   0.00000 ...
  -0.00004   0.01810   0.00000   0.00000   0.00000   0.00000   0.00000   0.00000   0.00000   0.00000   1.52014   0.00000 ...
   0.00000   0.00000   0.00000   0.00000   0.00000   0.00000   0.00000   0.00000   0.00000   0.00000   0.00000   0.50741 ...
   ...  only 12  components have been written...



---OUTPUT-----------------------------------------------------------------------

 Cartesian coordinates (xcart) [bohr]
  5.18106859409465E+00  5.14618813739902E+00  5.18106859409465E+00
  1.55432057822840E+01  1.54385644121971E+01  1.55432057822840E+01
  1.03621371883670E+01  1.52056918694890E+01  1.03621371883670E+01
  1.03621371883848E+01  1.02923762747980E+01  4.91939270351922E+00
  1.03621371879938E+01  1.02923762747980E+01  1.58048816728594E+01
  1.03621371880116E+01  5.37906068010711E+00  1.03621371880116E+01
  1.58048816728594E+01  1.02923762747980E+01  1.03621371879938E+01
  4.91939270351922E+00  1.02923762747980E+01  1.03621371883848E+01
  7.51609490356669E-21 -1.07609114578180E-20  6.43918650765297E-21
 Reduced coordinates (xred)
  2.50000000000000E-01  2.50000000000000E-01  2.50000000000000E-01
  7.50000000000000E-01  7.50000000000000E-01  7.50000000000000E-01
  7.38687134220000E-01  2.61312865780000E-01  7.38687134220000E-01
  2.37373459460000E-01  2.37373459460000E-01  7.62626540540000E-01
  7.62626540540000E-01  7.62626540540000E-01  2.37373459460000E-01
  2.61312865780000E-01  7.38687134220000E-01  2.61312865780000E-01
  2.37373459460000E-01  7.62626540540000E-01  7.62626540540000E-01
  7.62626540540000E-01  2.37373459460000E-01  2.37373459460000E-01
 -5.74724897250000E-22  1.19613980340000E-21 -4.70797649780000E-22
 Cartesian forces (fcart) [Ha/bohr]; max,rms= 5.04137E-04 2.24885E-04 (free atoms)
  4.67737621440689E-28  1.33882444501768E-20 -7.12798622730315E-21
  4.28759486320165E-28  1.33882437830573E-20 -7.12798618832502E-21
  5.17942157106433E-20 -4.17650027130674E-04 -5.89222013142963E-20
  1.81082551415876E-14 -1.82309888376467E-14  5.04137426649176E-04
 -1.81082969940415E-14  1.82310035401533E-14 -5.04137426649176E-04
  2.41589291363188E-21  4.17650027130674E-04 -9.54387851728487E-21
 -5.04137426649176E-04  1.82309614040268E-14 -1.81082622695732E-14
  5.04137426649176E-04 -1.82309467015202E-14  1.81082061611481E-14
 -0.00000000000000E+00  1.33882443716922E-20 -7.12798560365299E-21
 Reduced forces (fred)
 -6.39356783747041E-20  7.38611663134247E-20 -1.37796854386958E-19
 -6.39356719123556E-20  7.38611663134247E-20 -1.37796847116816E-19
  4.29861123040851E-03  7.38611646978376E-20  4.29861123040851E-03
 -5.22394117663948E-03 -5.22394117663948E-03 -2.70439019199970E-20
  5.22394117663948E-03  5.22394117663948E-03  3.09401040343273E-19
 -4.29861123040851E-03  7.38611646978376E-20 -4.29861123040851E-03
  3.83262205038369E-19  5.22394117663948E-03  5.22394117663948E-03
  4.68172627766620E-20 -5.22394117663948E-03 -5.22394117663948E-03
 -6.39356840292591E-20  7.38611646978376E-20 -1.37796848732403E-19
 Scale of Primitive Cell (acell) [bohr]
  1.46050298355150E+01  1.46542749461100E+01  1.46050298355150E+01
 Real space primitive translations (rprimd) [bohr]
  0.00000000000000E+00  1.02923762747980E+01  1.03621371885615E+01
  1.03621371878171E+01  0.00000000000000E+00  1.03621371878171E+01
  1.03621371885615E+01  1.02923762747980E+01  0.00000000000000E+00
 Unitary Cell Volume (ucvol) [Bohr^3]=  2.21026489638289E+03
 Angles (23,13,12)= [degrees]
  5.98883992218663E+01  6.02232015562674E+01  5.98883992218663E+01
 Lengths [Bohr]
  1.46050298355257E+01  1.46542749461816E+01  1.46050298355257E+01
 Stress tensor in cartesian coordinates (strten) [Ha/bohr^3]
 -6.78993489813002E-05 -2.54652822714800E-13  5.05879721656303E-13
 -2.54652822714800E-13 -6.75784491886260E-05 -2.54652734641985E-13
  5.05879721656303E-13 -2.54652734641985E-13 -6.78993489813002E-05
 Total energy (etotal) [Ha]= -1.69177215364107E+02

--- Iteration: (   2/1000) Internal Cycle: (1/1)
--------------------------------------------------------------------------------

---SELF-CONSISTENT-FIELD CONVERGENCE--------------------------------------------

--- !BeginCycle
iteration_state: {dtset: 1, itime: 2, icycle: 1, }
solver: {iscf: 17, nstep: 50, nline: 4, wfoptalg: 10, }
tolerances: {toldff: 1.00E-08, }
...

     iter   Etot(hartree)      deltaE(h)  residm     nres2    diffor    maxfor
 ETOT  1  -169.17722048976    -1.692E+02 2.263E-05 3.930E-04 1.965E-03 2.470E-03
 ETOT  2  -169.17721797578     2.514E-06 2.003E-05 3.971E-05 2.053E-03 4.167E-04
 ETOT  3  -169.17721780267     1.731E-07 3.157E-05 2.911E-06 2.162E-04 6.328E-04
 ETOT  4  -169.17721779436     8.316E-09 1.738E-05 6.755E-07 1.664E-04 4.664E-04
 ETOT  5  -169.17721779871    -4.354E-09 2.324E-05 2.621E-07 6.164E-07 4.671E-04
 ETOT  6  -169.17721780289    -4.173E-09 1.493E-05 2.088E-08 1.840E-05 4.487E-04
 ETOT  7  -169.17721780330    -4.162E-10 1.684E-05 1.012E-08 1.987E-06 4.473E-04
 ETOT  8  -169.17721780437    -1.068E-09 1.267E-05 6.158E-10 2.338E-06 4.452E-04
 ETOT  9  -169.17721780444    -7.546E-11 1.205E-05 1.828E-10 4.639E-07 4.447E-04
 ETOT 10  -169.17721780447    -2.399E-11 1.065E-05 3.370E-11 9.531E-08 4.448E-04
 ETOT 11  -169.17721780451    -3.902E-11 8.543E-06 4.998E-12 6.839E-08 4.448E-04
 ETOT 12  -169.17721780454    -3.118E-11 8.867E-06 1.315E-12 5.778E-08 4.447E-04
 ETOT 13  -169.17721780456    -2.149E-11 6.423E-06 2.063E-13 1.273E-08 4.447E-04
 ETOT 14  -169.17721780458    -1.680E-11 8.090E-06 1.784E-14 4.175E-09 4.447E-04
 ETOT 15  -169.17721780459    -1.302E-11 6.564E-06 7.162E-15 1.826E-09 4.447E-04

 At SCF step   15, forces are converged : 
  for the second time, max diff in force=  1.826E-09 < toldff=  1.000E-08

 Cartesian components of stress tensor (hartree/bohr^3)
  sigma(1 1)= -6.76793241E-05  sigma(3 2)= -2.54661632E-13
  sigma(2 2)= -6.74122966E-05  sigma(3 1)=  5.05887340E-13
  sigma(3 3)= -6.76793241E-05  sigma(2 1)= -2.54658779E-13


--- !ResultsGS
iteration_state: {dtset: 1, itime: 2, icycle: 1, }
comment   : Summary of ground state results
lattice_vectors:
- [  0.0000000,  10.2923102,  10.3621704, ]
- [ 10.3621704,   0.0000000,  10.3621704, ]
- [ 10.3621704,  10.2923102,   0.0000000, ]
lattice_lengths: [  14.60501,   14.65432,   14.60501, ]
lattice_angles: [ 59.888,  60.224,  59.888, ] # degrees, (23, 13, 12)
lattice_volume:   2.2102649E+03
convergence: {deltae: -1.302E-11, res2:  7.162E-15, residm:  6.564E-06, diffor:  1.826E-09, }
etotal    :  -1.69177218E+02
entropy   :   0.00000000E+00
fermie    :  -7.73190426E-02
cartesian_stress_tensor: # hartree/bohr^3
- [ -6.76793241E-05,  -2.54658779E-13,   5.05887340E-13, ]
- [ -2.54658779E-13,  -6.74122966E-05,  -2.54661632E-13, ]
- [  5.05887340E-13,  -2.54661632E-13,  -6.76793241E-05, ]
pressure_GPa:   1.9886E+00
xred      :
- [  2.5000E-01,   2.5000E-01,   2.5000E-01, Cs]
- [  7.5000E-01,   7.5000E-01,   7.5000E-01, Cs]
- [  7.3867E-01,   2.6133E-01,   7.3867E-01,  I]
- [  2.3740E-01,   2.3740E-01,   7.6260E-01, Br]
- [  7.6260E-01,   7.6260E-01,   2.3740E-01, Br]
- [  2.6133E-01,   7.3867E-01,   2.6133E-01,  I]
- [  2.3740E-01,   7.6260E-01,   7.6260E-01, Br]
- [  7.6260E-01,   2.3740E-01,   2.3740E-01, Br]
- [ -5.7472E-22,   1.1961E-21,  -4.7080E-22, Hf]
cartesian_forces: # hartree/bohr
- [  6.38615717E-25,  -4.82212795E-25,   2.92382669E-21, ]
- [  4.78961787E-25,  -6.42950393E-25,   2.92398634E-21, ]
- [ -5.39115417E-21,  -3.70191743E-04,   8.31530017E-21, ]
- [  1.59745163E-14,  -1.60829418E-14,   4.44736319E-04, ]
- [ -1.59744621E-14,   1.60828876E-14,  -4.44736319E-04, ]
- [  2.63173140E-20,   3.70191743E-04,  -2.33931680E-20, ]
- [ -4.44736319E-04,   1.60828605E-14,  -1.59744321E-14, ]
- [  4.44736319E-04,  -1.60828063E-14,   1.59743837E-14, ]
- [ -0.00000000E+00,  -0.00000000E+00,   2.92414600E-21, ]
force_length_stats: {min:   2.92382680E-21, max:   4.44736319E-04, mean:   2.79925418E-04, }
...

 Integrated electronic density in atomic spheres:
 ------------------------------------------------
 Atom  Sphere_radius  Integrated_density
    1        2.20660          5.36800137
    2        2.20660          5.36800137
    3        2.30022          4.03951540
    4        2.20000          4.94242048
    5        2.20000          4.94242048
    6        2.30022          4.03951540
    7        2.20000          4.94242048
    8        2.20000          4.94242048
    9        2.41000          9.30512291

 PAW TEST:
 ==== Compensation charge inside spheres ============
 The following values must be close to each other ...
 Compensation charge over spherical meshes =     -0.380617222525952
 Compensation charge over fine fft grid    =     -0.380625300055325

 ==== Results concerning PAW augmentation regions ====

 Total pseudopotential strength Dij (hartree):
 Atom #  1
   0.43344  -0.14357   0.00000   0.00000   0.00000   0.00000   0.00000   0.00000   0.00000   0.00000  -0.00000   0.00000 ...
  -0.14357   0.04321   0.00000   0.00000   0.00000   0.00000   0.00000   0.00000   0.00000   0.00000   0.00000   0.00000 ...
   0.00000   0.00000  -0.09273   0.00000   0.00000  -0.16708   0.00000   0.00000   0.00000   0.00000   0.00000  -0.00000 ...
   0.00000   0.00000   0.00000  -0.09273   0.00000   0.00000  -0.16707   0.00000  -0.00000   0.00000   0.00000   0.00000 ...
   0.00000   0.00000   0.00000   0.00000  -0.09273   0.00000   0.00000  -0.16707   0.00000  -0.00000   0.00000   0.00000 ...
   0.00000   0.00000  -0.16708   0.00000   0.00000   0.40197   0.00000   0.00000   0.00000   0.00000   0.00000   0.00000 ...
   0.00000   0.00000   0.00000  -0.16707   0.00000   0.00000   0.40196   0.00000   0.00000   0.00000   0.00000   0.00000 ...
   0.00000   0.00000   0.00000   0.00000  -0.16707   0.00000   0.00000   0.40196   0.00000   0.00000   0.00000   0.00000 ...
   0.00000   0.00000   0.00000  -0.00000   0.00000   0.00000   0.00000   0.00000   0.00534   0.00000   0.00000   0.00000 ...
   0.00000   0.00000   0.00000   0.00000  -0.00000   0.00000   0.00000   0.00000   0.00000   0.00534   0.00000   0.00000 ...
  -0.00000   0.00000   0.00000   0.00000   0.00000   0.00000   0.00000   0.00000   0.00000   0.00000   0.00534   0.00000 ...
   0.00000   0.00000  -0.00000   0.00000   0.00000   0.00000   0.00000   0.00000   0.00000   0.00000   0.00000   0.00534 ...
   ...  only 12  components have been written...
 Atom #  9
  -3.51018   0.42528   0.00000   0.00000   0.00000   0.00000   0.00000   0.00000   0.00000   0.00000   0.00005   0.00000 ...
   0.42528   0.00343   0.00000   0.00000   0.00000   0.00000   0.00000   0.00000   0.00000   0.00000  -0.00001   0.00000 ...
   0.00000   0.00000  -1.44266   0.00000   0.00000   0.12069   0.00000   0.00000   0.00000   0.00000   0.00000   0.00000 ...
   0.00000   0.00000   0.00000  -1.44237   0.00000   0.00000   0.12065   0.00000   0.00000   0.00000   0.00000   0.00000 ...
   0.00000   0.00000   0.00000   0.00000  -1.44237   0.00000   0.00000   0.12065   0.00000   0.00000   0.00000   0.00000 ...
   0.00000   0.00000   0.12069   0.00000   0.00000   0.01383   0.00000   0.00000   0.00000   0.00000   0.00000   0.00000 ...
   0.00000   0.00000   0.00000   0.12065   0.00000   0.00000   0.01384   0.00000   0.00000   0.00000   0.00000   0.00000 ...
   0.00000   0.00000   0.00000   0.00000   0.12065   0.00000   0.00000   0.01384   0.00000   0.00000   0.00000   0.00000 ...
   0.00000   0.00000   0.00000   0.00000   0.00000   0.00000   0.00000   0.00000  -0.39143   0.00000   0.00000   0.00000 ...
   0.00000   0.00000   0.00000   0.00000   0.00000   0.00000   0.00000   0.00000   0.00000  -0.39143   0.00000   0.00000 ...
   0.00005  -0.00001   0.00000   0.00000   0.00000   0.00000   0.00000   0.00000   0.00000   0.00000  -0.39073   0.00000 ...
   0.00000   0.00000   0.00000   0.00000   0.00000   0.00000   0.00000   0.00000   0.00000   0.00000   0.00000  -0.39137 ...
   ...  only 12  components have been written...


 Augmentation waves occupancies Rhoij:
 Atom #  1
   1.99801  -0.01413   0.00000   0.00000   0.00000   0.00000   0.00000   0.00000   0.00000   0.00000  -0.00123   0.00000 ...
  -0.01413   0.17113   0.00000   0.00000   0.00000   0.00000   0.00000   0.00000   0.00000   0.00000   0.01179   0.00000 ...
   0.00000   0.00000   2.00647   0.00000   0.00000  -0.00467   0.00000   0.00000   0.00000   0.00000   0.00000  -0.00105 ...
   0.00000   0.00000   0.00000   2.00938   0.00000   0.00000  -0.00515   0.00000  -0.00118   0.00000   0.00000   0.00000 ...
   0.00000   0.00000   0.00000   0.00000   2.00938   0.00000   0.00000  -0.00515   0.00000  -0.00118   0.00000   0.00000 ...
   0.00000   0.00000  -0.00467   0.00000   0.00000   0.00010   0.00000   0.00000   0.00000   0.00000   0.00000   0.00003 ...
   0.00000   0.00000   0.00000  -0.00515   0.00000   0.00000   0.00014   0.00000   0.00003   0.00000   0.00000   0.00000 ...
   0.00000   0.00000   0.00000   0.00000  -0.00515   0.00000   0.00000   0.00014   0.00000   0.00003   0.00000   0.00000 ...
   0.00000   0.00000   0.00000  -0.00118   0.00000   0.00000   0.00003   0.00000   0.04642   0.00000   0.00000   0.00000 ...
   0.00000   0.00000   0.00000   0.00000  -0.00118   0.00000   0.00000   0.00003   0.00000   0.04642   0.00000   0.00000 ...
  -0.00123   0.01179   0.00000   0.00000   0.00000   0.00000   0.00000   0.00000   0.00000   0.00000   0.03495   0.00000 ...
   0.00000   0.00000  -0.00105   0.00000   0.00000   0.00003   0.00000   0.00000   0.00000   0.00000   0.00000   0.08279 ...
   ...  only 12  components have been written...
 Atom #  9
   1.99791  -0.02119   0.00000   0.00000   0.00000   0.00000   0.00000   0.00000   0.00000   0.00000  -0.00004   0.00000 ...
  -0.02119   1.01236   0.00000   0.00000   0.00000   0.00000   0.00000   0.00000   0.00000   0.00000   0.01804   0.00000 ...
   0.00000   0.00000   1.99273   0.00000   0.00000  -0.06037   0.00000   0.00000   0.00000   0.00000   0.00000   0.00000 ...
   0.00000   0.00000   0.00000   1.99247   0.00000   0.00000  -0.06536   0.00000   0.00000   0.00000   0.00000   0.00000 ...
   0.00000   0.00000   0.00000   0.00000   1.99247   0.00000   0.00000  -0.06536   0.00000   0.00000   0.00000   0.00000 ...
   0.00000   0.00000  -0.06037   0.00000   0.00000   1.19022   0.00000   0.00000   0.00000   0.00000   0.00000   0.00000 ...
   0.00000   0.00000   0.00000  -0.06536   0.00000   0.00000   1.35547   0.00000   0.00000   0.00000   0.00000   0.00000 ...
   0.00000   0.00000   0.00000   0.00000  -0.06536   0.00000   0.00000   1.35547   0.00000   0.00000   0.00000   0.00000 ...
   0.00000   0.00000   0.00000   0.00000   0.00000   0.00000   0.00000   0.00000   0.48427   0.00000   0.00000   0.00000 ...
   0.00000   0.00000   0.00000   0.00000   0.00000   0.00000   0.00000   0.00000   0.00000   0.48427   0.00000   0.00000 ...
  -0.00004   0.01804   0.00000   0.00000   0.00000   0.00000   0.00000   0.00000   0.00000   0.00000   1.51932   0.00000 ...
   0.00000   0.00000   0.00000   0.00000   0.00000   0.00000   0.00000   0.00000   0.00000   0.00000   0.00000   0.50710 ...
   ...  only 12  components have been written...



---OUTPUT-----------------------------------------------------------------------

 Cartesian coordinates (xcart) [bohr]
  5.18108522018638E+00  5.14615510923788E+00  5.18108522018638E+00
  1.55432556605591E+01  1.54384653277137E+01  1.55432556605591E+01
  1.03621704405504E+01  1.52051766322315E+01  1.03621704405504E+01
  1.03621704405682E+01  1.02923102184758E+01  4.91991262893530E+00
  1.03621704401773E+01  1.02923102184758E+01  1.58044282518102E+01
  1.03621704401951E+01  5.37944380472002E+00  1.03621704401951E+01
  1.58044282518102E+01  1.02923102184758E+01  1.03621704401773E+01
  4.91991262893530E+00  1.02923102184758E+01  1.03621704405682E+01
  7.51611902277706E-21 -1.07608423944437E-20  6.43920717105543E-21
 Reduced coordinates (xred)
  2.50000000000000E-01  2.50000000000000E-01  2.50000000000000E-01
  7.50000000000000E-01  7.50000000000000E-01  7.50000000000000E-01
  7.38666844929365E-01  2.61333155070635E-01  7.38666844929365E-01
  2.37397785398631E-01  2.37397785398631E-01  7.62602214601369E-01
  7.62602214601369E-01  7.62602214601369E-01  2.37397785398631E-01
  2.61333155070635E-01  7.38666844929365E-01  2.61333155070635E-01
  2.37397785398631E-01  7.62602214601369E-01  7.62602214601369E-01
  7.62602214601369E-01  2.37397785398631E-01  2.37397785398631E-01
 -5.74724897250000E-22  1.19613980340000E-21 -4.70797649780000E-22
 Cartesian forces (fcart) [Ha/bohr]; max,rms= 4.44736E-04 1.98629E-04 (free atoms)
  6.38615716503050E-25 -4.82212794803616E-25  2.92382668894295E-21
  4.78961787380155E-25 -6.42950393067639E-25  2.92398634287208E-21
 -5.39115417294095E-21 -3.70191743311113E-04  8.31530016974214E-21
  1.59745163068532E-14 -1.60829417817977E-14  4.44736318913669E-04
 -1.59744620967446E-14  1.60828875716891E-14 -4.44736318913669E-04
  2.63173139709371E-20  3.70191743311113E-04 -2.33931679741359E-20
 -4.44736318913669E-04  1.60828604666348E-14 -1.59744320675443E-14
  4.44736318913669E-04 -1.60828062565261E-14  1.59743837057276E-14
 -0.00000000000000E+00 -0.00000000000000E+00  2.92414599680119E-21
 Reduced forces (fred)
 -3.02922274063504E-20 -3.03038079327495E-20 -1.65436122510605E-24
 -3.02922274063504E-20 -3.03038079327495E-20  1.65436122510605E-24
  3.81012826247633E-03 -3.03004992102993E-20  3.81012826247633E-03
 -4.60843353760742E-03 -4.60843353760742E-03 -3.46361252793626E-20
  4.60843353760742E-03  4.60843353760742E-03  3.08489950335553E-20
 -3.81012826247633E-03 -3.03004992102993E-20 -3.81012826247633E-03
 -1.34506930182438E-21  4.60843353760742E-03  4.60843353760742E-03
 -5.54687989025638E-20 -4.60843353760742E-03 -4.60843353760742E-03
 -3.03004992124760E-20 -3.03004992102993E-20 -0.00000000000000E+00
 Scale of Primitive Cell (acell) [bohr]
  1.46050068769717E+01  1.46543219718704E+01  1.46050068769717E+01
 Real space primitive translations (rprimd) [bohr]
  0.00000000000000E+00  1.02923102184758E+01  1.03621704407450E+01
  1.03621704400006E+01  0.00000000000000E+00  1.03621704400006E+01
  1.03621704407450E+01  1.02923102184758E+01  0.00000000000000E+00
 Unitary Cell Volume (ucvol) [Bohr^3]=  2.21026489638289E+03
 Angles (23,13,12)= [degrees]
  5.98882403560470E+01  6.02235192879061E+01  5.98882403560470E+01
 Lengths [Bohr]
  1.46050068769717E+01  1.46543219718704E+01  1.46050068769717E+01
 Stress tensor in cartesian coordinates (strten) [Ha/bohr^3]
 -6.76793240685499E-05 -2.54658778853781E-13  5.05887340013319E-13
 -2.54658778853781E-13 -6.74122966271779E-05 -2.54661632482800E-13
  5.05887340013319E-13 -2.54661632482800E-13 -6.76793240685499E-05
 Total energy (etotal) [Ha]= -1.69177217804590E+02

 Difference of energy with previous step (new-old):
           Absolute (Ha)=-2.44048E-06
           Relative     =-1.44256E-08

--- Iteration: (   3/1000) Internal Cycle: (1/1)
--------------------------------------------------------------------------------

---SELF-CONSISTENT-FIELD CONVERGENCE--------------------------------------------

--- !BeginCycle
iteration_state: {dtset: 1, itime: 3, icycle: 1, }
solver: {iscf: 17, nstep: 50, nline: 4, wfoptalg: 10, }
tolerances: {toldff: 1.00E-08, }
...

     iter   Etot(hartree)      deltaE(h)  residm     nres2    diffor    maxfor
 ETOT  1  -169.17737033597    -1.692E+02 8.621E-06 2.237E-02 1.483E-02 1.527E-02
 ETOT  2  -169.17723152564     1.388E-04 7.745E-06 2.241E-03 1.549E-02 2.180E-04
 ETOT  3  -169.17722135245     1.017E-05 8.230E-06 1.658E-04 1.624E-03 1.406E-03
 ETOT  4  -169.17722098048     3.720E-07 7.527E-06 3.857E-05 1.262E-03 1.729E-04
 ETOT  5  -169.17722109169    -1.112E-07 8.102E-06 1.492E-05 5.483E-06 1.688E-04
 ETOT  6  -169.17722115431    -6.262E-08 7.483E-06 1.172E-06 1.384E-04 4.888E-05
 ETOT  7  -169.17722116221    -7.904E-09 8.010E-06 5.686E-07 1.520E-05 3.368E-05
 ETOT  8  -169.17722117547    -1.326E-08 7.373E-06 3.464E-08 1.747E-05 1.622E-05
 ETOT  9  -169.17722117632    -8.533E-10 7.847E-06 1.020E-08 3.468E-06 1.824E-05
 ETOT 10  -169.17722117658    -2.590E-10 7.202E-06 1.882E-09 7.352E-07 1.750E-05
 ETOT 11  -169.17722117689    -3.124E-10 7.631E-06 2.820E-10 5.154E-07 1.769E-05
 ETOT 12  -169.17722117714    -2.458E-10 6.989E-06 7.361E-11 4.316E-07 1.807E-05
 ETOT 13  -169.17722117728    -1.405E-10 7.372E-06 1.120E-11 9.332E-08 1.802E-05
 ETOT 14  -169.17722117744    -1.561E-10 6.738E-06 9.914E-13 3.164E-08 1.805E-05
 ETOT 15  -169.17722117751    -7.552E-11 7.076E-06 3.972E-13 1.322E-08 1.805E-05
 ETOT 16  -169.17722117761    -1.007E-10 6.455E-06 8.091E-14 2.918E-09 1.805E-05
 ETOT 17  -169.17722117766    -4.465E-11 6.750E-06 4.184E-14 2.528E-09 1.805E-05

 At SCF step   17, forces are converged : 
  for the second time, max diff in force=  2.528E-09 < toldff=  1.000E-08

 Cartesian components of stress tensor (hartree/bohr^3)
  sigma(1 1)= -6.59820590E-05  sigma(3 2)= -2.54734317E-13
  sigma(2 2)= -6.61385158E-05  sigma(3 1)=  5.05994809E-13
  sigma(3 3)= -6.59820590E-05  sigma(2 1)= -2.54733089E-13


--- !ResultsGS
iteration_state: {dtset: 1, itime: 3, icycle: 1, }
comment   : Summary of ground state results
lattice_vectors:
- [  0.0000000,  10.2918401,  10.3624071, ]
- [ 10.3624071,   0.0000000,  10.3624071, ]
- [ 10.3624071,  10.2918401,   0.0000000, ]
lattice_lengths: [  14.60484,   14.65466,   14.60484, ]
lattice_angles: [ 59.887,  60.226,  59.887, ] # degrees, (23, 13, 12)
lattice_volume:   2.2102649E+03
convergence: {deltae: -4.465E-11, res2:  4.184E-14, residm:  6.750E-06, diffor:  2.528E-09, }
etotal    :  -1.69177221E+02
entropy   :   0.00000000E+00
fermie    :  -7.72978153E-02
cartesian_stress_tensor: # hartree/bohr^3
- [ -6.59820590E-05,  -2.54733089E-13,   5.05994809E-13, ]
- [ -2.54733089E-13,  -6.61385158E-05,  -2.54734317E-13, ]
- [  5.05994809E-13,  -2.54734317E-13,  -6.59820590E-05, ]
pressure_GPa:   1.9428E+00
xred      :
- [  2.5000E-01,   2.5000E-01,   2.5000E-01, Cs]
- [  7.5000E-01,   7.5000E-01,   7.5000E-01, Cs]
- [  7.3851E-01,   2.6149E-01,   7.3851E-01,  I]
- [  2.3758E-01,   2.3758E-01,   7.6242E-01, Br]
- [  7.6242E-01,   7.6242E-01,   2.3758E-01, Br]
- [  2.6149E-01,   7.3851E-01,   2.6149E-01,  I]
- [  2.3758E-01,   7.6242E-01,   7.6242E-01, Br]
- [  7.6242E-01,   2.3758E-01,   2.3758E-01, Br]
- [ -5.7472E-22,   1.1961E-21,  -4.7080E-22, Hf]
cartesian_forces: # hartree/bohr
- [  1.27720226E-24,  -6.42979765E-25,  -2.96490300E-23, ]
- [  3.83160678E-24,  -6.42979765E-25,  -3.22034345E-23, ]
- [ -1.43871945E-21,  -1.29100876E-05,   1.41034762E-21, ]
- [ -6.48296508E-16,   6.52743905E-16,  -1.80494466E-05, ]
- [  6.48297815E-16,  -6.52745222E-16,   1.80494466E-05, ]
- [ -2.55346449E-22,   1.29100876E-05,   2.26974622E-22, ]
- [  1.80494466E-05,  -6.52741309E-16,   6.48294785E-16, ]
- [ -1.80494466E-05,   6.52741309E-16,  -6.48294842E-16, ]
- [ -0.00000000E+00,  -0.00000000E+00,  -2.83718277E-23, ]
force_length_stats: {min:   2.83718277E-23, max:   1.80494466E-05, mean:   1.08908846E-05, }
...

 Integrated electronic density in atomic spheres:
 ------------------------------------------------
 Atom  Sphere_radius  Integrated_density
    1        2.20660          5.36800658
    2        2.20660          5.36800658
    3        2.30022          4.03861099
    4        2.20000          4.94104565
    5        2.20000          4.94104565
    6        2.30022          4.03861099
    7        2.20000          4.94104565
    8        2.20000          4.94104565
    9        2.41000          9.30229242

 PAW TEST:
 ==== Compensation charge inside spheres ============
 The following values must be close to each other ...
 Compensation charge over spherical meshes =     -0.380849874008090
 Compensation charge over fine fft grid    =     -0.380857889142835

 ==== Results concerning PAW augmentation regions ====

 Total pseudopotential strength Dij (hartree):
 Atom #  1
   0.43343  -0.14356   0.00000   0.00000   0.00000   0.00000   0.00000   0.00000   0.00000   0.00000  -0.00000   0.00000 ...
  -0.14356   0.04321   0.00000   0.00000   0.00000   0.00000   0.00000   0.00000   0.00000   0.00000   0.00000   0.00000 ...
   0.00000   0.00000  -0.09273   0.00000   0.00000  -0.16708   0.00000   0.00000   0.00000   0.00000   0.00000  -0.00000 ...
   0.00000   0.00000   0.00000  -0.09273   0.00000   0.00000  -0.16708   0.00000  -0.00000   0.00000   0.00000   0.00000 ...
   0.00000   0.00000   0.00000   0.00000  -0.09273   0.00000   0.00000  -0.16708   0.00000  -0.00000   0.00000   0.00000 ...
   0.00000   0.00000  -0.16708   0.00000   0.00000   0.40197   0.00000   0.00000   0.00000   0.00000   0.00000   0.00000 ...
   0.00000   0.00000   0.00000  -0.16708   0.00000   0.00000   0.40196   0.00000   0.00000   0.00000   0.00000   0.00000 ...
   0.00000   0.00000   0.00000   0.00000  -0.16708   0.00000   0.00000   0.40196   0.00000   0.00000   0.00000   0.00000 ...
   0.00000   0.00000   0.00000  -0.00000   0.00000   0.00000   0.00000   0.00000   0.00534   0.00000   0.00000   0.00000 ...
   0.00000   0.00000   0.00000   0.00000  -0.00000   0.00000   0.00000   0.00000   0.00000   0.00534   0.00000   0.00000 ...
  -0.00000   0.00000   0.00000   0.00000   0.00000   0.00000   0.00000   0.00000   0.00000   0.00000   0.00534   0.00000 ...
   0.00000   0.00000  -0.00000   0.00000   0.00000   0.00000   0.00000   0.00000   0.00000   0.00000   0.00000   0.00534 ...
   ...  only 12  components have been written...
 Atom #  9
  -3.51034   0.42534   0.00000   0.00000   0.00000   0.00000   0.00000   0.00000   0.00000   0.00000   0.00004   0.00000 ...
   0.42534   0.00342   0.00000   0.00000   0.00000   0.00000   0.00000   0.00000   0.00000   0.00000  -0.00001   0.00000 ...
   0.00000   0.00000  -1.44289   0.00000   0.00000   0.12074   0.00000   0.00000   0.00000   0.00000   0.00000   0.00000 ...
   0.00000   0.00000   0.00000  -1.44261   0.00000   0.00000   0.12070   0.00000   0.00000   0.00000   0.00000   0.00000 ...
   0.00000   0.00000   0.00000   0.00000  -1.44261   0.00000   0.00000   0.12070   0.00000   0.00000   0.00000   0.00000 ...
   0.00000   0.00000   0.12074   0.00000   0.00000   0.01383   0.00000   0.00000   0.00000   0.00000   0.00000   0.00000 ...
   0.00000   0.00000   0.00000   0.12070   0.00000   0.00000   0.01383   0.00000   0.00000   0.00000   0.00000   0.00000 ...
   0.00000   0.00000   0.00000   0.00000   0.12070   0.00000   0.00000   0.01383   0.00000   0.00000   0.00000   0.00000 ...
   0.00000   0.00000   0.00000   0.00000   0.00000   0.00000   0.00000   0.00000  -0.39148   0.00000   0.00000   0.00000 ...
   0.00000   0.00000   0.00000   0.00000   0.00000   0.00000   0.00000   0.00000   0.00000  -0.39148   0.00000   0.00000 ...
   0.00004  -0.00001   0.00000   0.00000   0.00000   0.00000   0.00000   0.00000   0.00000   0.00000  -0.39078   0.00000 ...
[...]
                       8.2757860401E+00  5.4041656275E+00  5.4388462982E+00
                       2.6019065566E+00  5.4041656275E+00  5.4388462984E+00
                       3.9450244869E-21 -5.6501770115E-21  3.3797801617E-21
           xangst10    2.7164578464E+00  2.6997957894E+00  2.7164578464E+00
                       8.1493735392E+00  8.0993873682E+00  8.1493735392E+00
                       5.4329156929E+00  7.9596342290E+00  5.4329156929E+00
                       5.4329156929E+00  5.3995915788E+00  2.6014171981E+00
                       5.4329156927E+00  5.3995915788E+00  8.2644141875E+00
                       5.4329156927E+00  2.8395489286E+00  5.4329156927E+00
                       8.2644141875E+00  5.3995915788E+00  5.4329156927E+00
                       2.6014171981E+00  5.3995915788E+00  5.4329156929E+00
                       3.7832463394E-21 -5.8024930617E-21  2.9449727218E-21
            xcart1     5.1811441926E+00  5.1460379616E+00  5.1811441926E+00
                       1.5543432578E+01  1.5438113885E+01  1.5543432578E+01
                       1.0362288385E+01  1.5201619564E+01  1.0362288385E+01
                       1.0362288385E+01  1.0292075923E+01  4.9235911689E+00
                       1.0362288385E+01  1.0292075923E+01  1.5800985601E+01
                       1.0362288385E+01  5.3825322823E+00  1.0362288385E+01
                       1.5800985601E+01  1.0292075923E+01  1.0362288385E+01
                       4.9235911689E+00  1.0292075923E+01  1.0362288385E+01
                       7.5162045731E-21 -1.0760597434E-20  6.4392804637E-21
            xcart2     5.1759754261E+00  5.1408518826E+00  5.1759754261E+00
                       1.5527926278E+01  1.5422555648E+01  1.5527926278E+01
                       1.0351950852E+01  1.5182540413E+01  1.0351950852E+01
                       1.0351950852E+01  1.0281703765E+01  4.9228273510E+00
                       1.0351950852E+01  1.0281703765E+01  1.5781074353E+01
                       1.0351950852E+01  5.3808671178E+00  1.0351950852E+01
                       1.5781074353E+01  1.0281703765E+01  1.0351950852E+01
                       4.9228273510E+00  1.0281703765E+01  1.0351950852E+01
                       7.5087063247E-21 -1.0749753108E-20  6.4328565666E-21
            xcart3     5.1708012360E+00  5.1356765774E+00  5.1708012360E+00
                       1.5512403708E+01  1.5407029732E+01  1.5512403708E+01
                       1.0341602472E+01  1.5163620503E+01  1.0341602472E+01
                       1.0341602472E+01  1.0271353155E+01  4.9220566216E+00
                       1.0341602472E+01  1.0271353155E+01  1.5761148322E+01
                       1.0341602472E+01  5.3790858061E+00  1.0341602472E+01
                       1.5761148322E+01  1.0271353155E+01  1.0341602472E+01
                       4.9220566216E+00  1.0271353155E+01  1.0341602472E+01
                       7.5012002083E-21 -1.0738931312E-20  6.4264259289E-21
            xcart4     5.1656414833E+00  5.1304725942E+00  5.1656414833E+00
                       1.5496924450E+01  1.5391417783E+01  1.5496924450E+01
                       1.0331282967E+01  1.5144625061E+01  1.0331282967E+01
                       1.0331282967E+01  1.0260945188E+01  4.9212460802E+00
                       1.0331282966E+01  1.0260945188E+01  1.5741319853E+01
                       1.0331282966E+01  5.3772653158E+00  1.0331282966E+01
                       1.5741319853E+01  1.0260945188E+01  1.0331282966E+01
                       4.9212460802E+00  1.0260945188E+01  1.0331282967E+01
                       7.4937150360E-21 -1.0728049548E-20  6.4200132344E-21
            xcart5     5.1604666857E+00  5.1252984962E+00  5.1604666857E+00
                       1.5481400057E+01  1.5375895489E+01  1.5481400057E+01
                       1.0320933372E+01  1.5125786820E+01  1.0320933372E+01
                       1.0320933372E+01  1.0250596992E+01  4.9204645015E+00
                       1.0320933371E+01  1.0250596992E+01  1.5721402241E+01
                       1.0320933371E+01  5.3754071651E+00  1.0320933371E+01
                       1.5721402241E+01  1.0250596992E+01  1.0320933371E+01
                       4.9204645015E+00  1.0250596992E+01  1.0320933372E+01
                       7.4862080384E-21 -1.0717230276E-20  6.4135818418E-21
            xcart6     5.1552650733E+00  5.1201776626E+00  5.1552650733E+00
                       1.5465795220E+01  1.5360532988E+01  1.5465795220E+01
                       1.0310530147E+01  1.5107208768E+01  1.0310530147E+01
                       1.0310530147E+01  1.0240355325E+01  4.9196858245E+00
                       1.0310530146E+01  1.0240355325E+01  1.5701374469E+01
                       1.0310530146E+01  5.3735018826E+00  1.0310530146E+01
                       1.5701374469E+01  1.0240355325E+01  1.0310530146E+01
                       4.9196858245E+00  1.0240355325E+01  1.0310530147E+01
                       7.4786621409E-21 -1.0706522382E-20  6.4071171228E-21
            xcart7     5.1500597701E+00  5.1150641609E+00  5.1500597701E+00
                       1.5450179310E+01  1.5345192483E+01  1.5450179310E+01
                       1.0300119540E+01  1.5088738747E+01  1.0300119540E+01
                       1.0300119540E+01  1.0230128322E+01  4.9187332362E+00
                       1.0300119540E+01  1.0230128322E+01  1.5681505844E+01
                       1.0300119540E+01  5.3715178969E+00  1.0300119540E+01
                       1.5681505844E+01  1.0230128322E+01  1.0300119540E+01
                       4.9187332362E+00  1.0230128322E+01  1.0300119540E+01
                       7.4711108892E-21 -1.0695829819E-20  6.4006478167E-21
            xcart8     5.1448475188E+00  5.1099644613E+00  5.1448475188E+00
                       1.5434542557E+01  1.5329893384E+01  1.5434542557E+01
                       1.0289695038E+01  1.5070183867E+01  1.0289695038E+01
                       1.0289695038E+01  1.0219928923E+01  4.9178681528E+00
                       1.0289695038E+01  1.0219928923E+01  1.5661521923E+01
                       1.0289695038E+01  5.3696739779E+00  1.0289695038E+01
                       1.5661521923E+01  1.0219928923E+01  1.0289695038E+01
                       4.9178681528E+00  1.0219928923E+01  1.0289695038E+01
                       7.4635495581E-21 -1.0685166118E-20  6.3941698755E-21
            xcart9     5.1389649914E+00  5.1061965064E+00  5.1389649914E+00
                       1.5416894974E+01  1.5318589519E+01  1.5416894974E+01
                       1.0277929983E+01  1.5056928085E+01  1.0277929983E+01
                       1.0277929983E+01  1.0212393013E+01  4.9168908153E+00
                       1.0277929983E+01  1.0212393013E+01  1.5638969150E+01
                       1.0277929983E+01  5.3678579409E+00  1.0277929983E+01
                       1.5638969150E+01  1.0212393013E+01  1.0277929983E+01
                       4.9168908153E+00  1.0212393013E+01  1.0277929983E+01
                       7.4550158678E-21 -1.0677287154E-20  6.3868588950E-21
            xcart10    5.1333613812E+00  5.1018746567E+00  5.1333613812E+00
                       1.5400084144E+01  1.5305623970E+01  1.5400084144E+01
                       1.0266722763E+01  1.5041528811E+01  1.0266722763E+01
                       1.0266722763E+01  1.0203749313E+01  4.9159660617E+00
                       1.0266722762E+01  1.0203749313E+01  1.5617479463E+01
                       1.0266722762E+01  5.3659698159E+00  1.0266722762E+01
                       1.5617479463E+01  1.0203749313E+01  1.0266722762E+01
                       4.9159660617E+00  1.0203749313E+01  1.0266722763E+01
                       7.1492994747E-21 -1.0965122775E-20  5.5651919130E-21
             xred1     2.5000000000E-01  2.5000000000E-01  2.5000000000E-01
                       7.5000000000E-01  7.5000000000E-01  7.5000000000E-01
                       7.3851085425E-01  2.6148914575E-01  7.3851085425E-01
                       2.3757257982E-01  2.3757257982E-01  7.6242742018E-01
                       7.6242742018E-01  7.6242742018E-01  2.3757257982E-01
                       2.6148914575E-01  7.3851085425E-01  2.6148914575E-01
                       2.3757257982E-01  7.6242742018E-01  7.6242742018E-01
                       7.6242742018E-01  2.3757257982E-01  2.3757257982E-01
                      -5.7472489725E-22  1.1961398034E-21 -4.7079764978E-22
             xred2     2.5000000000E-01  2.5000000000E-01  2.5000000000E-01
                       7.5000000000E-01  7.5000000000E-01  7.5000000000E-01
                       7.3832804170E-01  2.6167195830E-01  7.3832804170E-01
                       2.3777292905E-01  2.3777292905E-01  7.6222707095E-01
                       7.6222707095E-01  7.6222707095E-01  2.3777292905E-01
                       2.6167195830E-01  7.3832804170E-01  2.6167195830E-01
                       2.3777292905E-01  7.6222707095E-01  7.6222707095E-01
                       7.6222707095E-01  2.3777292905E-01  2.3777292905E-01
                      -5.7472489725E-22  1.1961398034E-21 -4.7079764978E-22
             xred3     2.5000000000E-01  2.5000000000E-01  2.5000000000E-01
                       7.5000000000E-01  7.5000000000E-01  7.5000000000E-01
                       7.3815106320E-01  2.6184893680E-01  7.3815106320E-01
                       2.3797359427E-01  2.3797359427E-01  7.6202640573E-01
                       7.6202640573E-01  7.6202640573E-01  2.3797359427E-01
                       2.6184893680E-01  7.3815106320E-01  2.6184893680E-01
                       2.3797359427E-01  7.6202640573E-01  7.6202640573E-01
                       7.6202640573E-01  2.3797359427E-01  2.3797359427E-01
                      -5.7472489725E-22  1.1961398034E-21 -4.7079764978E-22
             xred4     2.5000000000E-01  2.5000000000E-01  2.5000000000E-01
                       7.5000000000E-01  7.5000000000E-01  7.5000000000E-01
                       7.3797417211E-01  2.6202582789E-01  7.3797417211E-01
                       2.3817206905E-01  2.3817206905E-01  7.6182793095E-01
                       7.6182793095E-01  7.6182793095E-01  2.3817206905E-01
                       2.6202582789E-01  7.3797417211E-01  2.6202582789E-01
                       2.3817206905E-01  7.6182793095E-01  7.6182793095E-01
                       7.6182793095E-01  2.3817206905E-01  2.3817206905E-01
                      -5.7472489725E-22  1.1961398034E-21 -4.7079764978E-22
             xred5     2.5000000000E-01  2.5000000000E-01  2.5000000000E-01
                       7.5000000000E-01  7.5000000000E-01  7.5000000000E-01
                       7.3780028768E-01  2.6219971232E-01  7.3780028768E-01
                       2.3837303878E-01  2.3837303878E-01  7.6162696122E-01
                       7.6162696122E-01  7.6162696122E-01  2.3837303878E-01
                       2.6219971232E-01  7.3780028768E-01  2.6219971232E-01
                       2.3837303878E-01  7.6162696122E-01  7.6162696122E-01
                       7.6162696122E-01  2.3837303878E-01  2.3837303878E-01
                      -5.7472489725E-22  1.1961398034E-21 -4.7079764978E-22
             xred6     2.5000000000E-01  2.5000000000E-01  2.5000000000E-01
                       7.5000000000E-01  7.5000000000E-01  7.5000000000E-01
                       7.3763108252E-01  2.6236891748E-01  7.3763108252E-01
                       2.3857579361E-01  2.3857579361E-01  7.6142420639E-01
                       7.6142420639E-01  7.6142420639E-01  2.3857579361E-01
                       2.6236891748E-01  7.3763108252E-01  2.6236891748E-01
                       2.3857579361E-01  7.6142420639E-01  7.6142420639E-01
                       7.6142420639E-01  2.3857579361E-01  2.3857579361E-01
                      -5.7472489725E-22  1.1961398034E-21 -4.7079764978E-22
             xred7     2.5000000000E-01  2.5000000000E-01  2.5000000000E-01
                       7.5000000000E-01  7.5000000000E-01  7.5000000000E-01
                       7.3746576153E-01  2.6253423847E-01  7.3746576153E-01
                       2.3877068693E-01  2.3877068693E-01  7.6122931307E-01
                       7.6122931307E-01  7.6122931307E-01  2.3877068693E-01
                       2.6253423847E-01  7.3746576153E-01  2.6253423847E-01
                       2.3877068693E-01  7.6122931307E-01  7.6122931307E-01
                       7.6122931307E-01  2.3877068693E-01  2.3877068693E-01
                      -5.7472489725E-22  1.1961398034E-21 -4.7079764978E-22
             xred8     2.5000000000E-01  2.5000000000E-01  2.5000000000E-01
                       7.5000000000E-01  7.5000000000E-01  7.5000000000E-01
                       7.3729396659E-01  2.6270603341E-01  7.3729396659E-01
                       2.3897054941E-01  2.3897054941E-01  7.6102945059E-01
                       7.6102945059E-01  7.6102945059E-01  2.3897054941E-01
                       2.6270603341E-01  7.3729396659E-01  2.6270603341E-01
                       2.3897054941E-01  7.6102945059E-01  7.6102945059E-01
                       7.6102945059E-01  2.3897054941E-01  2.3897054941E-01
                      -5.7472489725E-22  1.1961398034E-21 -4.7079764978E-22
             xred9     2.5000000000E-01  2.5000000000E-01  2.5000000000E-01
                       7.5000000000E-01  7.5000000000E-01  7.5000000000E-01
                       7.3718902444E-01  2.6281097556E-01  7.3718902444E-01
                       2.3919655143E-01  2.3919655143E-01  7.6080344857E-01
                       7.6080344857E-01  7.6080344857E-01  2.3919655143E-01
                       2.6281097556E-01  7.3718902444E-01  2.6281097556E-01
                       2.3919655143E-01  7.6080344857E-01  7.6080344857E-01
                       7.6080344857E-01  2.3919655143E-01  2.3919655143E-01
                      -5.7472489725E-22  1.1961398034E-21 -4.7079764978E-22
             xred10    2.5000000000E-01  2.5000000000E-01  2.5000000000E-01
                       7.5000000000E-01  7.5000000000E-01  7.5000000000E-01
                       7.3705891574E-01  2.6294108426E-01  7.3705891574E-01
                       2.3941262346E-01  2.3941262346E-01  7.6058737654E-01
                       7.6058737654E-01  7.6058737654E-01  2.3941262346E-01
                       2.6294108426E-01  7.3705891574E-01  2.6294108426E-01
                       2.3941262346E-01  7.6058737654E-01  7.6058737654E-01
                       7.6058737654E-01  2.3941262346E-01  2.3941262346E-01
                      -6.1445618865E-22  1.1565173743E-21 -4.6016084063E-22
            znucl       55.00000   53.00000   72.00000   35.00000

================================================================================


- Timing analysis has been suppressed with timopt=0



================================================================================

 Suggested references for the acknowledgment of ABINIT usage.

 The users of ABINIT have little formal obligations with respect to the ABINIT group
 (those specified in the GNU General Public License, http://www.gnu.org/copyleft/gpl.txt).
 However, it is common practice in the scientific literature,
 to acknowledge the efforts of people that have made the research possible.
 In this spirit, please find below suggested citations of work written by ABINIT developers,
 corresponding to implementations inside of ABINIT that you have used in the present run.
 Note also that it will be of great value to readers of publications presenting these results,
 to read papers enabling them to understand the theoretical formalism and details
 of the ABINIT implementation.
 For information on why they are suggested, see also https://docs.abinit.org/theory/acknowledgments.
-
- [1] Implementation of the Projector Augmented-Wave Method in the ABINIT code.
- M. Torrent, F. Jollet, F. Bottin, G. Zerah, and X. Gonze Comput. Mat. Science 42, 337, (2008).
- Comment: PAW calculations. Strong suggestion to cite this paper.
- DOI and bibtex: see https://docs.abinit.org/theory/bibliography/#torrent2008
-
- [2] Libxc: A library of exchange and correlation functionals for density functional theory.
- M.A.L. Marques, M.J.T. Oliveira, T. Burnus, Computer Physics Communications 183, 2227 (2012).
- Comment: to be cited when LibXC is used (negative value of ixc)
- Strong suggestion to cite this paper.
- DOI and bibtex: see https://docs.abinit.org/theory/bibliography/#marques2012
-
- [3] The Abinit project: Impact, environment and recent developments.
- Computer Phys. Comm. 248, 107042 (2020).
- X.Gonze, B. Amadon, G. Antonius, F.Arnardi, L.Baguet, J.-M.Beuken,
- J.Bieder, F.Bottin, J.Bouchet, E.Bousquet, N.Brouwer, F.Bruneval,
- G.Brunin, T.Cavignac, J.-B. Charraud, Wei Chen, M.Cote, S.Cottenier,
- J.Denier, G.Geneste, Ph.Ghosez, M.Giantomassi, Y.Gillet, O.Gingras,
- D.R.Hamann, G.Hautier, Xu He, N.Helbig, N.Holzwarth, Y.Jia, F.Jollet,
- W.Lafargue-Dit-Hauret, K.Lejaeghere, M.A.L.Marques, A.Martin, C.Martins,
- H.P.C. Miranda, F.Naccarato, K. Persson, G.Petretto, V.Planes, Y.Pouillon,
- S.Prokhorenko, F.Ricci, G.-M.Rignanese, A.H.Romero, M.M.Schmitt, M.Torrent,
- M.J.van Setten, B.Van Troeye, M.J.Verstraete, G.Zerah and J.W.Zwanzig
- Comment: the fifth generic paper describing the ABINIT project.
- Note that a version of this paper, that is not formatted for Computer Phys. Comm. 
- is available at https://www.abinit.org/sites/default/files/ABINIT20.pdf .
- The licence allows the authors to put it on the Web.
- DOI and bibtex: see https://docs.abinit.org/theory/bibliography/#gonze2020
-
- [4] ABINIT: Overview, and focus on selected capabilities
- J. Chem. Phys. 152, 124102 (2020).
- A. Romero, D.C. Allan, B. Amadon, G. Antonius, T. Applencourt, L.Baguet,
- J.Bieder, F.Bottin, J.Bouchet, E.Bousquet, F.Bruneval,
- G.Brunin, D.Caliste, M.Cote,
- J.Denier, C. Dreyer, Ph.Ghosez, M.Giantomassi, Y.Gillet, O.Gingras,
- D.R.Hamann, G.Hautier, F.Jollet, G. Jomard,
- A.Martin, 
- H.P.C. Miranda, F.Naccarato, G.Petretto, N.A. Pike, V.Planes,
- S.Prokhorenko, T. Rangel, F.Ricci, G.-M.Rignanese, M.Royo, M.Stengel, M.Torrent,
- M.J.van Setten, B.Van Troeye, M.J.Verstraete, J.Wiktor, J.W.Zwanziger, and X.Gonze.
- Comment: a global overview of ABINIT, with focus on selected capabilities .
- Note that a version of this paper, that is not formatted for J. Chem. Phys 
- is available at https://www.abinit.org/sites/default/files/ABINIT20_JPC.pdf .
- The licence allows the authors to put it on the Web.
- DOI and bibtex: see https://docs.abinit.org/theory/bibliography/#romero2020
-
- [5] Recent developments in the ABINIT software package.
- Computer Phys. Comm. 205, 106 (2016).
- X.Gonze, F.Jollet, F.Abreu Araujo, D.Adams, B.Amadon, T.Applencourt,
- C.Audouze, J.-M.Beuken, J.Bieder, A.Bokhanchuk, E.Bousquet, F.Bruneval
- D.Caliste, M.Cote, F.Dahm, F.Da Pieve, M.Delaveau, M.Di Gennaro,
- B.Dorado, C.Espejo, G.Geneste, L.Genovese, A.Gerossier, M.Giantomassi,
- Y.Gillet, D.R.Hamann, L.He, G.Jomard, J.Laflamme Janssen, S.Le Roux,
- A.Levitt, A.Lherbier, F.Liu, I.Lukacevic, A.Martin, C.Martins,
- M.J.T.Oliveira, S.Ponce, Y.Pouillon, T.Rangel, G.-M.Rignanese,
- A.H.Romero, B.Rousseau, O.Rubel, A.A.Shukri, M.Stankovski, M.Torrent,
- M.J.Van Setten, B.Van Troeye, M.J.Verstraete, D.Waroquier, J.Wiktor,
- B.Xu, A.Zhou, J.W.Zwanziger.
- Comment: the fourth generic paper describing the ABINIT project.
- Note that a version of this paper, that is not formatted for Computer Phys. Comm. 
- is available at https://www.abinit.org/sites/default/files/ABINIT16.pdf .
- The licence allows the authors to put it on the Web.
- DOI and bibtex: see https://docs.abinit.org/theory/bibliography/#gonze2016
-
- Proc.   0 individual time (sec): cpu=      16478.7  wall=      16497.6

================================================================================

 Calculation completed.
.Delivered   0 WARNINGs and  64 COMMENTs to log file.
+Overall time at end (sec) : cpu=      98834.7  wall=      98985.2
