
.Version 9.2.2 of ABINIT 
.(MPI version, prepared for a x86_64_linux_gnu9.3 computer) 

.Copyright (C) 1998-2020 ABINIT group . 
 ABINIT comes with ABSOLUTELY NO WARRANTY.
 It is free software, and you are welcome to redistribute it
 under certain conditions (GNU General Public License,
 see ~abinit/COPYING or http://www.gnu.org/copyleft/gpl.txt).

 ABINIT is a project of the Universite Catholique de Louvain,
 Corning Inc. and other collaborators, see ~abinit/doc/developers/contributors.txt .
 Please read https://docs.abinit.org/theory/acknowledgments for suggested
 acknowledgments of the ABINIT effort.
 For more information, see https://www.abinit.org .

.Starting date : Sun 11 Sep 2022.
- ( at 11h46 )
  
- input  file    -> Cs2TiI6.in
- output file    -> Cs2TiI6.out
- root for input  files -> Cs2TiI6i
- root for output files -> Cs2TiI6o

- inpspheads : Reading pseudopotential header in XML form from 
-   ../../../Psps_for_tests/ATOMICDATA/Cs.GGA_PBE-JTH.xml
- inpspheads : Reading pseudopotential header in XML form from 
-   ../../../Psps_for_tests/ATOMICDATA/I.GGA_PBE-JTH.xml
- inpspheads : Reading pseudopotential header in XML form from 
-   ../../../Psps_for_tests/ATOMICDATA/Zr.GGA_PBE-JTH.xml

 DATASET    1 : space group Fm -3 m (#225); Bravais cF (face-center cubic)
================================================================================
 Values of the parameters that define the memory need for DATASET  1.
     intxc =       0    ionmov =       0      iscf =      17    lmnmax =      18
     lnmax =       6     mgfft =      54  mpssoang =       3    mqgrid =    3356
     natom =       9  nloc_mem =       2    nspden =       1   nspinor =       1
    nsppol =       1      nsym =      48    n1xccc =       1    ntypat =       3
    occopt =       1   xclevel =       2
-    mband =          42        mffmem =           1         mkmem =          25
       mpw =        6588          nfft =      157464          nkpt =         145
Pmy_natom=         2
 PAW method is used; the additional fine FFT grid is defined by:
   mgfftf=        90    nfftf =    729000
================================================================================
P This job should need less than                     320.777 Mbytes of memory.
  Rough estimation (10% accuracy) of disk space for files :
_ WF disk file :    612.199 Mbytes ; DEN or POT disk file :      5.564 Mbytes.
================================================================================


 DATASET    2 : space group Fm -3 m (#225); Bravais cF (face-center cubic)
================================================================================
 Values of the parameters that define the memory need for DATASET  2.
     intxc =       0    ionmov =       0      iscf =      17    lmnmax =      18
     lnmax =       6     mgfft =      54  mpssoang =       3    mqgrid =    3352
     natom =       9  nloc_mem =       2    nspden =       1   nspinor =       1
    nsppol =       1      nsym =      48    n1xccc =       1    ntypat =       3
    occopt =       1   xclevel =       2
-    mband =          42        mffmem =           1         mkmem =          25
       mpw =        6519          nfft =      157464          nkpt =         145
Pmy_natom=         2
 PAW method is used; the additional fine FFT grid is defined by:
   mgfftf=        90    nfftf =    729000
================================================================================
P This job should need less than                     319.547 Mbytes of memory.
  Rough estimation (10% accuracy) of disk space for files :
_ WF disk file :    605.787 Mbytes ; DEN or POT disk file :      5.564 Mbytes.
================================================================================


 DATASET    3 : space group Fm -3 m (#225); Bravais cF (face-center cubic)
================================================================================
 Values of the parameters that define the memory need for DATASET  3.
     intxc =       0    ionmov =       0      iscf =      17    lmnmax =      18
     lnmax =       6     mgfft =      54  mpssoang =       3    mqgrid =    3349
     natom =       9  nloc_mem =       2    nspden =       1   nspinor =       1
    nsppol =       1      nsym =      48    n1xccc =       1    ntypat =       3
    occopt =       1   xclevel =       2
-    mband =          42        mffmem =           1         mkmem =          25
       mpw =        6493          nfft =      157464          nkpt =         145
Pmy_natom=         2
 PAW method is used; the additional fine FFT grid is defined by:
   mgfftf=        90    nfftf =    729000
================================================================================
P This job should need less than                     319.093 Mbytes of memory.
  Rough estimation (10% accuracy) of disk space for files :
_ WF disk file :    603.371 Mbytes ; DEN or POT disk file :      5.564 Mbytes.
================================================================================


 DATASET    4 : space group Fm -3 m (#225); Bravais cF (face-center cubic)
================================================================================
 Values of the parameters that define the memory need for DATASET  4.
     intxc =       0    ionmov =       0      iscf =      17    lmnmax =      18
     lnmax =       6     mgfft =      54  mpssoang =       3    mqgrid =    3345
     natom =       9  nloc_mem =       2    nspden =       1   nspinor =       1
    nsppol =       1      nsym =      48    n1xccc =       1    ntypat =       3
    occopt =       1   xclevel =       2
-    mband =          42        mffmem =           1         mkmem =          25
       mpw =        6476          nfft =      157464          nkpt =         145
Pmy_natom=         2
 PAW method is used; the additional fine FFT grid is defined by:
   mgfftf=        90    nfftf =    729000
================================================================================
P This job should need less than                     318.802 Mbytes of memory.
  Rough estimation (10% accuracy) of disk space for files :
_ WF disk file :    601.791 Mbytes ; DEN or POT disk file :      5.564 Mbytes.
================================================================================


 DATASET    5 : space group Fm -3 m (#225); Bravais cF (face-center cubic)
================================================================================
 Values of the parameters that define the memory need for DATASET  5.
     intxc =       0    ionmov =       0      iscf =      17    lmnmax =      18
     lnmax =       6     mgfft =      54  mpssoang =       3    mqgrid =    3341
     natom =       9  nloc_mem =       2    nspden =       1   nspinor =       1
    nsppol =       1      nsym =      48    n1xccc =       1    ntypat =       3
    occopt =       1   xclevel =       2
-    mband =          42        mffmem =           1         mkmem =          25
       mpw =        6447          nfft =      157464          nkpt =         145
Pmy_natom=         2
 PAW method is used; the additional fine FFT grid is defined by:
   mgfftf=        90    nfftf =    729000
================================================================================
P This job should need less than                     318.294 Mbytes of memory.
  Rough estimation (10% accuracy) of disk space for files :
_ WF disk file :    599.096 Mbytes ; DEN or POT disk file :      5.564 Mbytes.
================================================================================


 DATASET    6 : space group Fm -3 m (#225); Bravais cF (face-center cubic)
================================================================================
 Values of the parameters that define the memory need for DATASET  6.
     intxc =       0    ionmov =       0      iscf =      17    lmnmax =      18
     lnmax =       6     mgfft =      54  mpssoang =       3    mqgrid =    3337
     natom =       9  nloc_mem =       2    nspden =       1   nspinor =       1
    nsppol =       1      nsym =      48    n1xccc =       1    ntypat =       3
    occopt =       1   xclevel =       2
-    mband =          42        mffmem =           1         mkmem =          25
       mpw =        6424          nfft =      157464          nkpt =         145
Pmy_natom=         2
 PAW method is used; the additional fine FFT grid is defined by:
   mgfftf=        90    nfftf =    729000
================================================================================
P This job should need less than                     317.894 Mbytes of memory.
  Rough estimation (10% accuracy) of disk space for files :
_ WF disk file :    596.959 Mbytes ; DEN or POT disk file :      5.564 Mbytes.
================================================================================


 DATASET    7 : space group Fm -3 m (#225); Bravais cF (face-center cubic)
================================================================================
 Values of the parameters that define the memory need for DATASET  7.
     intxc =       0    ionmov =       0      iscf =      17    lmnmax =      18
     lnmax =       6     mgfft =      54  mpssoang =       3    mqgrid =    3334
     natom =       9  nloc_mem =       2    nspden =       1   nspinor =       1
    nsppol =       1      nsym =      48    n1xccc =       1    ntypat =       3
    occopt =       1   xclevel =       2
-    mband =          42        mffmem =           1         mkmem =          25
       mpw =        6396          nfft =      157464          nkpt =         145
Pmy_natom=         2
 PAW method is used; the additional fine FFT grid is defined by:
   mgfftf=        90    nfftf =    729000
================================================================================
P This job should need less than                     317.404 Mbytes of memory.
  Rough estimation (10% accuracy) of disk space for files :
_ WF disk file :    594.357 Mbytes ; DEN or POT disk file :      5.564 Mbytes.
================================================================================


 DATASET    8 : space group Fm -3 m (#225); Bravais cF (face-center cubic)
================================================================================
 Values of the parameters that define the memory need for DATASET  8.
     intxc =       0    ionmov =       0      iscf =      17    lmnmax =      18
     lnmax =       6     mgfft =      54  mpssoang =       3    mqgrid =    3330
     natom =       9  nloc_mem =       2    nspden =       1   nspinor =       1
    nsppol =       1      nsym =      48    n1xccc =       1    ntypat =       3
    occopt =       1   xclevel =       2
-    mband =          42        mffmem =           1         mkmem =          25
       mpw =        6375          nfft =      157464          nkpt =         145
Pmy_natom=         2
 PAW method is used; the additional fine FFT grid is defined by:
   mgfftf=        90    nfftf =    729000
================================================================================
P This job should need less than                     317.040 Mbytes of memory.
  Rough estimation (10% accuracy) of disk space for files :
_ WF disk file :    592.405 Mbytes ; DEN or POT disk file :      5.564 Mbytes.
================================================================================


 DATASET    9 : space group Fm -3 m (#225); Bravais cF (face-center cubic)
================================================================================
 Values of the parameters that define the memory need for DATASET  9.
     intxc =       0    ionmov =       0      iscf =      17    lmnmax =      18
     lnmax =       6     mgfft =      54  mpssoang =       3    mqgrid =    3326
     natom =       9  nloc_mem =       2    nspden =       1   nspinor =       1
    nsppol =       1      nsym =      48    n1xccc =       1    ntypat =       3
    occopt =       1   xclevel =       2
-    mband =          42        mffmem =           1         mkmem =          25
       mpw =        6352          nfft =      157464          nkpt =         145
Pmy_natom=         2
 PAW method is used; the additional fine FFT grid is defined by:
   mgfftf=        90    nfftf =    729000
================================================================================
P This job should need less than                     316.641 Mbytes of memory.
  Rough estimation (10% accuracy) of disk space for files :
_ WF disk file :    590.268 Mbytes ; DEN or POT disk file :      5.564 Mbytes.
================================================================================

--------------------------------------------------------------------------------
------------- Echo of variables that govern the present computation ------------
--------------------------------------------------------------------------------
-
- outvars: echo of selected default values                                      
-   iomode0 =  0 , fftalg0 =112 , wfoptalg0 = 10
-
- outvars: echo of global parameters not present in the input file              
-  max_nthreads =    0
-
 -outvars: echo values of preprocessed input variables --------
            acell      1.6056750671E+01  1.6056750671E+01  1.6056750671E+01 Bohr
              amu      1.32905430E+02  1.26904470E+02  9.12240000E+01
           diemac      1.20000000E+01
             ecut      1.60000000E+01 Hartree
-          fftalg         112
           istwfk        2    0    0    0    0    0    0    0    3    0
                         0    0    0    0    0    0    0    0    0    0
                         0    0    0    0    0    0    0    0    0    0
                         0    0    0    0    0    0    0    0    0    0
                         0    0    0    0    0    0    0    0    0    0
                       outvar_i_n : Printing only first  50 k-points.
              ixc     -101130
           jdtset        1    2    3    4    5    6    7    8    9
              kpt      0.00000000E+00  0.00000000E+00  0.00000000E+00
                       6.25000000E-02  0.00000000E+00  0.00000000E+00
                       1.25000000E-01  0.00000000E+00  0.00000000E+00
                       1.87500000E-01  0.00000000E+00  0.00000000E+00
                       2.50000000E-01  0.00000000E+00  0.00000000E+00
                       3.12500000E-01  0.00000000E+00  0.00000000E+00
                       3.75000000E-01  0.00000000E+00  0.00000000E+00
                       4.37500000E-01  0.00000000E+00  0.00000000E+00
                       5.00000000E-01  0.00000000E+00  0.00000000E+00
                       6.25000000E-02  6.25000000E-02  0.00000000E+00
                       1.25000000E-01  6.25000000E-02  0.00000000E+00
                       1.87500000E-01  6.25000000E-02  0.00000000E+00
                       2.50000000E-01  6.25000000E-02  0.00000000E+00
                       3.12500000E-01  6.25000000E-02  0.00000000E+00
                       3.75000000E-01  6.25000000E-02  0.00000000E+00
                       4.37500000E-01  6.25000000E-02  0.00000000E+00
                       5.00000000E-01  6.25000000E-02  0.00000000E+00
                      -4.37500000E-01  6.25000000E-02  0.00000000E+00
                      -3.75000000E-01  6.25000000E-02  0.00000000E+00
                      -3.12500000E-01  6.25000000E-02  0.00000000E+00
                      -2.50000000E-01  6.25000000E-02  0.00000000E+00
                      -1.87500000E-01  6.25000000E-02  0.00000000E+00
                      -1.25000000E-01  6.25000000E-02  0.00000000E+00
                      -6.25000000E-02  6.25000000E-02  0.00000000E+00
                       1.25000000E-01  1.25000000E-01  0.00000000E+00
                       1.87500000E-01  1.25000000E-01  0.00000000E+00
                       2.50000000E-01  1.25000000E-01  0.00000000E+00
                       3.12500000E-01  1.25000000E-01  0.00000000E+00
                       3.75000000E-01  1.25000000E-01  0.00000000E+00
                       4.37500000E-01  1.25000000E-01  0.00000000E+00
                       5.00000000E-01  1.25000000E-01  0.00000000E+00
                      -4.37500000E-01  1.25000000E-01  0.00000000E+00
                      -3.75000000E-01  1.25000000E-01  0.00000000E+00
                      -3.12500000E-01  1.25000000E-01  0.00000000E+00
                      -2.50000000E-01  1.25000000E-01  0.00000000E+00
                      -1.87500000E-01  1.25000000E-01  0.00000000E+00
                      -1.25000000E-01  1.25000000E-01  0.00000000E+00
                       1.87500000E-01  1.87500000E-01  0.00000000E+00
                       2.50000000E-01  1.87500000E-01  0.00000000E+00
                       3.12500000E-01  1.87500000E-01  0.00000000E+00
                       3.75000000E-01  1.87500000E-01  0.00000000E+00
                       4.37500000E-01  1.87500000E-01  0.00000000E+00
                       5.00000000E-01  1.87500000E-01  0.00000000E+00
                      -4.37500000E-01  1.87500000E-01  0.00000000E+00
                      -3.75000000E-01  1.87500000E-01  0.00000000E+00
                      -3.12500000E-01  1.87500000E-01  0.00000000E+00
                      -2.50000000E-01  1.87500000E-01  0.00000000E+00
                      -1.87500000E-01  1.87500000E-01  0.00000000E+00
                       2.50000000E-01  2.50000000E-01  0.00000000E+00
                       3.12500000E-01  2.50000000E-01  0.00000000E+00
                       outvar_i_n : Printing only first  50 k-points.
         kptrlatt       16    0    0      0   16    0      0    0   16
          kptrlen1     2.30960302E+02
          kptrlen2     2.30703394E+02
          kptrlen3     2.30446486E+02
          kptrlen4     2.30189578E+02
          kptrlen5     2.29932670E+02
          kptrlen6     2.29675762E+02
          kptrlen7     2.29418854E+02
          kptrlen8     2.29161946E+02
          kptrlen9     2.28905038E+02
P           mkmem          25
            natom           9
            nband          42
           ndtset           9
            ngfft          54      54      54
          ngfftdg          90      90      90
             nkpt         145
            nstep        2500
             nsym          48
           ntypat           3
              occ      2.000000  2.000000  2.000000  2.000000  2.000000  2.000000
                       2.000000  2.000000  2.000000  2.000000  2.000000  2.000000
                       2.000000  2.000000  2.000000  2.000000  2.000000  2.000000
                       2.000000  2.000000  2.000000  2.000000  2.000000  2.000000
                       2.000000  2.000000  2.000000  2.000000  2.000000  2.000000
                       2.000000  2.000000  2.000000  2.000000  2.000000  2.000000
                       0.000000  0.000000  0.000000  0.000000  0.000000  0.000000
        pawecutdg      4.00000000E+01 Hartree
            rprim1     0.0000000000E+00  6.3568899629E-01  6.3568899629E-01
                       6.3568899629E-01  0.0000000000E+00  6.3568899629E-01
                       6.3568899629E-01  6.3568899629E-01  0.0000000000E+00
            rprim2     0.0000000000E+00  6.3498188951E-01  6.3498188951E-01
                       6.3498188951E-01  0.0000000000E+00  6.3498188951E-01
                       6.3498188951E-01  6.3498188951E-01  0.0000000000E+00
            rprim3     0.0000000000E+00  6.3427478273E-01  6.3427478273E-01
                       6.3427478273E-01  0.0000000000E+00  6.3427478273E-01
                       6.3427478273E-01  6.3427478273E-01  0.0000000000E+00
            rprim4     0.0000000000E+00  6.3356767595E-01  6.3356767595E-01
                       6.3356767595E-01  0.0000000000E+00  6.3356767595E-01
                       6.3356767595E-01  6.3356767595E-01  0.0000000000E+00
            rprim5     0.0000000000E+00  6.3286056917E-01  6.3286056917E-01
                       6.3286056917E-01  0.0000000000E+00  6.3286056917E-01
                       6.3286056917E-01  6.3286056917E-01  0.0000000000E+00
            rprim6     0.0000000000E+00  6.3215346238E-01  6.3215346238E-01
                       6.3215346238E-01  0.0000000000E+00  6.3215346238E-01
                       6.3215346238E-01  6.3215346238E-01  0.0000000000E+00
            rprim7     0.0000000000E+00  6.3144635560E-01  6.3144635560E-01
                       6.3144635560E-01  0.0000000000E+00  6.3144635560E-01
                       6.3144635560E-01  6.3144635560E-01  0.0000000000E+00
            rprim8     0.0000000000E+00  6.3073924882E-01  6.3073924882E-01
                       6.3073924882E-01  0.0000000000E+00  6.3073924882E-01
                       6.3073924882E-01  6.3073924882E-01  0.0000000000E+00
            rprim9     0.0000000000E+00  6.3003214204E-01  6.3003214204E-01
                       6.3003214204E-01  0.0000000000E+00  6.3003214204E-01
                       6.3003214204E-01  6.3003214204E-01  0.0000000000E+00
          spgroup         225
           symrel      1  0  0   0  1  0   0  0  1      -1  0  0   0 -1  0   0  0 -1
                       0 -1  1   0 -1  0   1 -1  0       0  1 -1   0  1  0  -1  1  0
                      -1  0  0  -1  0  1  -1  1  0       1  0  0   1  0 -1   1 -1  0
                       0  1 -1   1  0 -1   0  0 -1       0 -1  1  -1  0  1   0  0  1
                      -1  0  0  -1  1  0  -1  0  1       1  0  0   1 -1  0   1  0 -1
                       0 -1  1   1 -1  0   0 -1  0       0  1 -1  -1  1  0   0  1  0
                       1  0  0   0  0  1   0  1  0      -1  0  0   0  0 -1   0 -1  0
                       0  1 -1   0  0 -1   1  0 -1       0 -1  1   0  0  1  -1  0  1
                      -1  0  1  -1  1  0  -1  0  0       1  0 -1   1 -1  0   1  0  0
                       0 -1  0   1 -1  0   0 -1  1       0  1  0  -1  1  0   0  1 -1
                       1  0 -1   0  0 -1   0  1 -1      -1  0  1   0  0  1   0 -1  1
                       0  1  0   0  0  1   1  0  0       0 -1  0   0  0 -1  -1  0  0
                       1  0 -1   0  1 -1   0  0 -1      -1  0  1   0 -1  1   0  0  1
                       0 -1  0   0 -1  1   1 -1  0       0  1  0   0  1 -1  -1  1  0
                      -1  0  1  -1  0  0  -1  1  0       1  0 -1   1  0  0   1 -1  0
                       0  1  0   1  0  0   0  0  1       0 -1  0  -1  0  0   0  0 -1
                       0  0 -1   0  1 -1   1  0 -1       0  0  1   0 -1  1  -1  0  1
                       1 -1  0   0 -1  1   0 -1  0      -1  1  0   0  1 -1   0  1  0
                       0  0  1   1  0  0   0  1  0       0  0 -1  -1  0  0   0 -1  0
                      -1  1  0  -1  0  0  -1  0  1       1 -1  0   1  0  0   1  0 -1
                       0  0  1   0  1  0   1  0  0       0  0 -1   0 -1  0  -1  0  0
                       1 -1  0   0 -1  0   0 -1  1      -1  1  0   0  1  0   0  1 -1
                       0  0 -1   1  0 -1   0  1 -1       0  0  1  -1  0  1   0 -1  1
                      -1  1  0  -1  0  1  -1  0  0       1 -1  0   1  0 -1   1  0  0
           toldfe      1.00000000E-08 Hartree
            typat      1  1  2  2  2  2  2  2  3
           useylm           1
              wtk        0.00024    0.00195    0.00195    0.00195    0.00195    0.00195
                         0.00195    0.00195    0.00098    0.00146    0.00586    0.00586
                         0.00586    0.00586    0.00586    0.00586    0.00586    0.00586
                         0.00586    0.00586    0.00586    0.00586    0.00586    0.00293
                         0.00146    0.00586    0.00586    0.00586    0.00586    0.00586
                         0.00586    0.00586    0.00586    0.00586    0.00586    0.00586
                         0.00293    0.00146    0.00586    0.00586    0.00586    0.00586
                         0.00586    0.00586    0.00586    0.00586    0.00586    0.00293
                         0.00146    0.00586
                       outvars : Printing only first  50 k-points.
           xangst1     2.7006822682E+00  2.7006822682E+00  2.7006822682E+00
                       8.1020468046E+00  8.1020468046E+00  8.1020468046E+00
                       5.4013645364E+00  5.4013645364E+00  2.7918499958E+00
                       5.4013645364E+00  5.4013645364E+00  8.0108790770E+00
                       8.0108790770E+00  5.4013645364E+00  5.4013645364E+00
                       5.4013645364E+00  8.0108790770E+00  5.4013645364E+00
                       5.4013645364E+00  2.7918499958E+00  5.4013645364E+00
                       2.7918499958E+00  5.4013645364E+00  5.4013645364E+00
                      -7.1576493101E-19 -7.6160403688E-20  5.1997085285E-19
           xangst2     2.6976781723E+00  2.6976781723E+00  2.6976781723E+00
                       8.0930345168E+00  8.0930345168E+00  8.0930345168E+00
                       5.3953563445E+00  5.3953563445E+00  2.7902614357E+00
                       5.3953563445E+00  5.3953563445E+00  8.0004512533E+00
                       8.0004512533E+00  5.3953563445E+00  5.3953563445E+00
                       5.3953563445E+00  8.0004512533E+00  5.3953563445E+00
                       5.3953563445E+00  2.7902614357E+00  5.3953563445E+00
                       2.7902614357E+00  5.3953563445E+00  5.3953563445E+00
                      -9.2976895033E-19 -2.5570145826E-19  7.1789910490E-19
           xangst3     2.6946740763E+00  2.6946740763E+00  2.6946740763E+00
                       8.0840222289E+00  8.0840222289E+00  8.0840222289E+00
                       5.3893481526E+00  5.3893481526E+00  2.7886516557E+00
                       5.3893481526E+00  5.3893481526E+00  7.9900446495E+00
                       7.9900446495E+00  5.3893481526E+00  5.3893481526E+00
                       5.3893481526E+00  7.9900446495E+00  5.3893481526E+00
                       5.3893481526E+00  2.7886516557E+00  5.3893481526E+00
                       2.7886516557E+00  5.3893481526E+00  5.3893481526E+00
                      -7.4117782606E-19  3.2525412325E-19  6.3252664140E-19
           xangst4     2.6916699803E+00  2.6916699803E+00  2.6916699803E+00
                       8.0750099410E+00  8.0750099410E+00  8.0750099410E+00
                       5.3833399607E+00  5.3833399607E+00  2.7870453419E+00
                       5.3833399607E+00  5.3833399607E+00  7.9796345794E+00
                       7.9796345794E+00  5.3833399607E+00  5.3833399607E+00
                       5.3833399607E+00  7.9796345794E+00  5.3833399607E+00
                       5.3833399607E+00  2.7870453419E+00  5.3833399607E+00
                       2.7870453419E+00  5.3833399607E+00  5.3833399607E+00
                      -8.4246520688E-19  1.6434481810E-20  3.0277153934E-19
           xangst5     2.6886658844E+00  2.6886658844E+00  2.6886658844E+00
                       8.0659976531E+00  8.0659976531E+00  8.0659976531E+00
                       5.3773317687E+00  5.3773317687E+00  2.7854113329E+00
                       5.3773317687E+00  5.3773317687E+00  7.9692522046E+00
                       7.9692522046E+00  5.3773317687E+00  5.3773317687E+00
                       5.3773317687E+00  7.9692522046E+00  5.3773317687E+00
                       5.3773317687E+00  2.7854113329E+00  5.3773317687E+00
                       2.7854113329E+00  5.3773317687E+00  5.3773317687E+00
                      -6.1823131576E-19  1.0203708399E-19  3.1374751624E-19
           xangst6     2.6856617884E+00  2.6856617884E+00  2.6856617884E+00
                       8.0569853652E+00  8.0569853652E+00  8.0569853652E+00
                       5.3713235768E+00  5.3713235768E+00  2.7837511969E+00
                       5.3713235768E+00  5.3713235768E+00  7.9588959568E+00
                       7.9588959568E+00  5.3713235768E+00  5.3713235768E+00
                       5.3713235768E+00  7.9588959568E+00  5.3713235768E+00
                       5.3713235768E+00  2.7837511969E+00  5.3713235768E+00
                       2.7837511969E+00  5.3713235768E+00  5.3713235768E+00
                      -7.5165459009E-19 -5.0723734749E-20  5.5825939641E-19
           xangst7     2.6826576925E+00  2.6826576925E+00  2.6826576925E+00
                       8.0479730774E+00  8.0479730774E+00  8.0479730774E+00
                       5.3653153849E+00  5.3653153849E+00  2.7821041496E+00
                       5.3653153849E+00  5.3653153849E+00  7.9485266202E+00
                       7.9485266202E+00  5.3653153849E+00  5.3653153849E+00
                       5.3653153849E+00  7.9485266202E+00  5.3653153849E+00
                       5.3653153849E+00  2.7821041496E+00  5.3653153849E+00
                       2.7821041496E+00  5.3653153849E+00  5.3653153849E+00
                      -6.2145877893E-19  1.1313109153E-19  4.4376528608E-19
           xangst8     2.6796535965E+00  2.6796535965E+00  2.6796535965E+00
                       8.0389607895E+00  8.0389607895E+00  8.0389607895E+00
                       5.3593071930E+00  5.3593071930E+00  2.7804227729E+00
                       5.3593071930E+00  5.3593071930E+00  7.9381916130E+00
                       7.9381916130E+00  5.3593071930E+00  5.3593071930E+00
                       5.3593071930E+00  7.9381916130E+00  5.3593071930E+00
                       5.3593071930E+00  2.7804227729E+00  5.3593071930E+00
                       2.7804227729E+00  5.3593071930E+00  5.3593071930E+00
                      -6.9765310031E-19 -8.6110232183E-20  4.7354790291E-19
           xangst9     2.6766495005E+00  2.6766495005E+00  2.6766495005E+00
                       8.0299485016E+00  8.0299485016E+00  8.0299485016E+00
                       5.3532990011E+00  5.3532990011E+00  2.7787344616E+00
                       5.3532990011E+00  5.3532990011E+00  7.9278635405E+00
                       7.9278635405E+00  5.3532990011E+00  5.3532990011E+00
                       5.3532990011E+00  7.9278635405E+00  5.3532990011E+00
                       5.3532990011E+00  2.7787344616E+00  5.3532990011E+00
                       2.7787344616E+00  5.3532990011E+00  5.3532990011E+00
                      -7.3180991619E-19 -5.9858709565E-20  5.2160558806E-19
            xcart1     5.1035498589E+00  5.1035498589E+00  5.1035498589E+00
                       1.5310649577E+01  1.5310649577E+01  1.5310649577E+01
                       1.0207099718E+01  1.0207099718E+01  5.2758318962E+00
                       1.0207099718E+01  1.0207099718E+01  1.5138367539E+01
                       1.5138367539E+01  1.0207099718E+01  1.0207099718E+01
                       1.0207099718E+01  1.5138367539E+01  1.0207099718E+01
                       1.0207099718E+01  5.2758318962E+00  1.0207099718E+01
                       5.2758318962E+00  1.0207099718E+01  1.0207099718E+01
                      -1.3525996951E-18 -1.4392230514E-19  9.8260250896E-19
            xcart2     5.0978729402E+00  5.0978729402E+00  5.0978729402E+00
                       1.5293618821E+01  1.5293618821E+01  1.5293618821E+01
                       1.0195745880E+01  1.0195745880E+01  5.2728299526E+00
                       1.0195745880E+01  1.0195745880E+01  1.5118661808E+01
                       1.5118661808E+01  1.0195745880E+01  1.0195745880E+01
                       1.0195745880E+01  1.5118661808E+01  1.0195745880E+01
                       1.0195745880E+01  5.2728299526E+00  1.0195745880E+01
                       5.2728299526E+00  1.0195745880E+01  1.0195745880E+01
                      -1.7570086830E-18 -4.8320572789E-19  1.3566326993E-18
            xcart3     5.0921960216E+00  5.0921960216E+00  5.0921960216E+00
                       1.5276588065E+01  1.5276588065E+01  1.5276588065E+01
                       1.0184392043E+01  1.0184392043E+01  5.2697879093E+00
                       1.0184392043E+01  1.0184392043E+01  1.5098996177E+01
                       1.5098996177E+01  1.0184392043E+01  1.0184392043E+01
                       1.0184392043E+01  1.5098996177E+01  1.0184392043E+01
                       1.0184392043E+01  5.2697879093E+00  1.0184392043E+01
                       5.2697879093E+00  1.0184392043E+01  1.0184392043E+01
                      -1.4006231070E-18  6.1464121654E-19  1.1953021240E-18
            xcart4     5.0865191029E+00  5.0865191029E+00  5.0865191029E+00
                       1.5259557309E+01  1.5259557309E+01  1.5259557309E+01
                       1.0173038206E+01  1.0173038206E+01  5.2667524161E+00
                       1.0173038206E+01  1.0173038206E+01  1.5079323996E+01
                       1.5079323996E+01  1.0173038206E+01  1.0173038206E+01
                       1.0173038206E+01  1.5079323996E+01  1.0173038206E+01
                       1.0173038206E+01  5.2667524161E+00  1.0173038206E+01
                       5.2667524161E+00  1.0173038206E+01  1.0173038206E+01
                      -1.5920285175E-18  3.1056669757E-20  5.7215529018E-19
            xcart5     5.0808421843E+00  5.0808421843E+00  5.0808421843E+00
                       1.5242526553E+01  1.5242526553E+01  1.5242526553E+01
                       1.0161684369E+01  1.0161684369E+01  5.2636645867E+00
                       1.0161684369E+01  1.0161684369E+01  1.5059704151E+01
                       1.5059704151E+01  1.0161684369E+01  1.0161684369E+01
                       1.0161684369E+01  1.5059704151E+01  1.0161684369E+01
                       1.0161684369E+01  5.2636645867E+00  1.0161684369E+01
                       5.2636645867E+00  1.0161684369E+01  1.0161684369E+01
                      -1.1682878736E-18  1.9282214414E-19  5.9289688057E-19
            xcart6     5.0751652657E+00  5.0751652657E+00  5.0751652657E+00
                       1.5225495797E+01  1.5225495797E+01  1.5225495797E+01
                       1.0150330531E+01  1.0150330531E+01  5.2605273842E+00
                       1.0150330531E+01  1.0150330531E+01  1.5040133678E+01
                       1.5040133678E+01  1.0150330531E+01  1.0150330531E+01
                       1.0150330531E+01  1.5040133678E+01  1.0150330531E+01
                       1.0150330531E+01  5.2605273842E+00  1.0150330531E+01
                       5.2605273842E+00  1.0150330531E+01  1.0150330531E+01
                      -1.4204213218E-18 -9.5853967112E-20  1.0549573703E-18
            xcart7     5.0694883470E+00  5.0694883470E+00  5.0694883470E+00
                       1.5208465041E+01  1.5208465041E+01  1.5208465041E+01
                       1.0138976694E+01  1.0138976694E+01  5.2574149160E+00
                       1.0138976694E+01  1.0138976694E+01  1.5020538472E+01
                       1.5020538472E+01  1.0138976694E+01  1.0138976694E+01
                       1.0138976694E+01  1.5020538472E+01  1.0138976694E+01
                       1.0138976694E+01  5.2574149160E+00  1.0138976694E+01
                       5.2574149160E+00  1.0138976694E+01  1.0138976694E+01
                      -1.1743868951E-18  2.1378678010E-19  8.3859485797E-19
            xcart8     5.0638114284E+00  5.0638114284E+00  5.0638114284E+00
                       1.5191434285E+01  1.5191434285E+01  1.5191434285E+01
                       1.0127622857E+01  1.0127622857E+01  5.2542375745E+00
                       1.0127622857E+01  1.0127622857E+01  1.5001008139E+01
                       1.5001008139E+01  1.0127622857E+01  1.0127622857E+01
                       1.0127622857E+01  1.5001008139E+01  1.0127622857E+01
                       1.0127622857E+01  5.2542375745E+00  1.0127622857E+01
                       5.2542375745E+00  1.0127622857E+01  1.0127622857E+01
                      -1.3183732953E-18 -1.6272475606E-19  8.9487584730E-19
            xcart9     5.0581345097E+00  5.0581345097E+00  5.0581345097E+00
                       1.5174403529E+01  1.5174403529E+01  1.5174403529E+01
                       1.0116269019E+01  1.0116269019E+01  5.2510471285E+00
                       1.0116269019E+01  1.0116269019E+01  1.4981490910E+01
                       1.4981490910E+01  1.0116269019E+01  1.0116269019E+01
                       1.0116269019E+01  1.4981490910E+01  1.0116269019E+01
                       1.0116269019E+01  5.2510471285E+00  1.0116269019E+01
                       5.2510471285E+00  1.0116269019E+01  1.0116269019E+01
                      -1.3829203229E-18 -1.1311656775E-19  9.8569171082E-19
             xred1     2.5000000000E-01  2.5000000000E-01  2.5000000000E-01
                       7.5000000000E-01  7.5000000000E-01  7.5000000000E-01
                       2.5843932371E-01  2.5843932371E-01  7.4156067629E-01
                       7.4156067629E-01  7.4156067629E-01  2.5843932371E-01
                       2.5843932371E-01  7.4156067629E-01  7.4156067629E-01
                       7.4156067629E-01  2.5843932371E-01  7.4156067629E-01
                       2.5843932371E-01  7.4156067629E-01  2.5843932371E-01
                       7.4156067629E-01  2.5843932371E-01  2.5843932371E-01
                       1.0734096656E-19 -1.1074393671E-20 -1.2144118201E-19
             xred2     2.5000000000E-01  2.5000000000E-01  2.5000000000E-01
                       7.5000000000E-01  7.5000000000E-01  7.5000000000E-01
                       2.5857990256E-01  2.5857990256E-01  7.4142009744E-01
                       7.4142009744E-01  7.4142009744E-01  2.5857990256E-01
                       2.5857990256E-01  7.4142009744E-01  7.4142009744E-01
                       7.4142009744E-01  2.5857990256E-01  7.4142009744E-01
                       2.5857990256E-01  7.4142009744E-01  2.5857990256E-01
                       7.4142009744E-01  2.5857990256E-01  2.5857990256E-01
                       1.2899672497E-19  4.0619757085E-21 -1.7638960172E-19
             xred3     2.5000000000E-01  2.5000000000E-01  2.5000000000E-01
                       7.5000000000E-01  7.5000000000E-01  7.5000000000E-01
                       2.5871882617E-01  2.5871882617E-01  7.4128117383E-01
                       7.4128117383E-01  7.4128117383E-01  2.5871882617E-01
                       2.5871882617E-01  7.4128117383E-01  7.4128117383E-01
                       7.4128117383E-01  2.5871882617E-01  7.4128117383E-01
                       2.5871882617E-01  7.4128117383E-01  2.5871882617E-01
                       7.4128117383E-01  2.5871882617E-01  2.5871882617E-01
                       1.5762189996E-19 -4.0255824604E-20 -9.7270608107E-20
             xred4     2.5000000000E-01  2.5000000000E-01  2.5000000000E-01
                       7.5000000000E-01  7.5000000000E-01  7.5000000000E-01
                       2.5885838181E-01  2.5885838181E-01  7.4114161819E-01
                       7.4114161819E-01  7.4114161819E-01  2.5885838181E-01
                       2.5885838181E-01  7.4114161819E-01  7.4114161819E-01
                       7.4114161819E-01  2.5885838181E-01  7.4114161819E-01
                       2.5885838181E-01  7.4114161819E-01  2.5885838181E-01
                       7.4114161819E-01  2.5885838181E-01  2.5885838181E-01
                       1.0789502767E-19 -5.1652705701E-20 -1.0484218651E-19
             xred5     2.5000000000E-01  2.5000000000E-01  2.5000000000E-01
                       7.5000000000E-01  7.5000000000E-01  7.5000000000E-01
                       2.5899567413E-01  2.5899567413E-01  7.4100432587E-01
                       7.4100432587E-01  7.4100432587E-01  2.5899567413E-01
                       2.5899567413E-01  7.4100432587E-01  7.4100432587E-01
                       7.4100432587E-01  2.5899567413E-01  7.4100432587E-01
                       2.5899567413E-01  7.4100432587E-01  2.5899567413E-01
                       7.4100432587E-01  2.5899567413E-01  2.5899567413E-01
                       9.6145817337E-20 -3.7799498059E-20 -7.7170405668E-20
             xred6     2.5000000000E-01  2.5000000000E-01  2.5000000000E-01
                       7.5000000000E-01  7.5000000000E-01  7.5000000000E-01
                       2.5913084150E-01  2.5913084150E-01  7.4086915850E-01
                       7.4086915850E-01  7.4086915850E-01  2.5913084150E-01
                       2.5913084150E-01  7.4086915850E-01  7.4086915850E-01
                       7.4086915850E-01  2.5913084150E-01  7.4086915850E-01
                       2.5913084150E-01  7.4086915850E-01  2.5913084150E-01
                       7.4086915850E-01  2.5913084150E-01  2.5913084150E-01
                       1.1721414971E-19 -1.3280847532E-20 -1.2665758279E-19
             xred7     2.5000000000E-01  2.5000000000E-01  2.5000000000E-01
                       7.5000000000E-01  7.5000000000E-01  7.5000000000E-01
                       2.5926753136E-01  2.5926753136E-01  7.4073246864E-01
                       7.4073246864E-01  7.4073246864E-01  2.5926753136E-01
                       2.5926753136E-01  7.4073246864E-01  7.4073246864E-01
                       7.4073246864E-01  2.5926753136E-01  7.4073246864E-01
                       2.5926753136E-01  7.4073246864E-01  2.5926753136E-01
                       7.4073246864E-01  2.5926753136E-01  2.5926753136E-01
                       1.0981229173E-19 -2.7102282300E-20 -8.8726654929E-20
             xred8     2.5000000000E-01  2.5000000000E-01  2.5000000000E-01
                       7.5000000000E-01  7.5000000000E-01  7.5000000000E-01
                       2.5940132491E-01  2.5940132491E-01  7.4059867509E-01
                       7.4059867509E-01  7.4059867509E-01  2.5940132491E-01
                       2.5940132491E-01  7.4059867509E-01  7.4059867509E-01
                       7.4059867509E-01  2.5940132491E-01  7.4059867509E-01
                       2.5940132491E-01  7.4059867509E-01  2.5940132491E-01
                       7.4059867509E-01  2.5940132491E-01  2.5940132491E-01
                       1.0123423905E-19 -1.2874328738E-20 -1.1730165767E-19
             xred9     2.5000000000E-01  2.5000000000E-01  2.5000000000E-01
                       7.5000000000E-01  7.5000000000E-01  7.5000000000E-01
                       2.5953477109E-01  2.5953477109E-01  7.4046522891E-01
                       7.4046522891E-01  7.4046522891E-01  2.5953477109E-01
                       2.5953477109E-01  7.4046522891E-01  7.4046522891E-01
                       7.4046522891E-01  2.5953477109E-01  7.4046522891E-01
                       2.5953477109E-01  7.4046522891E-01  2.5953477109E-01
                       7.4046522891E-01  2.5953477109E-01  2.5953477109E-01
                       1.1147862229E-19 -1.4042333385E-20 -1.2266027113E-19
            znucl       55.00000   53.00000   40.00000

================================================================================

 chkinp: Checking input parameters for consistency, jdtset=   1.

 chkinp: Checking input parameters for consistency, jdtset=   2.

 chkinp: Checking input parameters for consistency, jdtset=   3.

 chkinp: Checking input parameters for consistency, jdtset=   4.

 chkinp: Checking input parameters for consistency, jdtset=   5.

 chkinp: Checking input parameters for consistency, jdtset=   6.

 chkinp: Checking input parameters for consistency, jdtset=   7.

 chkinp: Checking input parameters for consistency, jdtset=   8.

 chkinp: Checking input parameters for consistency, jdtset=   9.

================================================================================
== DATASET  1 ==================================================================
-   mpi_nproc: 6, omp_nthreads: -1 (-1 if OMP is not activated)


--- !DatasetInfo
iteration_state: {dtset: 1, }
dimensions: {natom: 9, nkpt: 145, mband: 42, nsppol: 1, nspinor: 1, nspden: 1, mpw: 6588, }
cutoff_energies: {ecut:  16.0, pawecutdg:  40.0, }
electrons: {nelect:   7.20000000E+01, charge:   0.00000000E+00, occopt:   1.00000000E+00, tsmear:   1.00000000E-02, }
meta: {optdriver: 0, ionmov: 0, optcell: 0, iscf: 17, paral_kgb: 0, }
...

 Real(R)+Recip(G) space primitive vectors, cartesian coordinates (Bohr,Bohr^-1):
 R(1)=  0.0000000 10.2070997 10.2070997  G(1)= -0.0489855  0.0489855  0.0489855
 R(2)= 10.2070997  0.0000000 10.2070997  G(2)=  0.0489855 -0.0489855  0.0489855
 R(3)= 10.2070997 10.2070997  0.0000000  G(3)=  0.0489855  0.0489855 -0.0489855
 Unit cell volume ucvol=  2.1268510E+03 bohr^3
 Angles (23,13,12)=  6.00000000E+01  6.00000000E+01  6.00000000E+01 degrees

 Coarse grid specifications (used for wave-functions):

 getcut: wavevector=  0.0000  0.0000  0.0000  ngfft=  54  54  54
         ecut(hartree)=     16.000   => boxcut(ratio)=   2.07826

 Fine grid specifications (used for densities):

 getcut: wavevector=  0.0000  0.0000  0.0000  ngfft=  90  90  90
         ecut(hartree)=     40.000   => boxcut(ratio)=   2.19020

--- Pseudopotential description ------------------------------------------------
- pspini: atom type   1  psp file is ../../../Psps_for_tests/ATOMICDATA/Cs.GGA_PBE-JTH.xml
- pspatm: opening atomic psp file    ../../../Psps_for_tests/ATOMICDATA/Cs.GGA_PBE-JTH.xml
- pspatm : Reading pseudopotential header in XML form from ../../../Psps_for_tests/ATOMICDATA/Cs.GGA_PBE-JTH.xml
 Pseudopotential format is: paw10
 basis_size (lnmax)=  6 (lmn_size= 18), orbitals=   0   0   1   1   2   2
 Spheres core radius: rc_sph= 2.20660278
 1 radial meshes are used:
  - mesh 1: r(i)=AA*[exp(BB*(i-1))-1], size=1500 , AA= 0.15922E-03 BB= 0.87573E-02
 Shapefunction is SIN type: shapef(r)=[sin(pi*r/rshp)/(pi*r/rshp)]**2
 Radius for shape functions =  2.00394208
 mmax= 1500
 Radial grid used for partial waves is grid 1
 Radial grid used for projectors is grid 1
 Radial grid used for (t)core density is grid 1
 Radial grid used for Vloc is grid 1
 Radial grid used for pseudo valence density is grid 1
 Mesh size for Vloc has been set to 1341 to avoid numerical noise.
 Compensation charge density is not taken into account in XC energy/potential
 pspatm: atomic psp has been read  and splines computed

- pspini: atom type   2  psp file is ../../../Psps_for_tests/ATOMICDATA/I.GGA_PBE-JTH.xml
- pspatm: opening atomic psp file    ../../../Psps_for_tests/ATOMICDATA/I.GGA_PBE-JTH.xml
- pspatm : Reading pseudopotential header in XML form from ../../../Psps_for_tests/ATOMICDATA/I.GGA_PBE-JTH.xml
 Pseudopotential format is: paw10
 basis_size (lnmax)=  4 (lmn_size=  8), orbitals=   0   0   1   1
 Spheres core radius: rc_sph= 2.30022271
 1 radial meshes are used:
  - mesh 1: r(i)=AA*[exp(BB*(i-1))-1], size=2000 , AA= 0.12610E-03 BB= 0.66836E-02
 Shapefunction is SIN type: shapef(r)=[sin(pi*r/rshp)/(pi*r/rshp)]**2
 Radius for shape functions =  2.10879093
 mmax= 2000
 Radial grid used for partial waves is grid 1
 Radial grid used for projectors is grid 1
 Radial grid used for (t)core density is grid 1
 Radial grid used for Vloc is grid 1
 Radial grid used for pseudo valence density is grid 1
 Mesh size for Vloc has been set to 1792 to avoid numerical noise.
 Compensation charge density is not taken into account in XC energy/potential
 pspatm: atomic psp has been read  and splines computed

- pspini: atom type   3  psp file is ../../../Psps_for_tests/ATOMICDATA/Zr.GGA_PBE-JTH.xml
- pspatm: opening atomic psp file    ../../../Psps_for_tests/ATOMICDATA/Zr.GGA_PBE-JTH.xml
- pspatm : Reading pseudopotential header in XML form from ../../../Psps_for_tests/ATOMICDATA/Zr.GGA_PBE-JTH.xml
 Pseudopotential format is: paw10
 basis_size (lnmax)=  6 (lmn_size= 18), orbitals=   0   0   1   1   2   2
 Spheres core radius: rc_sph= 2.21000000
 1 radial meshes are used:
  - mesh 1: r(i)=AA*[exp(BB*(i-1))-1], size= 941 , AA= 0.35256E-03 BB= 0.14102E-01
 Shapefunction is BESSEL type: shapef(r,l)=aa(1,l)*jl(q(1,l)*r)+aa(2,l)*jl(q(2,l)*r)
 Radius for shape functions =  2.21000000
 mmax=  941
 Radial grid used for partial waves is grid 1
 Radial grid used for projectors is grid 1
 Radial grid used for (t)core density is grid 1
 Radial grid used for Vloc is grid 1
 Radial grid used for pseudo valence density is grid 1
 Mesh size for Vloc has been set to  777 to avoid numerical noise.
 Compensation charge density is not taken into account in XC energy/potential
 pspatm: atomic psp has been read  and splines computed

   4.46697182E+04                                ecore*ucvol(ha*bohr**3)
--------------------------------------------------------------------------------

_setup2: Arith. and geom. avg. npw (full set) are    6501.367    6501.352

================================================================================

--- !BeginCycle
iteration_state: {dtset: 1, }
solver: {iscf: 17, nstep: 2500, nline: 4, wfoptalg: 10, }
tolerances: {toldfe: 1.00E-08, }
...

     iter   Etot(hartree)      deltaE(h)  residm     nres2
 ETOT  1  -158.48552892594    -1.585E+02 2.900E-01 1.656E+01
 ETOT  2  -158.76804810327    -2.825E-01 1.538E-02 5.358E+00
 ETOT  3  -158.76297285341     5.075E-03 3.138E-03 1.122E+00
 ETOT  4  -158.76382917819    -8.563E-04 3.621E-03 1.318E-01
 ETOT  5  -158.76311009547     7.191E-04 1.162E-03 6.635E-03
 ETOT  6  -158.76317542852    -6.533E-05 9.227E-04 1.330E-03
 ETOT  7  -158.76317219331     3.235E-06 5.585E-04 1.643E-04
 ETOT  8  -158.76317276562    -5.723E-07 4.109E-04 1.951E-05
 ETOT  9  -158.76317280852    -4.291E-08 3.794E-04 3.730E-06
 ETOT 10  -158.76317283273    -2.421E-08 3.259E-04 2.386E-07
 ETOT 11  -158.76317283595    -3.224E-09 4.417E-04 4.065E-08
 ETOT 12  -158.76317283651    -5.572E-10 2.470E-04 7.047E-09

 At SCF step   12, etot is converged : 
  for the second time, diff in etot=  5.572E-10 < toldfe=  1.000E-08

 Cartesian components of stress tensor (hartree/bohr^3)
  sigma(1 1)= -2.29492468E-04  sigma(3 2)=  0.00000000E+00
  sigma(2 2)= -2.29492468E-04  sigma(3 1)=  0.00000000E+00
  sigma(3 3)= -2.29492468E-04  sigma(2 1)=  0.00000000E+00


--- !ResultsGS
iteration_state: {dtset: 1, }
comment   : Summary of ground state results
lattice_vectors:
- [  0.0000000,  10.2070997,  10.2070997, ]
- [ 10.2070997,   0.0000000,  10.2070997, ]
- [ 10.2070997,  10.2070997,   0.0000000, ]
lattice_lengths: [  14.43502,   14.43502,   14.43502, ]
lattice_angles: [ 60.000,  60.000,  60.000, ] # degrees, (23, 13, 12)
lattice_volume:   2.1268510E+03
convergence: {deltae: -5.572E-10, res2:  7.047E-09, residm:  2.470E-04, diffor: null, }
etotal    :  -1.58763173E+02
entropy   :   0.00000000E+00
fermie    :  -6.84231533E-02
cartesian_stress_tensor: # hartree/bohr^3
- [ -2.29492468E-04,   0.00000000E+00,   0.00000000E+00, ]
- [  0.00000000E+00,  -2.29492468E-04,   0.00000000E+00, ]
- [  0.00000000E+00,   0.00000000E+00,  -2.29492468E-04, ]
pressure_GPa:   6.7519E+00
xred      :
- [  2.5000E-01,   2.5000E-01,   2.5000E-01, Cs]
- [  7.5000E-01,   7.5000E-01,   7.5000E-01, Cs]
- [  2.5844E-01,   2.5844E-01,   7.4156E-01,  I]
- [  7.4156E-01,   7.4156E-01,   2.5844E-01,  I]
- [  2.5844E-01,   7.4156E-01,   7.4156E-01,  I]
- [  7.4156E-01,   2.5844E-01,   7.4156E-01,  I]
- [  2.5844E-01,   7.4156E-01,   2.5844E-01,  I]
- [  7.4156E-01,   2.5844E-01,   2.5844E-01,  I]
- [  1.0734E-19,  -1.1074E-20,  -1.2144E-19, Zr]
cartesian_forces: # hartree/bohr
- [ -7.52918175E-22,   1.27468154E-21,  -6.71515763E-22, ]
- [ -7.52918152E-22,   1.27468156E-21,  -6.71515766E-22, ]
- [ -1.36806758E-21,   1.88983095E-21,   3.89244836E-05, ]
- [  3.25036301E-21,  -2.72859964E-21,  -3.89244836E-05, ]
- [ -3.89244836E-05,  -7.30897408E-23,   6.76255550E-22, ]
- [  9.71762100E-23,  -3.89244836E-05,  -1.52161013E-21, ]
- [ -1.60301256E-21,   3.89244836E-05,   1.78578643E-22, ]
- [  3.89244836E-05,  -3.42118884E-21,   4.02435465E-21, ]
- [ -7.52918175E-22,   1.27468155E-21,  -6.71515743E-22, ]
force_length_stats: {min:   1.62561749E-21, max:   3.89244836E-05, mean:   2.59496557E-05, }
...

 Integrated electronic density in atomic spheres:
 ------------------------------------------------
 Atom  Sphere_radius  Integrated_density
    1        2.20660          5.37711026
    2        2.20660          5.37711026
    3        2.30022          4.05147259
    4        2.30022          4.05147259
    5        2.30022          4.05147259
    6        2.30022          4.05147259
    7        2.30022          4.05147259
    8        2.30022          4.05147259
    9        2.21000          8.92538272

 PAW TEST:
 ==== Compensation charge inside spheres ============
 The following values must be close to each other ...
 Compensation charge over spherical meshes =     -5.213529854823608
 Compensation charge over fine fft grid    =     -5.213525055058492

 ==== Results concerning PAW augmentation regions ====

 Total pseudopotential strength Dij (hartree):
 Atom #  1
   0.43593  -0.14437   0.00000   0.00000   0.00000   0.00000   0.00000   0.00000   0.00000   0.00000   0.00000   0.00000 ...
  -0.14437   0.04347   0.00000   0.00000   0.00000   0.00000   0.00000   0.00000   0.00000   0.00000   0.00000   0.00000 ...
   0.00000   0.00000  -0.09300   0.00000   0.00000  -0.16694   0.00000   0.00000   0.00000   0.00000   0.00000  -0.00000 ...
   0.00000   0.00000   0.00000  -0.09300   0.00000   0.00000  -0.16694   0.00000  -0.00000   0.00000   0.00000   0.00000 ...
   0.00000   0.00000   0.00000   0.00000  -0.09300   0.00000   0.00000  -0.16694   0.00000  -0.00000   0.00000   0.00000 ...
   0.00000   0.00000  -0.16694   0.00000   0.00000   0.40278   0.00000   0.00000   0.00000   0.00000   0.00000  -0.00000 ...
   0.00000   0.00000   0.00000  -0.16694   0.00000   0.00000   0.40278   0.00000  -0.00000   0.00000   0.00000   0.00000 ...
   0.00000   0.00000   0.00000   0.00000  -0.16694   0.00000   0.00000   0.40278   0.00000  -0.00000   0.00000   0.00000 ...
   0.00000   0.00000   0.00000  -0.00000   0.00000   0.00000  -0.00000   0.00000   0.00531   0.00000   0.00000   0.00000 ...
   0.00000   0.00000   0.00000   0.00000  -0.00000   0.00000   0.00000  -0.00000   0.00000   0.00531   0.00000   0.00000 ...
   0.00000   0.00000   0.00000   0.00000   0.00000   0.00000   0.00000   0.00000   0.00000   0.00000   0.00531   0.00000 ...
   0.00000   0.00000  -0.00000   0.00000   0.00000  -0.00000   0.00000   0.00000   0.00000   0.00000   0.00000   0.00531 ...
   ...  only 12  components have been written...
 Atom #  9
   3.07318  -0.89507   0.00000   0.00000   0.00000   0.00000   0.00000   0.00000   0.00000   0.00000   0.00000   0.00000 ...
  -0.89507   0.26747   0.00000   0.00000   0.00000   0.00000   0.00000   0.00000   0.00000   0.00000   0.00000   0.00000 ...
   0.00000   0.00000   0.26860   0.00000   0.00000  -0.05466   0.00000   0.00000   0.00000   0.00000   0.00000   0.00000 ...
   0.00000   0.00000   0.00000   0.26860   0.00000   0.00000  -0.05466   0.00000   0.00000   0.00000   0.00000   0.00000 ...
   0.00000   0.00000   0.00000   0.00000   0.26860   0.00000   0.00000  -0.05466   0.00000   0.00000   0.00000   0.00000 ...
   0.00000   0.00000  -0.05466   0.00000   0.00000   0.01500   0.00000   0.00000   0.00000   0.00000   0.00000   0.00000 ...
   0.00000   0.00000   0.00000  -0.05466   0.00000   0.00000   0.01500   0.00000   0.00000   0.00000   0.00000   0.00000 ...
   0.00000   0.00000   0.00000   0.00000  -0.05466   0.00000   0.00000   0.01500   0.00000   0.00000   0.00000   0.00000 ...
   0.00000   0.00000   0.00000   0.00000   0.00000   0.00000   0.00000   0.00000  -0.01414   0.00000   0.00000   0.00000 ...
   0.00000   0.00000   0.00000   0.00000   0.00000   0.00000   0.00000   0.00000   0.00000  -0.01414   0.00000   0.00000 ...
   0.00000   0.00000   0.00000   0.00000   0.00000   0.00000   0.00000   0.00000   0.00000   0.00000  -0.01408   0.00000 ...
   0.00000   0.00000   0.00000   0.00000   0.00000   0.00000   0.00000   0.00000   0.00000   0.00000   0.00000  -0.01414 ...
   ...  only 12  components have been written...


 Augmentation waves occupancies Rhoij:
 Atom #  1
   1.99880  -0.01169   0.00000   0.00000   0.00000   0.00000   0.00000   0.00000   0.00000   0.00000   0.00000   0.00000 ...
  -0.01169   0.23939   0.00000   0.00000   0.00000   0.00000   0.00000   0.00000   0.00000   0.00000   0.00000   0.00000 ...
   0.00000   0.00000   2.00587   0.00000   0.00000  -0.00482   0.00000   0.00000   0.00000   0.00000   0.00000  -0.00185 ...
   0.00000   0.00000   0.00000   2.00587   0.00000   0.00000  -0.00482   0.00000  -0.00185   0.00000   0.00000   0.00000 ...
   0.00000   0.00000   0.00000   0.00000   2.00587   0.00000   0.00000  -0.00482   0.00000  -0.00185   0.00000   0.00000 ...
   0.00000   0.00000  -0.00482   0.00000   0.00000   0.00018   0.00000   0.00000   0.00000   0.00000   0.00000   0.00012 ...
   0.00000   0.00000   0.00000  -0.00482   0.00000   0.00000   0.00018   0.00000   0.00012   0.00000   0.00000   0.00000 ...
   0.00000   0.00000   0.00000   0.00000  -0.00482   0.00000   0.00000   0.00018   0.00000   0.00012   0.00000   0.00000 ...
   0.00000   0.00000   0.00000  -0.00185   0.00000   0.00000   0.00012   0.00000   0.09442   0.00000   0.00000   0.00000 ...
   0.00000   0.00000   0.00000   0.00000  -0.00185   0.00000   0.00000   0.00012   0.00000   0.09442   0.00000   0.00000 ...
   0.00000   0.00000   0.00000   0.00000   0.00000   0.00000   0.00000   0.00000   0.00000   0.00000   0.06616   0.00000 ...
   0.00000   0.00000  -0.00185   0.00000   0.00000   0.00012   0.00000   0.00000   0.00000   0.00000   0.00000   0.09442 ...
   ...  only 12  components have been written...
 Atom #  9
   1.99504  -0.05430   0.00000   0.00000   0.00000   0.00000   0.00000   0.00000   0.00000   0.00000   0.00000   0.00000 ...
  -0.05430   1.08040   0.00000   0.00000   0.00000   0.00000   0.00000   0.00000   0.00000   0.00000   0.00000   0.00000 ...
   0.00000   0.00000   1.97408   0.00000   0.00000  -0.15562   0.00000   0.00000   0.00000   0.00000   0.00000   0.00000 ...
   0.00000   0.00000   0.00000   1.97408   0.00000   0.00000  -0.15562   0.00000   0.00000   0.00000   0.00000   0.00000 ...
   0.00000   0.00000   0.00000   0.00000   1.97408   0.00000   0.00000  -0.15562   0.00000   0.00000   0.00000   0.00000 ...
   0.00000   0.00000  -0.15562   0.00000   0.00000   1.65321   0.00000   0.00000   0.00000   0.00000   0.00000   0.00000 ...
   0.00000   0.00000   0.00000  -0.15562   0.00000   0.00000   1.65321   0.00000   0.00000   0.00000   0.00000   0.00000 ...
   0.00000   0.00000   0.00000   0.00000  -0.15562   0.00000   0.00000   1.65321   0.00000   0.00000   0.00000   0.00000 ...
   0.00000   0.00000   0.00000   0.00000   0.00000   0.00000   0.00000   0.00000   0.54058   0.00000   0.00000   0.00000 ...
   0.00000   0.00000   0.00000   0.00000   0.00000   0.00000   0.00000   0.00000   0.00000   0.54058   0.00000   0.00000 ...
   0.00000   0.00000   0.00000   0.00000   0.00000   0.00000   0.00000   0.00000   0.00000   0.00000   1.49055   0.00000 ...
   0.00000   0.00000   0.00000   0.00000   0.00000   0.00000   0.00000   0.00000   0.00000   0.00000   0.00000   0.54058 ...
   ...  only 12  components have been written...


================================================================================

 ----iterations are completed or convergence reached----

 Mean square residual over all n,k,spin=   48.706E-08; max=  24.698E-05
 reduced coordinates (array xred) for    9 atoms
       0.250000000000      0.250000000000      0.250000000000
       0.750000000000      0.750000000000      0.750000000000
       0.258439323710      0.258439323710      0.741560676290
       0.741560676290      0.741560676290      0.258439323710
       0.258439323710      0.741560676290      0.741560676290
       0.741560676290      0.258439323710      0.741560676290
       0.258439323710      0.741560676290      0.258439323710
       0.741560676290      0.258439323710      0.258439323710
       0.000000000000     -0.000000000000     -0.000000000000
 rms dE/dt=  2.6487E-04; max dE/dt=  3.9731E-04; dE/dt below (all hartree)
    1       0.000000000000      0.000000000000      0.000000000000
    2       0.000000000000      0.000000000000     -0.000000000000
    3      -0.000397306086     -0.000397306086      0.000000000000
    4       0.000397306086      0.000397306086      0.000000000000
    5       0.000000000000      0.000397306086      0.000397306086
    6       0.000397306086      0.000000000000      0.000397306086
    7      -0.000397306086      0.000000000000     -0.000397306086
    8      -0.000000000000     -0.000397306086     -0.000397306086
    9       0.000000000000      0.000000000000      0.000000000000

 cartesian coordinates (angstrom) at end:
    1      2.70068226821241     2.70068226821241     2.70068226821241
    2      8.10204680463722     8.10204680463723     8.10204680463722
    3      5.40136453642482     5.40136453642482     2.79184999580961
    4      5.40136453642482     5.40136453642482     8.01087907704002
    5      8.01087907704002     5.40136453642482     5.40136453642482
    6      5.40136453642482     8.01087907704002     5.40136453642482
    7      5.40136453642482     2.79184999580961     5.40136453642482
    8      2.79184999580961     5.40136453642482     5.40136453642482
    9     -0.00000000000000    -0.00000000000000     0.00000000000000

 cartesian forces (hartree/bohr) at end:
    1     -0.00000000000000     0.00000000000000    -0.00000000000000
    2     -0.00000000000000     0.00000000000000    -0.00000000000000
    3     -0.00000000000000     0.00000000000000     0.00003892448359
    4      0.00000000000000    -0.00000000000000    -0.00003892448359
    5     -0.00003892448359    -0.00000000000000     0.00000000000000
    6      0.00000000000000    -0.00003892448359    -0.00000000000000
    7     -0.00000000000000     0.00003892448359     0.00000000000000
    8      0.00003892448359    -0.00000000000000     0.00000000000000
    9     -0.00000000000000     0.00000000000000    -0.00000000000000
 frms,max,avg= 1.8349178E-05 3.8924484E-05   0.000E+00  0.000E+00  0.000E+00 h/b

 cartesian forces (eV/Angstrom) at end:
    1     -0.00000000000000     0.00000000000000    -0.00000000000000
    2     -0.00000000000000     0.00000000000000    -0.00000000000000
    3     -0.00000000000000     0.00000000000000     0.00200157725511
    4      0.00000000000000    -0.00000000000000    -0.00200157725511
    5     -0.00200157725511    -0.00000000000000     0.00000000000000
    6      0.00000000000000    -0.00200157725511    -0.00000000000000
    7     -0.00000000000000     0.00200157725511     0.00000000000000
    8      0.00200157725511    -0.00000000000000     0.00000000000000
    9     -0.00000000000000     0.00000000000000    -0.00000000000000
 frms,max,avg= 9.4355257E-04 2.0015773E-03   0.000E+00  0.000E+00  0.000E+00 e/A
 length scales= 16.056750671000 16.056750671000 16.056750671000 bohr
              =  8.496866499105  8.496866499105  8.496866499105 angstroms
 prteigrs : about to open file Cs2TiI6o_DS1_EIG
 Fermi (or HOMO) energy (hartree) =  -0.06842   Average Vxc (hartree)=  -0.33410
 Eigenvalues (hartree) for nkpt= 145  k points:
 kpt#   1, nband= 42, wtk=  0.00024, kpt=  0.0000  0.0000  0.0000 (reduced coord)
  -1.88271   -1.07555   -1.07555   -1.07555   -0.82460   -0.82402   -0.53577   -0.50282
  -0.50282   -0.50282   -0.49446   -0.49446   -0.35182   -0.35182   -0.35182   -0.34598
  -0.34598   -0.34598   -0.24693   -0.18385   -0.18385   -0.18385   -0.17806   -0.17806
  -0.17806   -0.14800   -0.14800   -0.11534   -0.11534   -0.11534   -0.07393   -0.07393
  -0.07393   -0.06842   -0.06842   -0.06842   -0.01849   -0.01849   -0.01849    0.07138
   0.07238    0.07238
 prteigrs : prtvol=0 or 1, do not print more k-points.


--- !EnergyTerms
iteration_state     : {dtset: 1, }
comment             : Components of total free energy in Hartree
kinetic             :  4.38720491727559E+01
hartree             :  2.65165905996416E+01
xc                  : -5.72352015289272E+01
Ewald energy        : -1.31037394668072E+02
psp_core            :  2.10027490735032E+01
local_psp           : -8.12271587581406E+01
spherical_terms     :  1.93451991438021E+01
total_energy        : -1.58763166965437E+02
total_energy_eV     : -4.32016547912578E+03
...


--- !EnergyTermsDC
iteration_state     : {dtset: 1, }
comment             : '"Double-counting" decomposition of free energy'
band_energy         : -2.88883655549709E+01
Ewald energy        : -1.31037394668072E+02
psp_core            :  2.10027490735032E+01
xc_dc               : -4.27463599049286E+01
spherical_terms     :  2.29061982179567E+01
total_energy_dc     : -1.58763172836512E+02
total_energy_dc_eV  : -4.32016563888585E+03
...


 Cartesian components of stress tensor (hartree/bohr^3)
  sigma(1 1)= -2.29492468E-04  sigma(3 2)=  0.00000000E+00
  sigma(2 2)= -2.29492468E-04  sigma(3 1)=  0.00000000E+00
  sigma(3 3)= -2.29492468E-04  sigma(2 1)=  0.00000000E+00

-Cartesian components of stress tensor (GPa)         [Pressure=  6.7519E+00 GPa]
- sigma(1 1)= -6.75190037E+00  sigma(3 2)=  0.00000000E+00
- sigma(2 2)= -6.75190037E+00  sigma(3 1)=  0.00000000E+00
- sigma(3 3)= -6.75190037E+00  sigma(2 1)=  0.00000000E+00

================================================================================
== DATASET  2 ==================================================================
-   mpi_nproc: 6, omp_nthreads: -1 (-1 if OMP is not activated)


--- !DatasetInfo
iteration_state: {dtset: 2, }
dimensions: {natom: 9, nkpt: 145, mband: 42, nsppol: 1, nspinor: 1, nspden: 1, mpw: 6519, }
cutoff_energies: {ecut:  16.0, pawecutdg:  40.0, }
electrons: {nelect:   7.20000000E+01, charge:   0.00000000E+00, occopt:   1.00000000E+00, tsmear:   1.00000000E-02, }
meta: {optdriver: 0, ionmov: 0, optcell: 0, iscf: 17, paral_kgb: 0, }
...

 Real(R)+Recip(G) space primitive vectors, cartesian coordinates (Bohr,Bohr^-1):
 R(1)=  0.0000000 10.1957459 10.1957459  G(1)= -0.0490401  0.0490401  0.0490401
 R(2)= 10.1957459  0.0000000 10.1957459  G(2)=  0.0490401 -0.0490401  0.0490401
 R(3)= 10.1957459 10.1957459  0.0000000  G(3)=  0.0490401  0.0490401 -0.0490401
 Unit cell volume ucvol=  2.1197615E+03 bohr^3
 Angles (23,13,12)=  6.00000000E+01  6.00000000E+01  6.00000000E+01 degrees

 Coarse grid specifications (used for wave-functions):

 getcut: wavevector=  0.0000  0.0000  0.0000  ngfft=  54  54  54
         ecut(hartree)=     16.000   => boxcut(ratio)=   2.08058

 Fine grid specifications (used for densities):

 getcut: wavevector=  0.0000  0.0000  0.0000  ngfft=  90  90  90
         ecut(hartree)=     40.000   => boxcut(ratio)=   2.19264

--- Pseudopotential description ------------------------------------------------
- pspini: atom type   1  psp file is ../../../Psps_for_tests/ATOMICDATA/Cs.GGA_PBE-JTH.xml
- pspatm: opening atomic psp file    ../../../Psps_for_tests/ATOMICDATA/Cs.GGA_PBE-JTH.xml
- pspatm : Reading pseudopotential header in XML form from ../../../Psps_for_tests/ATOMICDATA/Cs.GGA_PBE-JTH.xml
 Pseudopotential format is: paw10
 basis_size (lnmax)=  6 (lmn_size= 18), orbitals=   0   0   1   1   2   2
 Spheres core radius: rc_sph= 2.20660278
 1 radial meshes are used:
  - mesh 1: r(i)=AA*[exp(BB*(i-1))-1], size=1500 , AA= 0.15922E-03 BB= 0.87573E-02
 Shapefunction is SIN type: shapef(r)=[sin(pi*r/rshp)/(pi*r/rshp)]**2
 Radius for shape functions =  2.00394208
 mmax= 1500
 Radial grid used for partial waves is grid 1
 Radial grid used for projectors is grid 1
 Radial grid used for (t)core density is grid 1
 Radial grid used for Vloc is grid 1
 Radial grid used for pseudo valence density is grid 1
 Mesh size for Vloc has been set to 1341 to avoid numerical noise.
 Compensation charge density is not taken into account in XC energy/potential
 pspatm: atomic psp has been read  and splines computed

- pspini: atom type   2  psp file is ../../../Psps_for_tests/ATOMICDATA/I.GGA_PBE-JTH.xml
- pspatm: opening atomic psp file    ../../../Psps_for_tests/ATOMICDATA/I.GGA_PBE-JTH.xml
- pspatm : Reading pseudopotential header in XML form from ../../../Psps_for_tests/ATOMICDATA/I.GGA_PBE-JTH.xml
 Pseudopotential format is: paw10
 basis_size (lnmax)=  4 (lmn_size=  8), orbitals=   0   0   1   1
 Spheres core radius: rc_sph= 2.30022271
 1 radial meshes are used:
  - mesh 1: r(i)=AA*[exp(BB*(i-1))-1], size=2000 , AA= 0.12610E-03 BB= 0.66836E-02
 Shapefunction is SIN type: shapef(r)=[sin(pi*r/rshp)/(pi*r/rshp)]**2
 Radius for shape functions =  2.10879093
 mmax= 2000
 Radial grid used for partial waves is grid 1
 Radial grid used for projectors is grid 1
 Radial grid used for (t)core density is grid 1
 Radial grid used for Vloc is grid 1
 Radial grid used for pseudo valence density is grid 1
 Mesh size for Vloc has been set to 1792 to avoid numerical noise.
 Compensation charge density is not taken into account in XC energy/potential
 pspatm: atomic psp has been read  and splines computed

- pspini: atom type   3  psp file is ../../../Psps_for_tests/ATOMICDATA/Zr.GGA_PBE-JTH.xml
- pspatm: opening atomic psp file    ../../../Psps_for_tests/ATOMICDATA/Zr.GGA_PBE-JTH.xml
- pspatm : Reading pseudopotential header in XML form from ../../../Psps_for_tests/ATOMICDATA/Zr.GGA_PBE-JTH.xml
 Pseudopotential format is: paw10
 basis_size (lnmax)=  6 (lmn_size= 18), orbitals=   0   0   1   1   2   2
 Spheres core radius: rc_sph= 2.21000000
 1 radial meshes are used:
  - mesh 1: r(i)=AA*[exp(BB*(i-1))-1], size= 941 , AA= 0.35256E-03 BB= 0.14102E-01
 Shapefunction is BESSEL type: shapef(r,l)=aa(1,l)*jl(q(1,l)*r)+aa(2,l)*jl(q(2,l)*r)
 Radius for shape functions =  2.21000000
 mmax=  941
 Radial grid used for partial waves is grid 1
 Radial grid used for projectors is grid 1
 Radial grid used for (t)core density is grid 1
 Radial grid used for Vloc is grid 1
 Radial grid used for pseudo valence density is grid 1
 Mesh size for Vloc has been set to  777 to avoid numerical noise.
 Compensation charge density is not taken into account in XC energy/potential
 pspatm: atomic psp has been read  and splines computed

--------------------------------------------------------------------------------

_setup2: Arith. and geom. avg. npw (full set) are    6480.090    6480.075

================================================================================

--- !BeginCycle
iteration_state: {dtset: 2, }
solver: {iscf: 17, nstep: 2500, nline: 4, wfoptalg: 10, }
tolerances: {toldfe: 1.00E-08, }
...

     iter   Etot(hartree)      deltaE(h)  residm     nres2
 ETOT  1  -158.48227155666    -1.585E+02 2.802E-01 1.652E+01
 ETOT  2  -158.76661029524    -2.843E-01 1.542E-02 5.360E+00
 ETOT  3  -158.76129845301     5.312E-03 3.010E-03 1.103E+00
 ETOT  4  -158.76215679838    -8.583E-04 1.992E-03 1.318E-01
 ETOT  5  -158.76144036837     7.164E-04 1.144E-03 6.584E-03
 ETOT  6  -158.76150554802    -6.518E-05 1.246E-03 1.375E-03
 ETOT  7  -158.76150208061     3.467E-06 8.942E-04 1.718E-04
 ETOT  8  -158.76150261767    -5.371E-07 6.522E-04 1.956E-05
 ETOT  9  -158.76150266295    -4.528E-08 4.564E-04 3.659E-06
 ETOT 10  -158.76150268647    -2.352E-08 1.229E-03 2.623E-07
 ETOT 11  -158.76150268954    -3.076E-09 3.586E-04 3.998E-08
 ETOT 12  -158.76150269010    -5.556E-10 7.383E-04 7.460E-09

 At SCF step   12, etot is converged : 
  for the second time, diff in etot=  5.556E-10 < toldfe=  1.000E-08

 Cartesian components of stress tensor (hartree/bohr^3)
  sigma(1 1)= -2.34543473E-04  sigma(3 2)=  0.00000000E+00
  sigma(2 2)= -2.34543473E-04  sigma(3 1)=  0.00000000E+00
  sigma(3 3)= -2.34543473E-04  sigma(2 1)=  0.00000000E+00


--- !ResultsGS
iteration_state: {dtset: 2, }
comment   : Summary of ground state results
lattice_vectors:
- [  0.0000000,  10.1957459,  10.1957459, ]
- [ 10.1957459,   0.0000000,  10.1957459, ]
- [ 10.1957459,  10.1957459,   0.0000000, ]
lattice_lengths: [  14.41896,   14.41896,   14.41896, ]
lattice_angles: [ 60.000,  60.000,  60.000, ] # degrees, (23, 13, 12)
lattice_volume:   2.1197615E+03
convergence: {deltae: -5.556E-10, res2:  7.460E-09, residm:  7.383E-04, diffor: null, }
etotal    :  -1.58761503E+02
entropy   :   0.00000000E+00
fermie    :  -6.77762638E-02
cartesian_stress_tensor: # hartree/bohr^3
- [ -2.34543473E-04,   0.00000000E+00,   0.00000000E+00, ]
- [  0.00000000E+00,  -2.34543473E-04,   0.00000000E+00, ]
- [  0.00000000E+00,   0.00000000E+00,  -2.34543473E-04, ]
pressure_GPa:   6.9005E+00
xred      :
- [  2.5000E-01,   2.5000E-01,   2.5000E-01, Cs]
- [  7.5000E-01,   7.5000E-01,   7.5000E-01, Cs]
- [  2.5858E-01,   2.5858E-01,   7.4142E-01,  I]
- [  7.4142E-01,   7.4142E-01,   2.5858E-01,  I]
- [  2.5858E-01,   7.4142E-01,   7.4142E-01,  I]
- [  7.4142E-01,   2.5858E-01,   7.4142E-01,  I]
- [  2.5858E-01,   7.4142E-01,   2.5858E-01,  I]
- [  7.4142E-01,   2.5858E-01,   2.5858E-01,  I]
- [  1.2900E-19,   4.0620E-21,  -1.7639E-19, Zr]
cartesian_forces: # hartree/bohr
- [ -7.52918146E-22,   5.25967954E-23,  -3.76459094E-22, ]
- [ -7.52918174E-22,   5.25968036E-23,  -3.76459083E-22, ]
- [  1.43997457E-21,  -2.14029594E-21,   3.53687328E-05, ]
- [ -2.94581092E-21,   2.24548955E-21,  -3.53687328E-05, ]
- [ -3.53687328E-05,  -2.86216374E-21,   2.53830145E-21, ]
- [ -6.06595377E-21,  -3.53687328E-05,   4.93657650E-21, ]
- [  4.56011742E-21,   3.53687328E-05,  -5.68949468E-21, ]
- [  3.53687328E-05,  -4.20774442E-22,   9.69121597E-23, ]
- [ -7.52918175E-22,   5.25968053E-23,  -3.76459088E-22, ]
force_length_stats: {min:   8.43429669E-22, max:   3.53687328E-05, mean:   2.35791552E-05, }
...

 Integrated electronic density in atomic spheres:
 ------------------------------------------------
 Atom  Sphere_radius  Integrated_density
    1        2.20660          5.38114694
    2        2.20660          5.38114694
    3        2.30022          4.05190359
    4        2.30022          4.05190359
    5        2.30022          4.05190359
    6        2.30022          4.05190359
    7        2.30022          4.05190359
    8        2.30022          4.05190359
    9        2.21000          8.92094225

 PAW TEST:
 ==== Compensation charge inside spheres ============
 The following values must be close to each other ...
 Compensation charge over spherical meshes =     -5.213907912793779
 Compensation charge over fine fft grid    =     -5.213903919311702

 ==== Results concerning PAW augmentation regions ====

 Total pseudopotential strength Dij (hartree):
 Atom #  1
   0.43579  -0.14433   0.00000   0.00000   0.00000   0.00000   0.00000   0.00000   0.00000   0.00000   0.00000   0.00000 ...
  -0.14433   0.04346   0.00000   0.00000   0.00000   0.00000   0.00000   0.00000   0.00000   0.00000   0.00000   0.00000 ...
   0.00000   0.00000  -0.09299   0.00000   0.00000  -0.16695   0.00000   0.00000   0.00000   0.00000   0.00000  -0.00000 ...
   0.00000   0.00000   0.00000  -0.09299   0.00000   0.00000  -0.16695   0.00000  -0.00000   0.00000   0.00000   0.00000 ...
   0.00000   0.00000   0.00000   0.00000  -0.09299   0.00000   0.00000  -0.16695   0.00000  -0.00000   0.00000   0.00000 ...
   0.00000   0.00000  -0.16695   0.00000   0.00000   0.40274   0.00000   0.00000   0.00000   0.00000   0.00000  -0.00000 ...
   0.00000   0.00000   0.00000  -0.16695   0.00000   0.00000   0.40274   0.00000  -0.00000   0.00000   0.00000   0.00000 ...
   0.00000   0.00000   0.00000   0.00000  -0.16695   0.00000   0.00000   0.40274   0.00000  -0.00000   0.00000   0.00000 ...
   0.00000   0.00000   0.00000  -0.00000   0.00000   0.00000  -0.00000   0.00000   0.00531   0.00000   0.00000   0.00000 ...
   0.00000   0.00000   0.00000   0.00000  -0.00000   0.00000   0.00000  -0.00000   0.00000   0.00531   0.00000   0.00000 ...
   0.00000   0.00000   0.00000   0.00000   0.00000   0.00000   0.00000   0.00000   0.00000   0.00000   0.00531   0.00000 ...
   0.00000   0.00000  -0.00000   0.00000   0.00000  -0.00000   0.00000   0.00000   0.00000   0.00000   0.00000   0.00531 ...
   ...  only 12  components have been written...
 Atom #  9
   3.07284  -0.89497   0.00000   0.00000   0.00000   0.00000   0.00000   0.00000   0.00000   0.00000   0.00000   0.00000 ...
  -0.89497   0.26744   0.00000   0.00000   0.00000   0.00000   0.00000   0.00000   0.00000   0.00000   0.00000   0.00000 ...
   0.00000   0.00000   0.26869   0.00000   0.00000  -0.05469   0.00000   0.00000   0.00000   0.00000   0.00000   0.00000 ...
   0.00000   0.00000   0.00000   0.26869   0.00000   0.00000  -0.05469   0.00000   0.00000   0.00000   0.00000   0.00000 ...
   0.00000   0.00000   0.00000   0.00000   0.26869   0.00000   0.00000  -0.05469   0.00000   0.00000   0.00000   0.00000 ...
   0.00000   0.00000  -0.05469   0.00000   0.00000   0.01500   0.00000   0.00000   0.00000   0.00000   0.00000   0.00000 ...
   0.00000   0.00000   0.00000  -0.05469   0.00000   0.00000   0.01500   0.00000   0.00000   0.00000   0.00000   0.00000 ...
   0.00000   0.00000   0.00000   0.00000  -0.05469   0.00000   0.00000   0.01500   0.00000   0.00000   0.00000   0.00000 ...
   0.00000   0.00000   0.00000   0.00000   0.00000   0.00000   0.00000   0.00000  -0.01403   0.00000   0.00000   0.00000 ...
   0.00000   0.00000   0.00000   0.00000   0.00000   0.00000   0.00000   0.00000   0.00000  -0.01403   0.00000   0.00000 ...
   0.00000   0.00000   0.00000   0.00000   0.00000   0.00000   0.00000   0.00000   0.00000   0.00000  -0.01397   0.00000 ...
   0.00000   0.00000   0.00000   0.00000   0.00000   0.00000   0.00000   0.00000   0.00000   0.00000   0.00000  -0.01403 ...
   ...  only 12  components have been written...


 Augmentation waves occupancies Rhoij:
 Atom #  1
   1.99883  -0.01158   0.00000   0.00000   0.00000   0.00000   0.00000   0.00000   0.00000   0.00000   0.00000   0.00000 ...
  -0.01158   0.24116   0.00000   0.00000   0.00000   0.00000   0.00000   0.00000   0.00000   0.00000   0.00000   0.00000 ...
   0.00000   0.00000   2.00585   0.00000   0.00000  -0.00482   0.00000   0.00000   0.00000   0.00000   0.00000  -0.00185 ...
   0.00000   0.00000   0.00000   2.00585   0.00000   0.00000  -0.00482   0.00000  -0.00185   0.00000   0.00000   0.00000 ...
   0.00000   0.00000   0.00000   0.00000   2.00585   0.00000   0.00000  -0.00482   0.00000  -0.00185   0.00000   0.00000 ...
   0.00000   0.00000  -0.00482   0.00000   0.00000   0.00019   0.00000   0.00000   0.00000   0.00000   0.00000   0.00012 ...
   0.00000   0.00000   0.00000  -0.00482   0.00000   0.00000   0.00019   0.00000   0.00012   0.00000   0.00000   0.00000 ...
   0.00000   0.00000   0.00000   0.00000  -0.00482   0.00000   0.00000   0.00019   0.00000   0.00012   0.00000   0.00000 ...
   0.00000   0.00000   0.00000  -0.00185   0.00000   0.00000   0.00012   0.00000   0.09539   0.00000   0.00000   0.00000 ...
   0.00000   0.00000   0.00000   0.00000  -0.00185   0.00000   0.00000   0.00012   0.00000   0.09539   0.00000   0.00000 ...
   0.00000   0.00000   0.00000   0.00000   0.00000   0.00000   0.00000   0.00000   0.00000   0.00000   0.06692   0.00000 ...
   0.00000   0.00000  -0.00185   0.00000   0.00000   0.00012   0.00000   0.00000   0.00000   0.00000   0.00000   0.09539 ...
   ...  only 12  components have been written...
 Atom #  9
   1.99509  -0.05412   0.00000   0.00000   0.00000   0.00000   0.00000   0.00000   0.00000   0.00000   0.00000   0.00000 ...
  -0.05412   1.08136   0.00000   0.00000   0.00000   0.00000   0.00000   0.00000   0.00000   0.00000   0.00000   0.00000 ...
   0.00000   0.00000   1.97421   0.00000   0.00000  -0.15487   0.00000   0.00000   0.00000   0.00000   0.00000   0.00000 ...
   0.00000   0.00000   0.00000   1.97421   0.00000   0.00000  -0.15487   0.00000   0.00000   0.00000   0.00000   0.00000 ...
   0.00000   0.00000   0.00000   0.00000   1.97421   0.00000   0.00000  -0.15487   0.00000   0.00000   0.00000   0.00000 ...
   0.00000   0.00000  -0.15487   0.00000   0.00000   1.65698   0.00000   0.00000   0.00000   0.00000   0.00000   0.00000 ...
   0.00000   0.00000   0.00000  -0.15487   0.00000   0.00000   1.65698   0.00000   0.00000   0.00000   0.00000   0.00000 ...
   0.00000   0.00000   0.00000   0.00000  -0.15487   0.00000   0.00000   1.65698   0.00000   0.00000   0.00000   0.00000 ...
   0.00000   0.00000   0.00000   0.00000   0.00000   0.00000   0.00000   0.00000   0.54282   0.00000   0.00000   0.00000 ...
   0.00000   0.00000   0.00000   0.00000   0.00000   0.00000   0.00000   0.00000   0.00000   0.54282   0.00000   0.00000 ...
   0.00000   0.00000   0.00000   0.00000   0.00000   0.00000   0.00000   0.00000   0.00000   0.00000   1.49488   0.00000 ...
[...]
                       5.3713235768E+00  2.7837511969E+00  5.3713235768E+00
                       2.7837511969E+00  5.3713235768E+00  5.3713235768E+00
                      -7.5165459009E-19 -5.0723734749E-20  5.5825939641E-19
           xangst7     2.6826576925E+00  2.6826576925E+00  2.6826576925E+00
                       8.0479730774E+00  8.0479730774E+00  8.0479730774E+00
                       5.3653153849E+00  5.3653153849E+00  2.7821041496E+00
                       5.3653153849E+00  5.3653153849E+00  7.9485266202E+00
                       7.9485266202E+00  5.3653153849E+00  5.3653153849E+00
                       5.3653153849E+00  7.9485266202E+00  5.3653153849E+00
                       5.3653153849E+00  2.7821041496E+00  5.3653153849E+00
                       2.7821041496E+00  5.3653153849E+00  5.3653153849E+00
                      -6.2145877893E-19  1.1313109153E-19  4.4376528608E-19
           xangst8     2.6796535965E+00  2.6796535965E+00  2.6796535965E+00
                       8.0389607895E+00  8.0389607895E+00  8.0389607895E+00
                       5.3593071930E+00  5.3593071930E+00  2.7804227729E+00
                       5.3593071930E+00  5.3593071930E+00  7.9381916130E+00
                       7.9381916130E+00  5.3593071930E+00  5.3593071930E+00
                       5.3593071930E+00  7.9381916130E+00  5.3593071930E+00
                       5.3593071930E+00  2.7804227729E+00  5.3593071930E+00
                       2.7804227729E+00  5.3593071930E+00  5.3593071930E+00
                      -6.9765310031E-19 -8.6110232183E-20  4.7354790291E-19
           xangst9     2.6766495005E+00  2.6766495005E+00  2.6766495005E+00
                       8.0299485016E+00  8.0299485016E+00  8.0299485016E+00
                       5.3532990011E+00  5.3532990011E+00  2.7787344616E+00
                       5.3532990011E+00  5.3532990011E+00  7.9278635405E+00
                       7.9278635405E+00  5.3532990011E+00  5.3532990011E+00
                       5.3532990011E+00  7.9278635405E+00  5.3532990011E+00
                       5.3532990011E+00  2.7787344616E+00  5.3532990011E+00
                       2.7787344616E+00  5.3532990011E+00  5.3532990011E+00
                      -7.3180991619E-19 -5.9858709565E-20  5.2160558806E-19
            xcart1     5.1035498589E+00  5.1035498589E+00  5.1035498589E+00
                       1.5310649577E+01  1.5310649577E+01  1.5310649577E+01
                       1.0207099718E+01  1.0207099718E+01  5.2758318962E+00
                       1.0207099718E+01  1.0207099718E+01  1.5138367539E+01
                       1.5138367539E+01  1.0207099718E+01  1.0207099718E+01
                       1.0207099718E+01  1.5138367539E+01  1.0207099718E+01
                       1.0207099718E+01  5.2758318962E+00  1.0207099718E+01
                       5.2758318962E+00  1.0207099718E+01  1.0207099718E+01
                      -1.3525996951E-18 -1.4392230514E-19  9.8260250896E-19
            xcart2     5.0978729402E+00  5.0978729402E+00  5.0978729402E+00
                       1.5293618821E+01  1.5293618821E+01  1.5293618821E+01
                       1.0195745880E+01  1.0195745880E+01  5.2728299526E+00
                       1.0195745880E+01  1.0195745880E+01  1.5118661808E+01
                       1.5118661808E+01  1.0195745880E+01  1.0195745880E+01
                       1.0195745880E+01  1.5118661808E+01  1.0195745880E+01
                       1.0195745880E+01  5.2728299526E+00  1.0195745880E+01
                       5.2728299526E+00  1.0195745880E+01  1.0195745880E+01
                      -1.7570086830E-18 -4.8320572789E-19  1.3566326993E-18
            xcart3     5.0921960216E+00  5.0921960216E+00  5.0921960216E+00
                       1.5276588065E+01  1.5276588065E+01  1.5276588065E+01
                       1.0184392043E+01  1.0184392043E+01  5.2697879093E+00
                       1.0184392043E+01  1.0184392043E+01  1.5098996177E+01
                       1.5098996177E+01  1.0184392043E+01  1.0184392043E+01
                       1.0184392043E+01  1.5098996177E+01  1.0184392043E+01
                       1.0184392043E+01  5.2697879093E+00  1.0184392043E+01
                       5.2697879093E+00  1.0184392043E+01  1.0184392043E+01
                      -1.4006231070E-18  6.1464121654E-19  1.1953021240E-18
            xcart4     5.0865191029E+00  5.0865191029E+00  5.0865191029E+00
                       1.5259557309E+01  1.5259557309E+01  1.5259557309E+01
                       1.0173038206E+01  1.0173038206E+01  5.2667524161E+00
                       1.0173038206E+01  1.0173038206E+01  1.5079323996E+01
                       1.5079323996E+01  1.0173038206E+01  1.0173038206E+01
                       1.0173038206E+01  1.5079323996E+01  1.0173038206E+01
                       1.0173038206E+01  5.2667524161E+00  1.0173038206E+01
                       5.2667524161E+00  1.0173038206E+01  1.0173038206E+01
                      -1.5920285175E-18  3.1056669757E-20  5.7215529018E-19
            xcart5     5.0808421843E+00  5.0808421843E+00  5.0808421843E+00
                       1.5242526553E+01  1.5242526553E+01  1.5242526553E+01
                       1.0161684369E+01  1.0161684369E+01  5.2636645867E+00
                       1.0161684369E+01  1.0161684369E+01  1.5059704151E+01
                       1.5059704151E+01  1.0161684369E+01  1.0161684369E+01
                       1.0161684369E+01  1.5059704151E+01  1.0161684369E+01
                       1.0161684369E+01  5.2636645867E+00  1.0161684369E+01
                       5.2636645867E+00  1.0161684369E+01  1.0161684369E+01
                      -1.1682878736E-18  1.9282214414E-19  5.9289688057E-19
            xcart6     5.0751652657E+00  5.0751652657E+00  5.0751652657E+00
                       1.5225495797E+01  1.5225495797E+01  1.5225495797E+01
                       1.0150330531E+01  1.0150330531E+01  5.2605273842E+00
                       1.0150330531E+01  1.0150330531E+01  1.5040133678E+01
                       1.5040133678E+01  1.0150330531E+01  1.0150330531E+01
                       1.0150330531E+01  1.5040133678E+01  1.0150330531E+01
                       1.0150330531E+01  5.2605273842E+00  1.0150330531E+01
                       5.2605273842E+00  1.0150330531E+01  1.0150330531E+01
                      -1.4204213218E-18 -9.5853967112E-20  1.0549573703E-18
            xcart7     5.0694883470E+00  5.0694883470E+00  5.0694883470E+00
                       1.5208465041E+01  1.5208465041E+01  1.5208465041E+01
                       1.0138976694E+01  1.0138976694E+01  5.2574149160E+00
                       1.0138976694E+01  1.0138976694E+01  1.5020538472E+01
                       1.5020538472E+01  1.0138976694E+01  1.0138976694E+01
                       1.0138976694E+01  1.5020538472E+01  1.0138976694E+01
                       1.0138976694E+01  5.2574149160E+00  1.0138976694E+01
                       5.2574149160E+00  1.0138976694E+01  1.0138976694E+01
                      -1.1743868951E-18  2.1378678010E-19  8.3859485797E-19
            xcart8     5.0638114284E+00  5.0638114284E+00  5.0638114284E+00
                       1.5191434285E+01  1.5191434285E+01  1.5191434285E+01
                       1.0127622857E+01  1.0127622857E+01  5.2542375745E+00
                       1.0127622857E+01  1.0127622857E+01  1.5001008139E+01
                       1.5001008139E+01  1.0127622857E+01  1.0127622857E+01
                       1.0127622857E+01  1.5001008139E+01  1.0127622857E+01
                       1.0127622857E+01  5.2542375745E+00  1.0127622857E+01
                       5.2542375745E+00  1.0127622857E+01  1.0127622857E+01
                      -1.3183732953E-18 -1.6272475606E-19  8.9487584730E-19
            xcart9     5.0581345097E+00  5.0581345097E+00  5.0581345097E+00
                       1.5174403529E+01  1.5174403529E+01  1.5174403529E+01
                       1.0116269019E+01  1.0116269019E+01  5.2510471285E+00
                       1.0116269019E+01  1.0116269019E+01  1.4981490910E+01
                       1.4981490910E+01  1.0116269019E+01  1.0116269019E+01
                       1.0116269019E+01  1.4981490910E+01  1.0116269019E+01
                       1.0116269019E+01  5.2510471285E+00  1.0116269019E+01
                       5.2510471285E+00  1.0116269019E+01  1.0116269019E+01
                      -1.3829203229E-18 -1.1311656775E-19  9.8569171082E-19
             xred1     2.5000000000E-01  2.5000000000E-01  2.5000000000E-01
                       7.5000000000E-01  7.5000000000E-01  7.5000000000E-01
                       2.5843932371E-01  2.5843932371E-01  7.4156067629E-01
                       7.4156067629E-01  7.4156067629E-01  2.5843932371E-01
                       2.5843932371E-01  7.4156067629E-01  7.4156067629E-01
                       7.4156067629E-01  2.5843932371E-01  7.4156067629E-01
                       2.5843932371E-01  7.4156067629E-01  2.5843932371E-01
                       7.4156067629E-01  2.5843932371E-01  2.5843932371E-01
                       1.0734096656E-19 -1.1074393671E-20 -1.2144118201E-19
             xred2     2.5000000000E-01  2.5000000000E-01  2.5000000000E-01
                       7.5000000000E-01  7.5000000000E-01  7.5000000000E-01
                       2.5857990256E-01  2.5857990256E-01  7.4142009744E-01
                       7.4142009744E-01  7.4142009744E-01  2.5857990256E-01
                       2.5857990256E-01  7.4142009744E-01  7.4142009744E-01
                       7.4142009744E-01  2.5857990256E-01  7.4142009744E-01
                       2.5857990256E-01  7.4142009744E-01  2.5857990256E-01
                       7.4142009744E-01  2.5857990256E-01  2.5857990256E-01
                       1.2899672497E-19  4.0619757085E-21 -1.7638960172E-19
             xred3     2.5000000000E-01  2.5000000000E-01  2.5000000000E-01
                       7.5000000000E-01  7.5000000000E-01  7.5000000000E-01
                       2.5871882617E-01  2.5871882617E-01  7.4128117383E-01
                       7.4128117383E-01  7.4128117383E-01  2.5871882617E-01
                       2.5871882617E-01  7.4128117383E-01  7.4128117383E-01
                       7.4128117383E-01  2.5871882617E-01  7.4128117383E-01
                       2.5871882617E-01  7.4128117383E-01  2.5871882617E-01
                       7.4128117383E-01  2.5871882617E-01  2.5871882617E-01
                       1.5762189996E-19 -4.0255824604E-20 -9.7270608107E-20
             xred4     2.5000000000E-01  2.5000000000E-01  2.5000000000E-01
                       7.5000000000E-01  7.5000000000E-01  7.5000000000E-01
                       2.5885838181E-01  2.5885838181E-01  7.4114161819E-01
                       7.4114161819E-01  7.4114161819E-01  2.5885838181E-01
                       2.5885838181E-01  7.4114161819E-01  7.4114161819E-01
                       7.4114161819E-01  2.5885838181E-01  7.4114161819E-01
                       2.5885838181E-01  7.4114161819E-01  2.5885838181E-01
                       7.4114161819E-01  2.5885838181E-01  2.5885838181E-01
                       1.0789502767E-19 -5.1652705701E-20 -1.0484218651E-19
             xred5     2.5000000000E-01  2.5000000000E-01  2.5000000000E-01
                       7.5000000000E-01  7.5000000000E-01  7.5000000000E-01
                       2.5899567413E-01  2.5899567413E-01  7.4100432587E-01
                       7.4100432587E-01  7.4100432587E-01  2.5899567413E-01
                       2.5899567413E-01  7.4100432587E-01  7.4100432587E-01
                       7.4100432587E-01  2.5899567413E-01  7.4100432587E-01
                       2.5899567413E-01  7.4100432587E-01  2.5899567413E-01
                       7.4100432587E-01  2.5899567413E-01  2.5899567413E-01
                       9.6145817337E-20 -3.7799498059E-20 -7.7170405668E-20
             xred6     2.5000000000E-01  2.5000000000E-01  2.5000000000E-01
                       7.5000000000E-01  7.5000000000E-01  7.5000000000E-01
                       2.5913084150E-01  2.5913084150E-01  7.4086915850E-01
                       7.4086915850E-01  7.4086915850E-01  2.5913084150E-01
                       2.5913084150E-01  7.4086915850E-01  7.4086915850E-01
                       7.4086915850E-01  2.5913084150E-01  7.4086915850E-01
                       2.5913084150E-01  7.4086915850E-01  2.5913084150E-01
                       7.4086915850E-01  2.5913084150E-01  2.5913084150E-01
                       1.1721414971E-19 -1.3280847532E-20 -1.2665758279E-19
             xred7     2.5000000000E-01  2.5000000000E-01  2.5000000000E-01
                       7.5000000000E-01  7.5000000000E-01  7.5000000000E-01
                       2.5926753136E-01  2.5926753136E-01  7.4073246864E-01
                       7.4073246864E-01  7.4073246864E-01  2.5926753136E-01
                       2.5926753136E-01  7.4073246864E-01  7.4073246864E-01
                       7.4073246864E-01  2.5926753136E-01  7.4073246864E-01
                       2.5926753136E-01  7.4073246864E-01  2.5926753136E-01
                       7.4073246864E-01  2.5926753136E-01  2.5926753136E-01
                       1.0981229173E-19 -2.7102282300E-20 -8.8726654929E-20
             xred8     2.5000000000E-01  2.5000000000E-01  2.5000000000E-01
                       7.5000000000E-01  7.5000000000E-01  7.5000000000E-01
                       2.5940132491E-01  2.5940132491E-01  7.4059867509E-01
                       7.4059867509E-01  7.4059867509E-01  2.5940132491E-01
                       2.5940132491E-01  7.4059867509E-01  7.4059867509E-01
                       7.4059867509E-01  2.5940132491E-01  7.4059867509E-01
                       2.5940132491E-01  7.4059867509E-01  2.5940132491E-01
                       7.4059867509E-01  2.5940132491E-01  2.5940132491E-01
                       1.0123423905E-19 -1.2874328738E-20 -1.1730165767E-19
             xred9     2.5000000000E-01  2.5000000000E-01  2.5000000000E-01
                       7.5000000000E-01  7.5000000000E-01  7.5000000000E-01
                       2.5953477109E-01  2.5953477109E-01  7.4046522891E-01
                       7.4046522891E-01  7.4046522891E-01  2.5953477109E-01
                       2.5953477109E-01  7.4046522891E-01  7.4046522891E-01
                       7.4046522891E-01  2.5953477109E-01  7.4046522891E-01
                       2.5953477109E-01  7.4046522891E-01  2.5953477109E-01
                       7.4046522891E-01  2.5953477109E-01  2.5953477109E-01
                       1.1147862229E-19 -1.4042333385E-20 -1.2266027113E-19
            znucl       55.00000   53.00000   40.00000

================================================================================


- Timing analysis has been suppressed with timopt=0



================================================================================

 Suggested references for the acknowledgment of ABINIT usage.

 The users of ABINIT have little formal obligations with respect to the ABINIT group
 (those specified in the GNU General Public License, http://www.gnu.org/copyleft/gpl.txt).
 However, it is common practice in the scientific literature,
 to acknowledge the efforts of people that have made the research possible.
 In this spirit, please find below suggested citations of work written by ABINIT developers,
 corresponding to implementations inside of ABINIT that you have used in the present run.
 Note also that it will be of great value to readers of publications presenting these results,
 to read papers enabling them to understand the theoretical formalism and details
 of the ABINIT implementation.
 For information on why they are suggested, see also https://docs.abinit.org/theory/acknowledgments.
-
- [1] Implementation of the Projector Augmented-Wave Method in the ABINIT code.
- M. Torrent, F. Jollet, F. Bottin, G. Zerah, and X. Gonze Comput. Mat. Science 42, 337, (2008).
- Comment: PAW calculations. Strong suggestion to cite this paper.
- DOI and bibtex: see https://docs.abinit.org/theory/bibliography/#torrent2008
-
- [2] Libxc: A library of exchange and correlation functionals for density functional theory.
- M.A.L. Marques, M.J.T. Oliveira, T. Burnus, Computer Physics Communications 183, 2227 (2012).
- Comment: to be cited when LibXC is used (negative value of ixc)
- Strong suggestion to cite this paper.
- DOI and bibtex: see https://docs.abinit.org/theory/bibliography/#marques2012
-
- [3] The Abinit project: Impact, environment and recent developments.
- Computer Phys. Comm. 248, 107042 (2020).
- X.Gonze, B. Amadon, G. Antonius, F.Arnardi, L.Baguet, J.-M.Beuken,
- J.Bieder, F.Bottin, J.Bouchet, E.Bousquet, N.Brouwer, F.Bruneval,
- G.Brunin, T.Cavignac, J.-B. Charraud, Wei Chen, M.Cote, S.Cottenier,
- J.Denier, G.Geneste, Ph.Ghosez, M.Giantomassi, Y.Gillet, O.Gingras,
- D.R.Hamann, G.Hautier, Xu He, N.Helbig, N.Holzwarth, Y.Jia, F.Jollet,
- W.Lafargue-Dit-Hauret, K.Lejaeghere, M.A.L.Marques, A.Martin, C.Martins,
- H.P.C. Miranda, F.Naccarato, K. Persson, G.Petretto, V.Planes, Y.Pouillon,
- S.Prokhorenko, F.Ricci, G.-M.Rignanese, A.H.Romero, M.M.Schmitt, M.Torrent,
- M.J.van Setten, B.Van Troeye, M.J.Verstraete, G.Zerah and J.W.Zwanzig
- Comment: the fifth generic paper describing the ABINIT project.
- Note that a version of this paper, that is not formatted for Computer Phys. Comm. 
- is available at https://www.abinit.org/sites/default/files/ABINIT20.pdf .
- The licence allows the authors to put it on the Web.
- DOI and bibtex: see https://docs.abinit.org/theory/bibliography/#gonze2020
-
- [4] ABINIT: Overview, and focus on selected capabilities
- J. Chem. Phys. 152, 124102 (2020).
- A. Romero, D.C. Allan, B. Amadon, G. Antonius, T. Applencourt, L.Baguet,
- J.Bieder, F.Bottin, J.Bouchet, E.Bousquet, F.Bruneval,
- G.Brunin, D.Caliste, M.Cote,
- J.Denier, C. Dreyer, Ph.Ghosez, M.Giantomassi, Y.Gillet, O.Gingras,
- D.R.Hamann, G.Hautier, F.Jollet, G. Jomard,
- A.Martin, 
- H.P.C. Miranda, F.Naccarato, G.Petretto, N.A. Pike, V.Planes,
- S.Prokhorenko, T. Rangel, F.Ricci, G.-M.Rignanese, M.Royo, M.Stengel, M.Torrent,
- M.J.van Setten, B.Van Troeye, M.J.Verstraete, J.Wiktor, J.W.Zwanziger, and X.Gonze.
- Comment: a global overview of ABINIT, with focus on selected capabilities .
- Note that a version of this paper, that is not formatted for J. Chem. Phys 
- is available at https://www.abinit.org/sites/default/files/ABINIT20_JPC.pdf .
- The licence allows the authors to put it on the Web.
- DOI and bibtex: see https://docs.abinit.org/theory/bibliography/#romero2020
-
- [5] Recent developments in the ABINIT software package.
- Computer Phys. Comm. 205, 106 (2016).
- X.Gonze, F.Jollet, F.Abreu Araujo, D.Adams, B.Amadon, T.Applencourt,
- C.Audouze, J.-M.Beuken, J.Bieder, A.Bokhanchuk, E.Bousquet, F.Bruneval
- D.Caliste, M.Cote, F.Dahm, F.Da Pieve, M.Delaveau, M.Di Gennaro,
- B.Dorado, C.Espejo, G.Geneste, L.Genovese, A.Gerossier, M.Giantomassi,
- Y.Gillet, D.R.Hamann, L.He, G.Jomard, J.Laflamme Janssen, S.Le Roux,
- A.Levitt, A.Lherbier, F.Liu, I.Lukacevic, A.Martin, C.Martins,
- M.J.T.Oliveira, S.Ponce, Y.Pouillon, T.Rangel, G.-M.Rignanese,
- A.H.Romero, B.Rousseau, O.Rubel, A.A.Shukri, M.Stankovski, M.Torrent,
- M.J.Van Setten, B.Van Troeye, M.J.Verstraete, D.Waroquier, J.Wiktor,
- B.Xu, A.Zhou, J.W.Zwanziger.
- Comment: the fourth generic paper describing the ABINIT project.
- Note that a version of this paper, that is not formatted for Computer Phys. Comm. 
- is available at https://www.abinit.org/sites/default/files/ABINIT16.pdf .
- The licence allows the authors to put it on the Web.
- DOI and bibtex: see https://docs.abinit.org/theory/bibliography/#gonze2016
-
- Proc.   0 individual time (sec): cpu=       5919.6  wall=       5924.3

================================================================================

 Calculation completed.
.Delivered   0 WARNINGs and   8 COMMENTs to log file.
+Overall time at end (sec) : cpu=      35513.2  wall=      35544.9
