
.Version 9.2.2 of ABINIT 
.(MPI version, prepared for a x86_64_linux_gnu9.3 computer) 

.Copyright (C) 1998-2020 ABINIT group . 
 ABINIT comes with ABSOLUTELY NO WARRANTY.
 It is free software, and you are welcome to redistribute it
 under certain conditions (GNU General Public License,
 see ~abinit/COPYING or http://www.gnu.org/copyleft/gpl.txt).

 ABINIT is a project of the Universite Catholique de Louvain,
 Corning Inc. and other collaborators, see ~abinit/doc/developers/contributors.txt .
 Please read https://docs.abinit.org/theory/acknowledgments for suggested
 acknowledgments of the ABINIT effort.
 For more information, see https://www.abinit.org .

.Starting date : Wed  7 Dec 2022.
- ( at 17h16 )
  
- The starting date is more than 2 years after the initial release
- of this version of ABINIT, namely Nov 2020.
- Note that the use beyond 3 years after the release will not be supported.
- Action: please, switch to a more recent version of ABINIT.

- input  file    -> Cs2TiI6.in
- output file    -> Cs2TiI6.out
- root for input  files -> Cs2TiI6i
- root for output files -> Cs2TiI6o

- inpspheads : Reading pseudopotential header in XML form from 
-   ../../../Psps_for_tests/ATOMICDATA/Cs.GGA_PBE-JTH.xml
- inpspheads : Reading pseudopotential header in XML form from 
-   ../../../Psps_for_tests/ATOMICDATA/I.GGA_PBE-JTH.xml
- inpspheads : Reading pseudopotential header in XML form from 
-   ../../../Psps_for_tests/ATOMICDATA/Zr.GGA_PBE-JTH.xml
- inpspheads : Reading pseudopotential header in XML form from 
-   ../../../Psps_for_tests/ATOMICDATA/Cl.GGA_PBE-JTH.xml

 DATASET    1 : space group Im m 2 (# 44); Bravais oI (body-center ortho.)
================================================================================
 Values of the parameters that define the memory need for DATASET  1.
     intxc =       0    ionmov =       0      iscf =      17    lmnmax =      18
     lnmax =       6     mgfft =      60  mpssoang =       3    mqgrid =    3569
     natom =       9  nloc_mem =       2    nspden =       1   nspinor =       1
    nsppol =       1      nsym =       4    n1xccc =       1    ntypat =       4
    occopt =       1   xclevel =       2
-    mband =          42        mffmem =           1         mkmem =          70
       mpw =        7592          nfft =      216000          nkpt =         280
Pmy_natom=         3
 PAW method is used; the additional fine FFT grid is defined by:
   mgfftf=        90    nfftf =    729000
================================================================================
P This job should need less than                     595.102 Mbytes of memory.
  Rough estimation (10% accuracy) of disk space for files :
_ WF disk file :   1362.336 Mbytes ; DEN or POT disk file :      5.564 Mbytes.
================================================================================


 DATASET    2 : space group Im m 2 (# 44); Bravais oI (body-center ortho.)
================================================================================
 Values of the parameters that define the memory need for DATASET  2.
     intxc =       0    ionmov =       0      iscf =      17    lmnmax =      18
     lnmax =       6     mgfft =      60  mpssoang =       3    mqgrid =    3569
     natom =       9  nloc_mem =       2    nspden =       1   nspinor =       1
    nsppol =       1      nsym =       4    n1xccc =       1    ntypat =       4
    occopt =       1   xclevel =       2
-    mband =          42        mffmem =           1         mkmem =          70
       mpw =        7592          nfft =      216000          nkpt =         280
Pmy_natom=         3
 PAW method is used; the additional fine FFT grid is defined by:
   mgfftf=        90    nfftf =    729000
================================================================================
P This job should need less than                     595.102 Mbytes of memory.
  Rough estimation (10% accuracy) of disk space for files :
_ WF disk file :   1362.336 Mbytes ; DEN or POT disk file :      5.564 Mbytes.
================================================================================


 DATASET    3 : space group Im m 2 (# 44); Bravais oI (body-center ortho.)
================================================================================
 Values of the parameters that define the memory need for DATASET  3.
     intxc =       0    ionmov =       0      iscf =      17    lmnmax =      18
     lnmax =       6     mgfft =      60  mpssoang =       3    mqgrid =    3569
     natom =       9  nloc_mem =       2    nspden =       1   nspinor =       1
    nsppol =       1      nsym =       4    n1xccc =       1    ntypat =       4
    occopt =       1   xclevel =       2
-    mband =          42        mffmem =           1         mkmem =          70
       mpw =        7592          nfft =      216000          nkpt =         280
Pmy_natom=         3
 PAW method is used; the additional fine FFT grid is defined by:
   mgfftf=        90    nfftf =    729000
================================================================================
P This job should need less than                     594.639 Mbytes of memory.
  Rough estimation (10% accuracy) of disk space for files :
_ WF disk file :   1362.336 Mbytes ; DEN or POT disk file :      5.564 Mbytes.
================================================================================


 DATASET    4 : space group I4/m m m (#139); Bravais tI (body-center tetrag.)
================================================================================
 Values of the parameters that define the memory need for DATASET  4.
     intxc =       0    ionmov =       0      iscf =      17    lmnmax =      18
     lnmax =       6     mgfft =      60  mpssoang =       3    mqgrid =    3508
     natom =       9  nloc_mem =       2    nspden =       1   nspinor =       1
    nsppol =       1      nsym =      16    n1xccc =       1    ntypat =       4
    occopt =       1   xclevel =       2
-    mband =          42        mffmem =           1         mkmem =          41
       mpw =        7475          nfft =      216000          nkpt =         163
Pmy_natom=         3
 PAW method is used; the additional fine FFT grid is defined by:
   mgfftf=        90    nfftf =    729000
================================================================================
P This job should need less than                     432.871 Mbytes of memory.
  Rough estimation (10% accuracy) of disk space for files :
_ WF disk file :    780.853 Mbytes ; DEN or POT disk file :      5.564 Mbytes.
================================================================================

--------------------------------------------------------------------------------
------------- Echo of variables that govern the present computation ------------
--------------------------------------------------------------------------------
-
- outvars: echo of selected default values                                      
-   iomode0 =  0 , fftalg0 =112 , wfoptalg0 = 10
-
- outvars: echo of global parameters not present in the input file              
-  max_nthreads =    0
-
 -outvars: echo values of preprocessed input variables --------
            acell1     1.5145584566E+01  1.5516755279E+01  1.5145584566E+01 Bohr
            acell2     1.5516754394E+01  1.5145583795E+01  1.5145583795E+01 Bohr
            acell3     1.4993459791E+01  1.5145593006E+01  1.5145593006E+01 Bohr
            acell4     1.5024864712E+01  1.5024864712E+01  1.5227084469E+01 Bohr
              amu      1.32905430E+02  1.26904470E+02  9.12240000E+01
                       3.54527000E+01
           diemac      1.20000000E+01
             ecut      1.60000000E+01 Hartree
-          fftalg         112
           istwfk1       2    0    0    0    0    0    3    0    0    0
                         0    0    0    0    0    0    0    0    0    0
                         0    0    0    0    0    0    0    0    0    0
                         0    0    0    0    0    0    0    0    0    0
                         0    0    0    0    0    0    0    0    0    0
           istwfk2       2    0    0    0    0    0    3    0    0    0
                         0    0    0    0    0    0    0    0    0    0
                         0    0    0    0    0    0    0    0    0    0
                         0    0    0    0    0    0    0    0    0    0
                         0    0    0    0    0    0    0    0    0    0
           istwfk3       2    0    0    0    0    0    3    0    0    0
                         0    0    0    0    0    0    0    0    0    0
                         0    0    0    0    0    0    0    0    0    0
                         0    0    0    0    0    0    0    0    0    0
                         0    0    0    0    0    0    0    0    0    0
           istwfk4       2    0    0    0    0    0    3    0    0    0
                         0    0    0    0    0    0    0    0    0    0
                         0    0    0    0    0    0    0    0    0    0
                         0    0    0    0    0    0    0    0    0    0
                         0    0    7    0    0    0    0    0    0    0
                       outvar_i_n : Printing only first  50 k-points.
              ixc     -101130
           jdtset        1    2    3    4
              kpt1     0.00000000E+00  0.00000000E+00  0.00000000E+00
                       8.33333333E-02  0.00000000E+00  0.00000000E+00
                       1.66666667E-01  0.00000000E+00  0.00000000E+00
                       2.50000000E-01  0.00000000E+00  0.00000000E+00
                       3.33333333E-01  0.00000000E+00  0.00000000E+00
                       4.16666667E-01  0.00000000E+00  0.00000000E+00
                       5.00000000E-01  0.00000000E+00  0.00000000E+00
                       0.00000000E+00  8.33333333E-02  0.00000000E+00
                       8.33333333E-02  8.33333333E-02  0.00000000E+00
                       1.66666667E-01  8.33333333E-02  0.00000000E+00
                       2.50000000E-01  8.33333333E-02  0.00000000E+00
                       3.33333333E-01  8.33333333E-02  0.00000000E+00
                       4.16666667E-01  8.33333333E-02  0.00000000E+00
                       5.00000000E-01  8.33333333E-02  0.00000000E+00
                      -4.16666667E-01  8.33333333E-02  0.00000000E+00
                      -3.33333333E-01  8.33333333E-02  0.00000000E+00
                      -2.50000000E-01  8.33333333E-02  0.00000000E+00
                      -1.66666667E-01  8.33333333E-02  0.00000000E+00
                      -8.33333333E-02  8.33333333E-02  0.00000000E+00
                       0.00000000E+00  1.66666667E-01  0.00000000E+00
                       8.33333333E-02  1.66666667E-01  0.00000000E+00
                       1.66666667E-01  1.66666667E-01  0.00000000E+00
                       2.50000000E-01  1.66666667E-01  0.00000000E+00
                       3.33333333E-01  1.66666667E-01  0.00000000E+00
                       4.16666667E-01  1.66666667E-01  0.00000000E+00
                       5.00000000E-01  1.66666667E-01  0.00000000E+00
                      -4.16666667E-01  1.66666667E-01  0.00000000E+00
                      -3.33333333E-01  1.66666667E-01  0.00000000E+00
                      -2.50000000E-01  1.66666667E-01  0.00000000E+00
                      -1.66666667E-01  1.66666667E-01  0.00000000E+00
                      -8.33333333E-02  1.66666667E-01  0.00000000E+00
                       0.00000000E+00  2.50000000E-01  0.00000000E+00
                       8.33333333E-02  2.50000000E-01  0.00000000E+00
                       1.66666667E-01  2.50000000E-01  0.00000000E+00
                       2.50000000E-01  2.50000000E-01  0.00000000E+00
                       3.33333333E-01  2.50000000E-01  0.00000000E+00
                       4.16666667E-01  2.50000000E-01  0.00000000E+00
                       5.00000000E-01  2.50000000E-01  0.00000000E+00
                      -4.16666667E-01  2.50000000E-01  0.00000000E+00
                      -3.33333333E-01  2.50000000E-01  0.00000000E+00
                      -2.50000000E-01  2.50000000E-01  0.00000000E+00
                      -1.66666667E-01  2.50000000E-01  0.00000000E+00
                      -8.33333333E-02  2.50000000E-01  0.00000000E+00
                       0.00000000E+00  3.33333333E-01  0.00000000E+00
                       8.33333333E-02  3.33333333E-01  0.00000000E+00
                       1.66666667E-01  3.33333333E-01  0.00000000E+00
                       2.50000000E-01  3.33333333E-01  0.00000000E+00
                       3.33333333E-01  3.33333333E-01  0.00000000E+00
                       4.16666667E-01  3.33333333E-01  0.00000000E+00
                       5.00000000E-01  3.33333333E-01  0.00000000E+00
              kpt2     0.00000000E+00  0.00000000E+00  0.00000000E+00
                       8.33333333E-02  0.00000000E+00  0.00000000E+00
                       1.66666667E-01  0.00000000E+00  0.00000000E+00
                       2.50000000E-01  0.00000000E+00  0.00000000E+00
                       3.33333333E-01  0.00000000E+00  0.00000000E+00
                       4.16666667E-01  0.00000000E+00  0.00000000E+00
                       5.00000000E-01  0.00000000E+00  0.00000000E+00
                       0.00000000E+00  8.33333333E-02  0.00000000E+00
                       8.33333333E-02  8.33333333E-02  0.00000000E+00
                       1.66666667E-01  8.33333333E-02  0.00000000E+00
                       2.50000000E-01  8.33333333E-02  0.00000000E+00
                       3.33333333E-01  8.33333333E-02  0.00000000E+00
                       4.16666667E-01  8.33333333E-02  0.00000000E+00
                       5.00000000E-01  8.33333333E-02  0.00000000E+00
                      -4.16666667E-01  8.33333333E-02  0.00000000E+00
                      -3.33333333E-01  8.33333333E-02  0.00000000E+00
                      -2.50000000E-01  8.33333333E-02  0.00000000E+00
                      -1.66666667E-01  8.33333333E-02  0.00000000E+00
                      -8.33333333E-02  8.33333333E-02  0.00000000E+00
                       0.00000000E+00  1.66666667E-01  0.00000000E+00
                       8.33333333E-02  1.66666667E-01  0.00000000E+00
                       1.66666667E-01  1.66666667E-01  0.00000000E+00
                       2.50000000E-01  1.66666667E-01  0.00000000E+00
                       3.33333333E-01  1.66666667E-01  0.00000000E+00
                       4.16666667E-01  1.66666667E-01  0.00000000E+00
                       5.00000000E-01  1.66666667E-01  0.00000000E+00
                      -4.16666667E-01  1.66666667E-01  0.00000000E+00
                      -3.33333333E-01  1.66666667E-01  0.00000000E+00
                      -2.50000000E-01  1.66666667E-01  0.00000000E+00
                      -1.66666667E-01  1.66666667E-01  0.00000000E+00
                      -8.33333333E-02  1.66666667E-01  0.00000000E+00
                       0.00000000E+00  2.50000000E-01  0.00000000E+00
                       8.33333333E-02  2.50000000E-01  0.00000000E+00
                       1.66666667E-01  2.50000000E-01  0.00000000E+00
                       2.50000000E-01  2.50000000E-01  0.00000000E+00
                       3.33333333E-01  2.50000000E-01  0.00000000E+00
                       4.16666667E-01  2.50000000E-01  0.00000000E+00
                       5.00000000E-01  2.50000000E-01  0.00000000E+00
                      -4.16666667E-01  2.50000000E-01  0.00000000E+00
                      -3.33333333E-01  2.50000000E-01  0.00000000E+00
                      -2.50000000E-01  2.50000000E-01  0.00000000E+00
                      -1.66666667E-01  2.50000000E-01  0.00000000E+00
                      -8.33333333E-02  2.50000000E-01  0.00000000E+00
                       0.00000000E+00  3.33333333E-01  0.00000000E+00
                       8.33333333E-02  3.33333333E-01  0.00000000E+00
                       1.66666667E-01  3.33333333E-01  0.00000000E+00
                       2.50000000E-01  3.33333333E-01  0.00000000E+00
                       3.33333333E-01  3.33333333E-01  0.00000000E+00
                       4.16666667E-01  3.33333333E-01  0.00000000E+00
                       5.00000000E-01  3.33333333E-01  0.00000000E+00
              kpt3     0.00000000E+00  0.00000000E+00  0.00000000E+00
                       8.33333333E-02  0.00000000E+00  0.00000000E+00
                       1.66666667E-01  0.00000000E+00  0.00000000E+00
                       2.50000000E-01  0.00000000E+00  0.00000000E+00
                       3.33333333E-01  0.00000000E+00  0.00000000E+00
                       4.16666667E-01  0.00000000E+00  0.00000000E+00
                       5.00000000E-01  0.00000000E+00  0.00000000E+00
                       0.00000000E+00  8.33333333E-02  0.00000000E+00
                       8.33333333E-02  8.33333333E-02  0.00000000E+00
                       1.66666667E-01  8.33333333E-02  0.00000000E+00
                       2.50000000E-01  8.33333333E-02  0.00000000E+00
                       3.33333333E-01  8.33333333E-02  0.00000000E+00
                       4.16666667E-01  8.33333333E-02  0.00000000E+00
                       5.00000000E-01  8.33333333E-02  0.00000000E+00
                      -4.16666667E-01  8.33333333E-02  0.00000000E+00
                      -3.33333333E-01  8.33333333E-02  0.00000000E+00
                      -2.50000000E-01  8.33333333E-02  0.00000000E+00
                      -1.66666667E-01  8.33333333E-02  0.00000000E+00
                      -8.33333333E-02  8.33333333E-02  0.00000000E+00
                       0.00000000E+00  1.66666667E-01  0.00000000E+00
                       8.33333333E-02  1.66666667E-01  0.00000000E+00
                       1.66666667E-01  1.66666667E-01  0.00000000E+00
                       2.50000000E-01  1.66666667E-01  0.00000000E+00
                       3.33333333E-01  1.66666667E-01  0.00000000E+00
                       4.16666667E-01  1.66666667E-01  0.00000000E+00
                       5.00000000E-01  1.66666667E-01  0.00000000E+00
                      -4.16666667E-01  1.66666667E-01  0.00000000E+00
                      -3.33333333E-01  1.66666667E-01  0.00000000E+00
                      -2.50000000E-01  1.66666667E-01  0.00000000E+00
                      -1.66666667E-01  1.66666667E-01  0.00000000E+00
                      -8.33333333E-02  1.66666667E-01  0.00000000E+00
                       0.00000000E+00  2.50000000E-01  0.00000000E+00
                       8.33333333E-02  2.50000000E-01  0.00000000E+00
                       1.66666667E-01  2.50000000E-01  0.00000000E+00
                       2.50000000E-01  2.50000000E-01  0.00000000E+00
                       3.33333333E-01  2.50000000E-01  0.00000000E+00
                       4.16666667E-01  2.50000000E-01  0.00000000E+00
                       5.00000000E-01  2.50000000E-01  0.00000000E+00
                      -4.16666667E-01  2.50000000E-01  0.00000000E+00
                      -3.33333333E-01  2.50000000E-01  0.00000000E+00
                      -2.50000000E-01  2.50000000E-01  0.00000000E+00
                      -1.66666667E-01  2.50000000E-01  0.00000000E+00
                      -8.33333333E-02  2.50000000E-01  0.00000000E+00
                       0.00000000E+00  3.33333333E-01  0.00000000E+00
                       8.33333333E-02  3.33333333E-01  0.00000000E+00
                       1.66666667E-01  3.33333333E-01  0.00000000E+00
                       2.50000000E-01  3.33333333E-01  0.00000000E+00
                       3.33333333E-01  3.33333333E-01  0.00000000E+00
                       4.16666667E-01  3.33333333E-01  0.00000000E+00
                       5.00000000E-01  3.33333333E-01  0.00000000E+00
              kpt4     0.00000000E+00  0.00000000E+00  0.00000000E+00
                       8.33333333E-02  0.00000000E+00  0.00000000E+00
                       1.66666667E-01  0.00000000E+00  0.00000000E+00
                       2.50000000E-01  0.00000000E+00  0.00000000E+00
                       3.33333333E-01  0.00000000E+00  0.00000000E+00
                       4.16666667E-01  0.00000000E+00  0.00000000E+00
                       5.00000000E-01  0.00000000E+00  0.00000000E+00
                       8.33333333E-02  8.33333333E-02  0.00000000E+00
                       1.66666667E-01  8.33333333E-02  0.00000000E+00
                       2.50000000E-01  8.33333333E-02  0.00000000E+00
                       3.33333333E-01  8.33333333E-02  0.00000000E+00
                       4.16666667E-01  8.33333333E-02  0.00000000E+00
                       5.00000000E-01  8.33333333E-02  0.00000000E+00
                      -4.16666667E-01  8.33333333E-02  0.00000000E+00
                      -3.33333333E-01  8.33333333E-02  0.00000000E+00
                      -2.50000000E-01  8.33333333E-02  0.00000000E+00
                      -1.66666667E-01  8.33333333E-02  0.00000000E+00
                      -8.33333333E-02  8.33333333E-02  0.00000000E+00
                       1.66666667E-01  1.66666667E-01  0.00000000E+00
                       2.50000000E-01  1.66666667E-01  0.00000000E+00
                       3.33333333E-01  1.66666667E-01  0.00000000E+00
                       4.16666667E-01  1.66666667E-01  0.00000000E+00
                       5.00000000E-01  1.66666667E-01  0.00000000E+00
                      -4.16666667E-01  1.66666667E-01  0.00000000E+00
                      -3.33333333E-01  1.66666667E-01  0.00000000E+00
                      -2.50000000E-01  1.66666667E-01  0.00000000E+00
                      -1.66666667E-01  1.66666667E-01  0.00000000E+00
                       2.50000000E-01  2.50000000E-01  0.00000000E+00
                       3.33333333E-01  2.50000000E-01  0.00000000E+00
                       4.16666667E-01  2.50000000E-01  0.00000000E+00
                       5.00000000E-01  2.50000000E-01  0.00000000E+00
                      -4.16666667E-01  2.50000000E-01  0.00000000E+00
                      -3.33333333E-01  2.50000000E-01  0.00000000E+00
                      -2.50000000E-01  2.50000000E-01  0.00000000E+00
                       3.33333333E-01  3.33333333E-01  0.00000000E+00
                       4.16666667E-01  3.33333333E-01  0.00000000E+00
                       5.00000000E-01  3.33333333E-01  0.00000000E+00
                      -4.16666667E-01  3.33333333E-01  0.00000000E+00
                      -3.33333333E-01  3.33333333E-01  0.00000000E+00
                       4.16666667E-01  4.16666667E-01  0.00000000E+00
                       5.00000000E-01  4.16666667E-01  0.00000000E+00
                      -4.16666667E-01  4.16666667E-01  0.00000000E+00
                       5.00000000E-01  5.00000000E-01  0.00000000E+00
                       8.33333333E-02  0.00000000E+00  8.33333333E-02
                       1.66666667E-01  0.00000000E+00  8.33333333E-02
                       2.50000000E-01  0.00000000E+00  8.33333333E-02
                       3.33333333E-01  0.00000000E+00  8.33333333E-02
                       4.16666667E-01  0.00000000E+00  8.33333333E-02
                       5.00000000E-01  0.00000000E+00  8.33333333E-02
                      -4.16666667E-01  0.00000000E+00  8.33333333E-02
                       outvar_i_n : Printing only first  50 k-points.
         kptrlatt       12    0    0      0   12    0      0    0   12
          kptrlen1     1.79921694E+02
          kptrlen2     1.79921696E+02
          kptrlen3     1.79921517E+02
          kptrlen4     1.80298377E+02
P           mkmem1         70
P           mkmem2         70
P           mkmem3         70
P           mkmem4         41
            natom           9
            nband1         42
            nband2         42
            nband3         42
            nband4         42
           ndtset           4
            ngfft          60      60      60
          ngfftdg          90      90      90
             nkpt1        280
             nkpt2        280
             nkpt3        280
             nkpt4        163
            nstep        2500
             nsym1          4
             nsym2          4
             nsym3          4
             nsym4         16
           ntypat           4
              occ1     2.000000  2.000000  2.000000  2.000000  2.000000  2.000000
                       2.000000  2.000000  2.000000  2.000000  2.000000  2.000000
                       2.000000  2.000000  2.000000  2.000000  2.000000  2.000000
                       2.000000  2.000000  2.000000  2.000000  2.000000  2.000000
                       2.000000  2.000000  2.000000  2.000000  2.000000  2.000000
                       2.000000  2.000000  2.000000  2.000000  2.000000  2.000000
                       0.000000  0.000000  0.000000  0.000000  0.000000  0.000000
              occ2     2.000000  2.000000  2.000000  2.000000  2.000000  2.000000
                       2.000000  2.000000  2.000000  2.000000  2.000000  2.000000
                       2.000000  2.000000  2.000000  2.000000  2.000000  2.000000
                       2.000000  2.000000  2.000000  2.000000  2.000000  2.000000
                       2.000000  2.000000  2.000000  2.000000  2.000000  2.000000
                       2.000000  2.000000  2.000000  2.000000  2.000000  2.000000
                       0.000000  0.000000  0.000000  0.000000  0.000000  0.000000
              occ3     2.000000  2.000000  2.000000  2.000000  2.000000  2.000000
                       2.000000  2.000000  2.000000  2.000000  2.000000  2.000000
                       2.000000  2.000000  2.000000  2.000000  2.000000  2.000000
                       2.000000  2.000000  2.000000  2.000000  2.000000  2.000000
                       2.000000  2.000000  2.000000  2.000000  2.000000  2.000000
                       2.000000  2.000000  2.000000  2.000000  2.000000  2.000000
                       0.000000  0.000000  0.000000  0.000000  0.000000  0.000000
              occ4     2.000000  2.000000  2.000000  2.000000  2.000000  2.000000
                       2.000000  2.000000  2.000000  2.000000  2.000000  2.000000
                       2.000000  2.000000  2.000000  2.000000  2.000000  2.000000
                       2.000000  2.000000  2.000000  2.000000  2.000000  2.000000
                       2.000000  2.000000  2.000000  2.000000  2.000000  2.000000
                       2.000000  2.000000  2.000000  2.000000  2.000000  2.000000
                       0.000000  0.000000  0.000000  0.000000  0.000000  0.000000
        pawecutdg      4.00000000E+01 Hartree
            prtwf           0
            rprim1     1.2215289848E-02  7.0184956085E-01  7.1222045788E-01
                       7.0710678119E-01  0.0000000000E+00  7.0710678119E-01
                       7.1222045788E-01  7.0184956085E-01  1.2215289848E-02
            rprim2     0.0000000000E+00  7.0710678119E-01  7.0710678119E-01
                       7.0184954025E-01  1.2215264641E-02  7.1222047862E-01
                       7.0184954025E-01  7.1222047862E-01  1.2215264641E-02
            rprim3     0.0000000000E+00  7.0710678119E-01  7.0710678119E-01
                       7.0185064591E-01 -1.2215295781E-02  7.1221938852E-01
                       7.0185064591E-01  7.1221938852E-01 -1.2215295781E-02
            rprim4     0.0000000000E+00  7.1662373620E-01  6.9745997786E-01
                       7.1662373620E-01  0.0000000000E+00  6.9745997786E-01
                       7.0710678119E-01  7.0710678119E-01  0.0000000000E+00
          spgroup1         44
          spgroup2         44
          spgroup3         44
          spgroup4        139
           symafm1       1    1    1    1
           symafm2       1    1    1    1
           symafm3       1    1    1    1
           symafm4       1    1    1    1    1    1    1    1    1    1
                         1    1    1    1    1    1
           symrel1     1  0  0   0  1  0   0  0  1       0  1 -1   0  1  0  -1  1  0
                       0  0 -1   0 -1  0  -1  0  0       1 -1  0   0 -1  0   0 -1  1
           symrel2     1  0  0   0  1  0   0  0  1       1  0  0   1  0 -1   1 -1  0
                      -1  0  0   0  0 -1   0 -1  0      -1  0  0  -1  1  0  -1  0  1
           symrel3     1  0  0   0  1  0   0  0  1       1  0  0   1  0 -1   1 -1  0
                       1  0  0   0  0  1   0  1  0       1  0  0   1 -1  0   1  0 -1
           symrel4     1  0  0   0  1  0   0  0  1      -1  0  0   0 -1  0   0  0 -1
                      -1  0  1   0 -1  1   0  0  1       1  0 -1   0  1 -1   0  0 -1
                       0  1 -1   1  0 -1   0  0 -1       0 -1  1  -1  0  1   0  0  1
                       0 -1  0  -1  0  0   0  0 -1       0  1  0   1  0  0   0  0  1
                       1  0  0   1  0 -1   1 -1  0      -1  0  0  -1  0  1  -1  1  0
                       0 -1  0   0 -1  1   1 -1  0       0  1  0   0  1 -1  -1  1  0
                       0  1 -1   0  1  0  -1  1  0       0 -1  1   0 -1  0   1 -1  0
                      -1  0  1  -1  0  0  -1  1  0       1  0 -1   1  0  0   1 -1  0
            tnons1     0.0000000  0.0000000  0.0000000     0.0000000 -0.0000000  0.0000000
                       0.0000000 -0.0000000  0.0000000     0.0000000  0.0000000  0.0000000
            tnons2     0.0000000  0.0000000  0.0000000    -0.0000000  0.0000000  0.0000000
                       0.0000000  0.0000000  0.0000000     0.0000000  0.0000000  0.0000000
            tnons3     0.0000000  0.0000000  0.0000000     0.0000000 -0.0000000 -0.0000000
                       0.0000000 -0.0000000  0.0000000     0.0000000 -0.0000000 -0.0000000
            tnons4     0.0000000  0.0000000  0.0000000    -0.0000000  0.0000000 -0.0000000
                      -0.0000000  0.0000000 -0.0000000     0.0000000  0.0000000 -0.0000000
                      -0.0000000  0.0000000 -0.0000000     0.0000000  0.0000000 -0.0000000
                       0.0000000  0.0000000 -0.0000000    -0.0000000  0.0000000  0.0000000
                       0.0000000 -0.0000000 -0.0000000    -0.0000000  0.0000000 -0.0000000
                       0.0000000 -0.0000000 -0.0000000    -0.0000000  0.0000000 -0.0000000
                      -0.0000000  0.0000000 -0.0000000     0.0000000 -0.0000000 -0.0000000
                      -0.0000000  0.0000000 -0.0000000     0.0000000 -0.0000000 -0.0000000
           toldfe      1.00000000E-08 Hartree
            typat1     1  1  2  4  2  4  4  4  3
            typat2     1  1  2  4  4  2  4  4  3
            typat3     1  1  4  2  4  2  4  4  3
            typat4     1  1  2  2  4  4  4  4  3
           useylm           1
              wtk1       0.00058    0.00231    0.00231    0.00231    0.00231    0.00231
                         0.00116    0.00231    0.00231    0.00463    0.00463    0.00463
                         0.00463    0.00463    0.00463    0.00463    0.00463    0.00463
                         0.00463    0.00231    0.00463    0.00231    0.00463    0.00463
                         0.00463    0.00463    0.00463    0.00463    0.00463    0.00463
                         0.00463    0.00231    0.00463    0.00463    0.00231    0.00463
                         0.00463    0.00463    0.00463    0.00463    0.00463    0.00463
                         0.00463    0.00231    0.00463    0.00463    0.00463    0.00231
                         0.00463    0.00463
              wtk2       0.00058    0.00231    0.00231    0.00231    0.00231    0.00231
                         0.00116    0.00231    0.00231    0.00463    0.00463    0.00463
                         0.00463    0.00463    0.00463    0.00463    0.00463    0.00463
                         0.00463    0.00231    0.00463    0.00231    0.00463    0.00463
                         0.00463    0.00463    0.00463    0.00463    0.00463    0.00463
                         0.00463    0.00231    0.00463    0.00463    0.00231    0.00463
                         0.00463    0.00463    0.00463    0.00463    0.00463    0.00463
                         0.00463    0.00231    0.00463    0.00463    0.00463    0.00231
                         0.00463    0.00463
              wtk3       0.00058    0.00231    0.00231    0.00231    0.00231    0.00231
                         0.00116    0.00231    0.00231    0.00463    0.00463    0.00463
                         0.00463    0.00463    0.00463    0.00463    0.00463    0.00463
                         0.00463    0.00231    0.00463    0.00231    0.00463    0.00463
                         0.00463    0.00463    0.00463    0.00463    0.00463    0.00463
                         0.00463    0.00231    0.00463    0.00463    0.00231    0.00463
                         0.00463    0.00463    0.00463    0.00463    0.00463    0.00463
                         0.00463    0.00231    0.00463    0.00463    0.00463    0.00231
                         0.00463    0.00463
              wtk4       0.00058    0.00463    0.00463    0.00463    0.00463    0.00463
                         0.00231    0.00116    0.00463    0.00463    0.00463    0.00463
                         0.00463    0.00463    0.00463    0.00463    0.00463    0.00231
                         0.00116    0.00463    0.00463    0.00463    0.00463    0.00463
                         0.00463    0.00463    0.00231    0.00116    0.00463    0.00463
                         0.00463    0.00463    0.00463    0.00231    0.00116    0.00463
                         0.00463    0.00463    0.00231    0.00116    0.00463    0.00231
                         0.00058    0.00231    0.00926    0.00926    0.00926    0.00926
                         0.00926    0.00926
                       outvars : Printing only first  50 k-points.
           xangst1     2.9441207046E+00  2.7679537435E+00  2.8620131520E+00
                       8.7502545612E+00  8.4822710288E+00  8.6681470086E+00
                       5.7355778468E+00  5.6251123861E+00  2.9399014166E+00
                       5.9264410096E+00  5.6251123861E+00  8.9632648100E+00
                       8.6723662966E+00  5.6251123861E+00  5.8766898664E+00
                       5.8399502965E+00  8.7830562641E+00  5.7723174167E+00
                       5.8399502965E+00  2.4671685081E+00  5.7723174167E+00
                       2.6490029032E+00  5.6251123861E+00  5.6858267036E+00
                       9.1406938007E-02  2.1274389311E-17 -9.1406938007E-02
           xangst2     2.7679534521E+00  2.9441208649E+00  2.8620126604E+00
                       8.4822704173E+00  8.7502543902E+00  8.6681461858E+00
                       5.6251119347E+00  5.7355775545E+00  2.9399013215E+00
                       5.6251119347E+00  5.9264403820E+00  8.9632643783E+00
                       8.7830553089E+00  5.8399498831E+00  5.7723171675E+00
                       5.6251119347E+00  8.6723657292E+00  5.8766894961E+00
                       5.6251119347E+00  2.6490026724E+00  5.6858266687E+00
                       2.4671685604E+00  5.8399498832E+00  5.7723171676E+00
                       2.0893232247E-18  9.1406843109E-02 -9.1406843109E-02
           xangst3     2.8571793834E+00  2.8462204031E+00  2.8462204031E+00
                       8.3930690510E+00  8.4565450458E+00  8.4565450458E+00
                       5.6251242172E+00  5.7306268113E+00  2.4531969829E+00
                       5.6251242172E+00  5.5397644557E+00  8.4765511962E+00
                       8.7830802344E+00  5.6441434678E+00  5.6441434678E+00
                       5.6251242172E+00  8.4765511962E+00  5.5397644557E+00
                       5.6251242172E+00  2.4531969829E+00  5.7306268113E+00
                       2.4671682000E+00  5.6441434679E+00  5.6441434679E+00
                      -4.2935354153E-16  9.1405311420E-02  9.1405311420E-02
           xangst4     2.8488717223E+00  2.8488717223E+00  2.7726879644E+00
                       8.5466151669E+00  8.5466151669E+00  8.3180638932E+00
                       5.6977434446E+00  5.6977434446E+00  2.9126881817E+00
                       5.6977434446E+00  5.6977434446E+00  8.1780636759E+00
                       8.9217838578E+00  5.6977434446E+00  5.5453759288E+00
                       5.6977434446E+00  8.9217838578E+00  5.5453759288E+00
                       5.6977434446E+00  2.4737030315E+00  5.5453759288E+00
                       2.4737030315E+00  5.6977434446E+00  5.5453759288E+00
                      -2.5076685300E-20 -3.6520931994E-20  8.4244773844E-21
            xcart1     5.5635818338E+00  5.2306745236E+00  5.4084210461E+00
                       1.6535584714E+01  1.6029169229E+01  1.6380423926E+01
                       1.0838671344E+01  1.0629921876E+01  5.5556085351E+00
                       1.1199350451E+01  1.0629921876E+01  1.6938115747E+01
                       1.6388397225E+01  1.0629921876E+01  1.1105334415E+01
                       1.1035906690E+01  1.6597570949E+01  1.0908099070E+01
                       1.1035906690E+01  4.6622728041E+00  1.0908099070E+01
                       5.0058900122E+00  1.0629921876E+01  1.0744655309E+01
                       1.7273407948E-01  4.0202769442E-17 -1.7273407948E-01
            xcart2     5.2306739730E+00  5.5635821368E+00  5.4084201171E+00
                       1.6029168074E+01  1.6535584391E+01  1.6380422371E+01
                       1.0629921023E+01  1.0838670792E+01  5.5556083554E+00
                       1.0629921023E+01  1.1199349265E+01  1.6938114932E+01
                       1.6597569144E+01  1.1035905909E+01  1.0908098599E+01
                       1.0629921023E+01  1.6388396152E+01  1.1105333716E+01
                       1.0629921023E+01  5.0058895761E+00  1.0744655243E+01
                       4.6622729028E+00  1.1035905909E+01  1.0908098599E+01
                       3.9482486978E-18  1.7273390015E-01 -1.7273390015E-01
            xcart3     5.3992865471E+00  5.3785770756E+00  5.3785770756E+00
                       1.5860601921E+01  1.5980554167E+01  1.5980554167E+01
                       1.0629944234E+01  1.0829315243E+01  4.6358704477E+00
                       1.0629944234E+01  1.0468637662E+01  1.6018360312E+01
                       1.6597616246E+01  1.0665885409E+01  1.0665885409E+01
                       1.0629944234E+01  1.6018360312E+01  1.0468637662E+01
                       1.0629944234E+01  4.6358704477E+00  1.0829315243E+01
                       4.6622722218E+00  1.0665885409E+01  1.0665885409E+01
                      -8.1136060768E-16  1.7273100568E-01  1.7273100568E-01
            xcart4     5.3835873429E+00  5.3835873429E+00  5.2396209047E+00
                       1.6150762029E+01  1.6150762029E+01  1.5718862714E+01
                       1.0767174686E+01  1.0767174686E+01  5.5041829740E+00
                       1.0767174686E+01  1.0767174686E+01  1.5454300645E+01
                       1.6859728108E+01  1.0767174686E+01  1.0479241809E+01
                       1.0767174686E+01  1.6859728108E+01  1.0479241809E+01
                       1.0767174686E+01  4.6746212635E+00  1.0479241809E+01
                       4.6746212635E+00  1.0767174686E+01  1.0479241809E+01
                      -4.7388067537E-20 -6.9014559587E-20  1.5919955069E-20
             xred1     2.3871788396E-01  2.5396458297E-01  2.5335295009E-01
                       7.4664704991E-01  7.4603541703E-01  7.6128211604E-01
                       2.5084563981E-01  2.4709604340E-01  7.4915436019E-01
                       7.7064573097E-01  7.8223928240E-01  2.2935426903E-01
                       2.5084563981E-01  7.5290395660E-01  7.4915436019E-01
                       7.7467298297E-01  2.1929948584E-01  7.8672804535E-01
                       2.1327195465E-01  7.8070051416E-01  2.2532701703E-01
                       7.7064573097E-01  2.1776071760E-01  2.2935426903E-01
                      -1.6292613058E-02 -1.1789765272E-18  1.6292613058E-02
             xred2     2.5396458913E-01  2.3871781981E-01  2.5335300193E-01
                       7.4603541087E-01  7.4664699807E-01  7.6128218019E-01
                       2.4709605267E-01  2.5084566105E-01  7.4915433895E-01
                       7.8223926433E-01  7.7064574444E-01  2.2935425556E-01
                       2.1929950809E-01  7.7467297544E-01  7.8672800839E-01
                       7.5290394733E-01  2.5084566105E-01  7.4915433895E-01
                       2.1776073567E-01  7.7064574444E-01  2.2935425556E-01
                       7.8070049192E-01  2.1327199161E-01  2.2532702456E-01
                       2.1954349994E-18 -1.6292595903E-02  1.6292595903E-02
             xred3     2.5335241524E-01  2.5396589240E-01  2.5396589240E-01
                       7.6128420003E-01  7.4603410760E-01  7.4603410760E-01
                       2.2935385342E-01  2.1776117344E-01  7.8223882656E-01
                       7.4915370717E-01  7.5290403972E-01  2.4709596028E-01
                       2.2532695945E-01  7.8070100279E-01  7.8070100279E-01
                       7.4915370717E-01  2.4709596028E-01  7.5290403972E-01
                       2.2935385342E-01  7.8223882656E-01  2.1776117344E-01
                       7.8672896503E-01  2.1929899721E-01  2.1929899721E-01
                       1.6292339078E-02 -3.8233487079E-17 -3.8094345864E-17
             xred4     2.5000000000E-01  2.5000000000E-01  2.5000000000E-01
                       7.5000000000E-01  7.5000000000E-01  7.5000000000E-01
                       2.6262314937E-01  2.6262314937E-01  7.3737685063E-01
                       7.3737685063E-01  7.3737685063E-01  2.6262314937E-01
                       2.1707743210E-01  7.8292256790E-01  7.8292256790E-01
                       7.8292256790E-01  2.1707743210E-01  7.8292256790E-01
                       2.1707743210E-01  7.8292256790E-01  2.1707743210E-01
                       7.8292256790E-01  2.1707743210E-01  2.1707743210E-01
                      -2.4468407478E-22  1.7638736649E-21 -6.1650345005E-21
            znucl       55.00000   53.00000   40.00000   17.00000

================================================================================

 chkinp: Checking input parameters for consistency, jdtset=   1.

 chkinp: Checking input parameters for consistency, jdtset=   2.

 chkinp: Checking input parameters for consistency, jdtset=   3.

 chkinp: Checking input parameters for consistency, jdtset=   4.

================================================================================
== DATASET  1 ==================================================================
-   mpi_nproc: 4, omp_nthreads: -1 (-1 if OMP is not activated)


--- !DatasetInfo
iteration_state: {dtset: 1, }
dimensions: {natom: 9, nkpt: 280, mband: 42, nsppol: 1, nspinor: 1, nspden: 1, mpw: 7592, }
cutoff_energies: {ecut:  16.0, pawecutdg:  40.0, }
electrons: {nelect:   7.20000000E+01, charge:   0.00000000E+00, occopt:   1.00000000E+00, tsmear:   1.00000000E-02, }
meta: {optdriver: 0, ionmov: 0, optcell: 0, iscf: 17, paral_kgb: 0, }
...

 Real(R)+Recip(G) space primitive vectors, cartesian coordinates (Bohr,Bohr^-1):
 R(1)=  0.1850077 10.6299219 10.7869952  G(1)= -0.0471610  0.0470370  0.0471610
 R(2)= 10.9720029  0.0000000 10.9720029  G(2)=  0.0455705 -0.0470370  0.0455705
 R(3)= 10.7869952 10.6299219  0.1850077  G(3)=  0.0471610  0.0470370 -0.0471610
 Unit cell volume ucvol=  2.4730521E+03 bohr^3
 Angles (23,13,12)=  5.91859535E+01  5.93366522E+01  5.91859535E+01 degrees

 Coarse grid specifications (used for wave-functions):

 getcut: wavevector=  0.0000  0.0000  0.0000  ngfft=  60  60  60
         ecut(hartree)=     16.000   => boxcut(ratio)=   2.14746

 Fine grid specifications (used for densities):

 getcut: wavevector=  0.0000  0.0000  0.0000  ngfft=  90  90  90
         ecut(hartree)=     40.000   => boxcut(ratio)=   2.03753

--- Pseudopotential description ------------------------------------------------
- pspini: atom type   1  psp file is ../../../Psps_for_tests/ATOMICDATA/Cs.GGA_PBE-JTH.xml
- pspatm: opening atomic psp file    ../../../Psps_for_tests/ATOMICDATA/Cs.GGA_PBE-JTH.xml
- pspatm : Reading pseudopotential header in XML form from ../../../Psps_for_tests/ATOMICDATA/Cs.GGA_PBE-JTH.xml
 Pseudopotential format is: paw10
 basis_size (lnmax)=  6 (lmn_size= 18), orbitals=   0   0   1   1   2   2
 Spheres core radius: rc_sph= 2.20660278
 1 radial meshes are used:
  - mesh 1: r(i)=AA*[exp(BB*(i-1))-1], size=1500 , AA= 0.15922E-03 BB= 0.87573E-02
 Shapefunction is SIN type: shapef(r)=[sin(pi*r/rshp)/(pi*r/rshp)]**2
 Radius for shape functions =  2.00394208
 mmax= 1500
 Radial grid used for partial waves is grid 1
 Radial grid used for projectors is grid 1
 Radial grid used for (t)core density is grid 1
 Radial grid used for Vloc is grid 1
 Radial grid used for pseudo valence density is grid 1
 Mesh size for Vloc has been set to 1341 to avoid numerical noise.
 Compensation charge density is not taken into account in XC energy/potential
 pspatm: atomic psp has been read  and splines computed

- pspini: atom type   2  psp file is ../../../Psps_for_tests/ATOMICDATA/I.GGA_PBE-JTH.xml
- pspatm: opening atomic psp file    ../../../Psps_for_tests/ATOMICDATA/I.GGA_PBE-JTH.xml
- pspatm : Reading pseudopotential header in XML form from ../../../Psps_for_tests/ATOMICDATA/I.GGA_PBE-JTH.xml
 Pseudopotential format is: paw10
 basis_size (lnmax)=  4 (lmn_size=  8), orbitals=   0   0   1   1
 Spheres core radius: rc_sph= 2.30022271
 1 radial meshes are used:
  - mesh 1: r(i)=AA*[exp(BB*(i-1))-1], size=2000 , AA= 0.12610E-03 BB= 0.66836E-02
 Shapefunction is SIN type: shapef(r)=[sin(pi*r/rshp)/(pi*r/rshp)]**2
 Radius for shape functions =  2.10879093
 mmax= 2000
 Radial grid used for partial waves is grid 1
 Radial grid used for projectors is grid 1
 Radial grid used for (t)core density is grid 1
 Radial grid used for Vloc is grid 1
 Radial grid used for pseudo valence density is grid 1
 Mesh size for Vloc has been set to 1792 to avoid numerical noise.
 Compensation charge density is not taken into account in XC energy/potential
 pspatm: atomic psp has been read  and splines computed

- pspini: atom type   3  psp file is ../../../Psps_for_tests/ATOMICDATA/Zr.GGA_PBE-JTH.xml
- pspatm: opening atomic psp file    ../../../Psps_for_tests/ATOMICDATA/Zr.GGA_PBE-JTH.xml
- pspatm : Reading pseudopotential header in XML form from ../../../Psps_for_tests/ATOMICDATA/Zr.GGA_PBE-JTH.xml
 Pseudopotential format is: paw10
 basis_size (lnmax)=  6 (lmn_size= 18), orbitals=   0   0   1   1   2   2
 Spheres core radius: rc_sph= 2.21000000
 1 radial meshes are used:
  - mesh 1: r(i)=AA*[exp(BB*(i-1))-1], size= 941 , AA= 0.35256E-03 BB= 0.14102E-01
 Shapefunction is BESSEL type: shapef(r,l)=aa(1,l)*jl(q(1,l)*r)+aa(2,l)*jl(q(2,l)*r)
 Radius for shape functions =  2.21000000
 mmax=  941
 Radial grid used for partial waves is grid 1
 Radial grid used for projectors is grid 1
 Radial grid used for (t)core density is grid 1
 Radial grid used for Vloc is grid 1
 Radial grid used for pseudo valence density is grid 1
 Mesh size for Vloc has been set to  777 to avoid numerical noise.
 Compensation charge density is not taken into account in XC energy/potential
 pspatm: atomic psp has been read  and splines computed

- pspini: atom type   4  psp file is ../../../Psps_for_tests/ATOMICDATA/Cl.GGA_PBE-JTH.xml
- pspatm: opening atomic psp file    ../../../Psps_for_tests/ATOMICDATA/Cl.GGA_PBE-JTH.xml
- pspatm : Reading pseudopotential header in XML form from ../../../Psps_for_tests/ATOMICDATA/Cl.GGA_PBE-JTH.xml
 Pseudopotential format is: paw10
 basis_size (lnmax)=  4 (lmn_size=  8), orbitals=   0   0   1   1
 Spheres core radius: rc_sph= 1.80315674
 1 radial meshes are used:
  - mesh 1: r(i)=AA*[exp(BB*(i-1))-1], size=1400 , AA= 0.50355E-03 BB= 0.85603E-02
 Shapefunction is SIN type: shapef(r)=[sin(pi*r/rshp)/(pi*r/rshp)]**2
 Radius for shape functions =  1.61320365
 mmax= 1400
 Radial grid used for partial waves is grid 1
 Radial grid used for projectors is grid 1
 Radial grid used for (t)core density is grid 1
 Radial grid used for Vloc is grid 1
 Radial grid used for pseudo valence density is grid 1
 Mesh size for Vloc has been set to 1238 to avoid numerical noise.
 Compensation charge density is not taken into account in XC energy/potential
 pspatm: atomic psp has been read  and splines computed

   2.17261008E+04                                ecore*ucvol(ha*bohr**3)
--------------------------------------------------------------------------------

_setup2: Arith. and geom. avg. npw (full set) are    7559.710    7559.701

================================================================================

--- !BeginCycle
iteration_state: {dtset: 1, }
solver: {iscf: 17, nstep: 2500, nline: 4, wfoptalg: 10, }
tolerances: {toldfe: 1.00E-08, }
...

     iter   Etot(hartree)      deltaE(h)  residm     nres2
 ETOT  1  -172.68654460778    -1.727E+02 1.870E-01 2.003E+01
 ETOT  2  -172.82410172944    -1.376E-01 2.252E-02 4.171E+00
 ETOT  3  -172.82170450792     2.397E-03 9.111E-03 8.983E-01
 ETOT  4  -172.82225706634    -5.526E-04 4.079E-03 5.200E-02
 ETOT  5  -172.82209452876     1.625E-04 1.642E-03 8.623E-03
 ETOT  6  -172.82214029539    -4.577E-05 1.642E-03 8.817E-04
 ETOT  7  -172.82214304949    -2.754E-06 7.023E-04 2.511E-04
 ETOT  8  -172.82214415037    -1.101E-06 1.146E-03 2.826E-05
 ETOT  9  -172.82214416090    -1.053E-08 3.277E-04 4.917E-06
 ETOT 10  -172.82214416584    -4.942E-09 5.474E-04 1.474E-06
 ETOT 11  -172.82214417040    -4.561E-09 1.605E-04 2.871E-07

 At SCF step   11, etot is converged : 
  for the second time, diff in etot=  4.561E-09 < toldfe=  1.000E-08

 Cartesian components of stress tensor (hartree/bohr^3)
  sigma(1 1)=  3.75673475E-06  sigma(3 2)=  0.00000000E+00
  sigma(2 2)=  3.81984029E-06  sigma(3 1)= -1.29084019E-08
  sigma(3 3)=  3.75673475E-06  sigma(2 1)=  0.00000000E+00


--- !ResultsGS
iteration_state: {dtset: 1, }
comment   : Summary of ground state results
lattice_vectors:
- [  0.1850077,  10.6299219,  10.7869952, ]
- [ 10.9720029,   0.0000000,  10.9720029, ]
- [ 10.7869952,  10.6299219,   0.1850077, ]
lattice_lengths: [  15.14558,   15.51676,   15.14558, ]
lattice_angles: [ 59.186,  59.337,  59.186, ] # degrees, (23, 13, 12)
lattice_volume:   2.4730521E+03
convergence: {deltae: -4.561E-09, res2:  2.871E-07, residm:  1.605E-04, diffor: null, }
etotal    :  -1.72822144E+02
entropy   :   0.00000000E+00
fermie    :  -3.54688689E-02
cartesian_stress_tensor: # hartree/bohr^3
- [  3.75673475E-06,   0.00000000E+00,  -1.29084019E-08, ]
- [  0.00000000E+00,   3.81984029E-06,   0.00000000E+00, ]
- [ -1.29084019E-08,   0.00000000E+00,   3.75673475E-06, ]
pressure_GPa:  -1.1115E-01
xred      :
- [  2.3872E-01,   2.5396E-01,   2.5335E-01, Cs]
- [  7.4665E-01,   7.4604E-01,   7.6128E-01, Cs]
- [  2.5085E-01,   2.4710E-01,   7.4915E-01,  I]
- [  7.7065E-01,   7.8224E-01,   2.2935E-01, Cl]
- [  2.5085E-01,   7.5290E-01,   7.4915E-01,  I]
- [  7.7467E-01,   2.1930E-01,   7.8673E-01, Cl]
- [  2.1327E-01,   7.8070E-01,   2.2533E-01, Cl]
- [  7.7065E-01,   2.1776E-01,   2.2935E-01, Cl]
- [ -1.6293E-02,  -1.1790E-18,   1.6293E-02, Zr]
cartesian_forces: # hartree/bohr
- [  4.50706306E-06,  -5.43748207E-06,  -4.50706306E-06, ]
- [  4.50706306E-06,   5.43748207E-06,  -4.50706306E-06, ]
- [  6.94440958E-06,  -1.80489649E-18,   2.40479892E-05, ]
- [ -2.52390857E-05,  -8.03059122E-21,   2.52854876E-05, ]
- [ -2.40479892E-05,   1.79984269E-18,  -6.94440958E-06, ]
- [  2.16250188E-05,  -8.13459189E-05,  -2.16250188E-05, ]
- [  2.16250188E-05,   8.13459189E-05,  -2.16250188E-05, ]
- [ -2.52854876E-05,   2.96593972E-21,   2.52390857E-05, ]
- [  1.53639894E-05,  -1.05432299E-21,  -1.53639894E-05, ]
force_length_stats: {min:   8.37815290E-06, max:   8.69047835E-05, mean:   3.70897321E-05, }
...

 Integrated electronic density in atomic spheres:
 ------------------------------------------------
 Atom  Sphere_radius  Integrated_density
    1        2.20660          5.35943809
    2        2.20660          5.35943809
    3        2.30022          4.02114189
    4        1.80316          4.35955066
    5        2.30022          4.02114189
    6        1.80316          4.36962000
    7        1.80316          4.36962000
    8        1.80316          4.35955066
    9        2.21000          8.81237404

 PAW TEST:
 ==== Compensation charge inside spheres ============
 The following values must be close to each other ...
 Compensation charge over spherical meshes =     -5.787130936369158
 Compensation charge over fine fft grid    =     -5.787172063196692

 ==== Results concerning PAW augmentation regions ====

 Total pseudopotential strength Dij (hartree):
 Atom #  1
   0.42733  -0.14158  -0.00001  -0.00000   0.00000   0.00002   0.00001  -0.00001  -0.00000   0.00000   0.00000   0.00000 ...
  -0.14158   0.04257   0.00000   0.00000  -0.00000  -0.00001  -0.00000   0.00000   0.00000  -0.00000  -0.00000  -0.00000 ...
  -0.00001   0.00000  -0.09201   0.00000  -0.00000  -0.16747  -0.00000   0.00000   0.00000  -0.00000   0.00000  -0.00000 ...
  -0.00000   0.00000   0.00000  -0.09201   0.00000  -0.00000  -0.16747  -0.00000  -0.00000  -0.00000  -0.00000   0.00000 ...
   0.00000  -0.00000  -0.00000   0.00000  -0.09201   0.00000  -0.00000  -0.16747  -0.00000  -0.00000  -0.00000  -0.00000 ...
   0.00002  -0.00001  -0.16747  -0.00000   0.00000   0.40004   0.00002  -0.00002  -0.00000   0.00000  -0.00000   0.00000 ...
   0.00001  -0.00000  -0.00000  -0.16747  -0.00000   0.00002   0.40005   0.00000   0.00000   0.00000   0.00000  -0.00000 ...
  -0.00001   0.00000   0.00000  -0.00000  -0.16747  -0.00002   0.00000   0.40005   0.00000   0.00000   0.00000   0.00000 ...
  -0.00000   0.00000   0.00000  -0.00000  -0.00000  -0.00000   0.00000   0.00000   0.00545  -0.00000   0.00000   0.00000 ...
   0.00000  -0.00000  -0.00000  -0.00000  -0.00000   0.00000   0.00000   0.00000  -0.00000   0.00545   0.00000  -0.00000 ...
   0.00000  -0.00000   0.00000  -0.00000  -0.00000  -0.00000   0.00000   0.00000   0.00000   0.00000   0.00545   0.00000 ...
   0.00000  -0.00000  -0.00000   0.00000  -0.00000   0.00000  -0.00000   0.00000   0.00000  -0.00000   0.00000   0.00545 ...
   ...  only 12  components have been written...
 Atom #  9
   3.06636  -0.89281   0.00000  -0.00001   0.00001   0.00000   0.00001  -0.00001   0.00000   0.00000  -0.00004   0.00001 ...
  -0.89281   0.26673   0.00000  -0.00001   0.00001   0.00000   0.00000  -0.00000   0.00000   0.00000   0.00000  -0.00000 ...
   0.00000   0.00000   0.27347   0.00000   0.00000  -0.05573   0.00000   0.00000   0.00011  -0.00011   0.00000   0.00000 ...
  -0.00001  -0.00001   0.00000   0.27335   0.00001   0.00000  -0.05571  -0.00000   0.00000   0.00000  -0.00012   0.00011 ...
   0.00001   0.00001   0.00000   0.00001   0.27335   0.00000  -0.00000  -0.05571   0.00000   0.00000  -0.00006  -0.00011 ...
   0.00000   0.00000  -0.05573   0.00000   0.00000   0.01522   0.00000   0.00000  -0.00002   0.00002   0.00000   0.00000 ...
   0.00001   0.00000   0.00000  -0.05571  -0.00000   0.00000   0.01522   0.00000   0.00000   0.00000   0.00002  -0.00002 ...
  -0.00001  -0.00000   0.00000  -0.00000  -0.05571   0.00000   0.00000   0.01522   0.00000   0.00000   0.00001   0.00002 ...
   0.00000   0.00000   0.00011   0.00000   0.00000  -0.00002   0.00000   0.00000  -0.00965   0.00000   0.00000   0.00000 ...
   0.00000   0.00000  -0.00011   0.00000   0.00000   0.00002   0.00000   0.00000   0.00000  -0.00965   0.00000   0.00000 ...
  -0.00004   0.00000   0.00000  -0.00012  -0.00006   0.00000   0.00002   0.00001   0.00000   0.00000  -0.00961   0.00000 ...
   0.00001  -0.00000   0.00000   0.00011  -0.00011   0.00000  -0.00002   0.00002   0.00000   0.00000   0.00000  -0.00973 ...
   ...  only 12  components have been written...


 Augmentation waves occupancies Rhoij:
 Atom #  1
   1.99713  -0.01602  -0.00003   0.00000  -0.00000  -0.00005  -0.00001   0.00001  -0.00412   0.00412   0.00083   0.00053 ...
  -0.01602   0.11424  -0.00401  -0.00143   0.00143   0.00012   0.00005  -0.00005   0.02406  -0.02406  -0.00711  -0.00110 ...
  -0.00003  -0.00401   2.01064  -0.00280   0.00280  -0.00516   0.00042  -0.00042   0.00085  -0.00085   0.00184   0.00061 ...
   0.00000  -0.00143  -0.00280   2.00892  -0.00034   0.00042  -0.00486   0.00004   0.00049  -0.00172   0.00003   0.00136 ...
  -0.00000   0.00143   0.00280  -0.00034   2.00892  -0.00042   0.00004  -0.00486  -0.00172   0.00049   0.00024  -0.00136 ...
  -0.00005   0.00012  -0.00516   0.00042  -0.00042   0.00010  -0.00002   0.00002  -0.00001   0.00001  -0.00005  -0.00003 ...
  -0.00001   0.00005   0.00042  -0.00486   0.00004  -0.00002   0.00007  -0.00000  -0.00003   0.00004  -0.00002  -0.00005 ...
   0.00001  -0.00005  -0.00042   0.00004  -0.00486   0.00002  -0.00000   0.00007   0.00004  -0.00003  -0.00002   0.00005 ...
  -0.00412   0.02406   0.00085   0.00049  -0.00172  -0.00001  -0.00003   0.00004   0.04139   0.00250  -0.01475   0.00004 ...
   0.00412  -0.02406  -0.00085  -0.00172   0.00049   0.00001   0.00004  -0.00003   0.00250   0.04139  -0.00854  -0.00004 ...
   0.00083  -0.00711   0.00184   0.00003   0.00024  -0.00005  -0.00002  -0.00002  -0.01475  -0.00854   0.02365  -0.00113 ...
   0.00053  -0.00110   0.00061   0.00136  -0.00136  -0.00003  -0.00005   0.00005   0.00004  -0.00004  -0.00113   0.01825 ...
   ...  only 12  components have been written...
 Atom #  9
   1.99238  -0.07144   0.00000   0.00073  -0.00073   0.00000   0.00373  -0.00373   0.00000   0.00000   0.00136  -0.00045 ...
  -0.07144   1.05843   0.00000   0.00637  -0.00637   0.00000  -0.06700   0.06700   0.00000   0.00000  -0.02570   0.00778 ...
   0.00000   0.00000   1.96316   0.00000   0.00000  -0.22343   0.00000   0.00000   0.00111  -0.00111   0.00000   0.00000 ...
   0.00073   0.00637   0.00000   1.96546  -0.00015   0.00000  -0.21049  -0.00063   0.00000   0.00000   0.00281   0.00100 ...
  -0.00073  -0.00637   0.00000  -0.00015   1.96546   0.00000  -0.00063  -0.21049   0.00000   0.00000   0.00143  -0.00100 ...
   0.00000   0.00000  -0.22343   0.00000   0.00000   1.86418   0.00000   0.00000  -0.03549   0.03549   0.00000   0.00000 ...
   0.00373  -0.06700   0.00000  -0.21049  -0.00063   0.00000   1.61290   0.01706   0.00000   0.00000  -0.20961  -0.03302 ...
  -0.00373   0.06700   0.00000  -0.00063  -0.21049   0.00000   0.01706   1.61290   0.00000   0.00000  -0.10325   0.03302 ...
   0.00000   0.00000   0.00111   0.00000   0.00000  -0.03549   0.00000   0.00000   0.50243   0.00037   0.00000   0.00000 ...
   0.00000   0.00000  -0.00111   0.00000   0.00000   0.03549   0.00000   0.00000   0.00037   0.50243   0.00000   0.00000 ...
   0.00136  -0.02570   0.00000   0.00281   0.00143   0.00000  -0.20961  -0.10325   0.00000   0.00000   1.44108   0.00527 ...
  -0.00045   0.00778   0.00000   0.00100  -0.00100   0.00000  -0.03302   0.03302   0.00000   0.00000   0.00527   0.47056 ...
   ...  only 12  components have been written...


================================================================================

 ----iterations are completed or convergence reached----

 Mean square residual over all n,k,spin=   24.135E-08; max=  16.052E-05
 reduced coordinates (array xred) for    9 atoms
       0.238717883960      0.253964582975      0.253352950090
       0.746647049910      0.746035417025      0.761282116040
       0.250845639810      0.247096043400      0.749154360190
       0.770645730970      0.782239282400      0.229354269030
       0.250845639810      0.752903956600      0.749154360190
       0.774672982970      0.219299485840      0.786728045350
       0.213271954650      0.780700514160      0.225327017030
       0.770645730970      0.217760717600      0.229354269030
      -0.016292613058     -0.000000000000      0.016292613058
 rms dE/dt=  3.8362E-04; max dE/dt=  1.0531E-03; dE/dt below (all hartree)
    1       0.000064705514      0.000000000000      0.000050894506
    2      -0.000050894506      0.000000000000     -0.000064705514
    3      -0.000301568635     -0.000340048689     -0.000038480054
    4      -0.000308963329     -0.000000509121      0.000308454208
    5       0.000038480054      0.000340048689      0.000301568635
    6       0.001053090618      0.000000000000      0.000676310907
    7      -0.000676310907      0.000000000000     -0.001053090618
    8      -0.000308454208      0.000000509121      0.000308963329
    9       0.000122010501      0.000000000000     -0.000122010501

 cartesian coordinates (angstrom) at end:
    1      2.94412070456344     2.76795374346148     2.86201315203556
    2      8.75025456116245     8.48227102877212     8.66814700863458
    3      5.73557784680369     5.62511238611680     2.93990141662828
    4      5.92644100959975     5.62511238611680     8.96326481000777
    5      8.67236629656974     5.62511238611680     5.87668986639432
    6      5.83995029647040     8.78305626409834     5.77231741672798
    7      5.83995029647003     2.46716850813526     5.77231741672761
    8      2.64900290319024     5.62511238611680     5.68582670359826
    9      0.09140693800719     0.00000000000000    -0.09140693800719

 cartesian forces (hartree/bohr) at end:
    1      0.00000450706306    -0.00000543748207    -0.00000450706306
    2      0.00000450706306     0.00000543748207    -0.00000450706306
    3      0.00000694440958    -0.00000000000000     0.00002404798925
    4     -0.00002523908573    -0.00000000000000     0.00002528548759
    5     -0.00002404798925     0.00000000000000    -0.00000694440958
    6      0.00002162501876    -0.00008134591887    -0.00002162501876
    7      0.00002162501876     0.00008134591887    -0.00002162501876
    8     -0.00002528548759     0.00000000000000     0.00002523908573
    9      0.00001536398936    -0.00000000000000    -0.00001536398936
 frms,max,avg= 2.6890154E-05 8.1345919E-05  -3.856E-06  0.000E+00  3.856E-06 h/b

 cartesian forces (eV/Angstrom) at end:
    1      0.00023176248139    -0.00027960654655    -0.00023176248139
    2      0.00023176248139     0.00027960654655    -0.00023176248139
    3      0.00035709586812    -0.00000000000000     0.00123659722283
    4     -0.00129784586123    -0.00000000000000     0.00130023194048
    5     -0.00123659722283     0.00000000000000    -0.00035709586812
    6      0.00111200308106    -0.00418297498060    -0.00111200308106
    7      0.00111200308106     0.00418297498060    -0.00111200308106
    8     -0.00130023194048     0.00000000000000     0.00129784586123
    9      0.00079004803152    -0.00000000000000    -0.00079004803152
 frms,max,avg= 1.3827472E-03 4.1829750E-03  -1.983E-04  0.000E+00  1.983E-04 e/A
 length scales= 15.145584566000 15.516755279000 15.145584566000 bohr
              =  8.014698163100  8.211113244915  8.014698163100 angstroms
 prteigrs : about to open file Cs2TiI6o_DS1_EIG
 Fermi (or HOMO) energy (hartree) =  -0.03547   Average Vxc (hartree)=  -0.27571
 Eigenvalues (hartree) for nkpt= 280  k points:
 kpt#   1, nband= 42, wtk=  0.00058, kpt=  0.0000  0.0000  0.0000 (reduced coord)
  -1.85150   -1.04308   -1.04255   -1.04241   -0.78723   -0.78705   -0.56052   -0.55291
  -0.55127   -0.54558   -0.44344   -0.43578   -0.30493   -0.30418   -0.30415   -0.30230
  -0.30226   -0.30213   -0.17582   -0.15530   -0.15123   -0.14651   -0.14638   -0.14276
  -0.13191   -0.12528   -0.12526   -0.10448   -0.09756   -0.09427   -0.08980   -0.06862
  -0.06127   -0.05339   -0.05166   -0.03547    0.04505    0.05113    0.05119    0.11684
   0.13768    0.14269
 prteigrs : prtvol=0 or 1, do not print more k-points.


--- !EnergyTerms
iteration_state     : {dtset: 1, }
comment             : Components of total free energy in Hartree
kinetic             :  5.54678732087005E+01
hartree             :  4.78000547899123E+01
xc                  : -5.47277490137578E+01
Ewald energy        : -1.14400015807532E+02
psp_core            :  8.78513665398728E+00
local_psp           : -1.52599570767471E+02
spherical_terms     :  3.68521499568847E+01
total_energy        : -1.72822120979276E+02
total_energy_eV     : -4.70272907346644E+03
...


--- !EnergyTermsDC
iteration_state     : {dtset: 1, }
comment             : '"Double-counting" decomposition of free energy'
band_energy         : -2.69302401101857E+01
Ewald energy        : -1.14400015807532E+02
psp_core            :  8.78513665398728E+00
xc_dc               : -5.83022093052264E+01
spherical_terms     :  1.80251843985528E+01
total_energy_dc     : -1.72822144170404E+02
total_energy_dc_eV  : -4.70272970452913E+03
...


 Cartesian components of stress tensor (hartree/bohr^3)
  sigma(1 1)=  3.75673475E-06  sigma(3 2)=  0.00000000E+00
  sigma(2 2)=  3.81984029E-06  sigma(3 1)= -1.29084019E-08
  sigma(3 3)=  3.75673475E-06  sigma(2 1)=  0.00000000E+00

-Cartesian components of stress tensor (GPa)         [Pressure= -1.1115E-01 GPa]
- sigma(1 1)=  1.10526934E-01  sigma(3 2)=  0.00000000E+00
- sigma(2 2)=  1.12383562E-01  sigma(3 1)= -3.79778233E-04
- sigma(3 3)=  1.10526934E-01  sigma(2 1)=  0.00000000E+00

================================================================================
== DATASET  2 ==================================================================
-   mpi_nproc: 4, omp_nthreads: -1 (-1 if OMP is not activated)


--- !DatasetInfo
iteration_state: {dtset: 2, }
dimensions: {natom: 9, nkpt: 280, mband: 42, nsppol: 1, nspinor: 1, nspden: 1, mpw: 7592, }
cutoff_energies: {ecut:  16.0, pawecutdg:  40.0, }
electrons: {nelect:   7.20000000E+01, charge:   0.00000000E+00, occopt:   1.00000000E+00, tsmear:   1.00000000E-02, }
meta: {optdriver: 0, ionmov: 0, optcell: 0, iscf: 17, paral_kgb: 0, }
...

 Real(R)+Recip(G) space primitive vectors, cartesian coordinates (Bohr,Bohr^-1):
 R(1)=  0.0000000 10.9720023 10.9720023  G(1)= -0.0470370  0.0455705  0.0455705
 R(2)= 10.6299210  0.1850073 10.7869949  G(2)=  0.0470370 -0.0471610  0.0471610
 R(3)= 10.6299210 10.7869949  0.1850073  G(3)=  0.0470370  0.0471610 -0.0471610
 Unit cell volume ucvol=  2.4730518E+03 bohr^3
 Angles (23,13,12)=  5.93366565E+01  5.91859537E+01  5.91859537E+01 degrees

 Coarse grid specifications (used for wave-functions):

 getcut: wavevector=  0.0000  0.0000  0.0000  ngfft=  60  60  60
         ecut(hartree)=     16.000   => boxcut(ratio)=   2.14746

 Fine grid specifications (used for densities):

 getcut: wavevector=  0.0000  0.0000  0.0000  ngfft=  90  90  90
         ecut(hartree)=     40.000   => boxcut(ratio)=   2.03753
--------------------------------------------------------------------------------

_setup2: Arith. and geom. avg. npw (full set) are    7559.705    7559.696

================================================================================

--- !BeginCycle
iteration_state: {dtset: 2, }
solver: {iscf: 17, nstep: 2500, nline: 4, wfoptalg: 10, }
tolerances: {toldfe: 1.00E-08, }
...

     iter   Etot(hartree)      deltaE(h)  residm     nres2
 ETOT  1  -172.68723758980    -1.727E+02 1.848E-01 1.983E+01
 ETOT  2  -172.82409297418    -1.369E-01 1.906E-02 4.048E+00
 ETOT  3  -172.82169904871     2.394E-03 5.631E-03 8.601E-01
 ETOT  4  -172.82225041142    -5.514E-04 5.736E-03 5.128E-02
 ETOT  5  -172.82209490954     1.555E-04 1.976E-03 8.543E-03
 ETOT  6  -172.82214013137    -4.522E-05 1.721E-03 8.985E-04
 ETOT  7  -172.82214301817    -2.887E-06 6.527E-04 2.516E-04
 ETOT  8  -172.82214414226    -1.124E-06 9.549E-04 2.911E-05
 ETOT  9  -172.82214415726    -1.500E-08 5.871E-04 5.433E-06
 ETOT 10  -172.82214416171    -4.451E-09 8.415E-04 1.213E-06
 ETOT 11  -172.82214416562    -3.913E-09 5.367E-04 3.272E-07

 At SCF step   11, etot is converged : 
  for the second time, diff in etot=  3.913E-09 < toldfe=  1.000E-08

 Cartesian components of stress tensor (hartree/bohr^3)
  sigma(1 1)=  3.82576050E-06  sigma(3 2)= -1.31991280E-08
  sigma(2 2)=  3.76032285E-06  sigma(3 1)=  6.76678113E-14
  sigma(3 3)=  3.76032285E-06  sigma(2 1)=  6.76677225E-14


--- !ResultsGS
iteration_state: {dtset: 2, }
comment   : Summary of ground state results
lattice_vectors:
- [  0.0000000,  10.9720023,  10.9720023, ]
- [ 10.6299210,   0.1850073,  10.7869949, ]
- [ 10.6299210,  10.7869949,   0.1850073, ]
lattice_lengths: [  15.51675,   15.14558,   15.14558, ]
lattice_angles: [ 59.337,  59.186,  59.186, ] # degrees, (23, 13, 12)
lattice_volume:   2.4730518E+03
convergence: {deltae: -3.913E-09, res2:  3.272E-07, residm:  5.367E-04, diffor: null, }
etotal    :  -1.72822144E+02
entropy   :   0.00000000E+00
fermie    :  -3.54686861E-02
cartesian_stress_tensor: # hartree/bohr^3
- [  3.82576050E-06,   6.76677225E-14,   6.76678113E-14, ]
- [  6.76677225E-14,   3.76032285E-06,  -1.31991280E-08, ]
- [  6.76678113E-14,  -1.31991280E-08,   3.76032285E-06, ]
pressure_GPa:  -1.1127E-01
xred      :
- [  2.5396E-01,   2.3872E-01,   2.5335E-01, Cs]
- [  7.4604E-01,   7.4665E-01,   7.6128E-01, Cs]
- [  2.4710E-01,   2.5085E-01,   7.4915E-01,  I]
- [  7.8224E-01,   7.7065E-01,   2.2935E-01, Cl]
- [  2.1930E-01,   7.7467E-01,   7.8673E-01, Cl]
- [  7.5290E-01,   2.5085E-01,   7.4915E-01,  I]
- [  2.1776E-01,   7.7065E-01,   2.2935E-01, Cl]
- [  7.8070E-01,   2.1327E-01,   2.2533E-01, Cl]
- [  2.1954E-18,  -1.6293E-02,   1.6293E-02, Zr]
cartesian_forces: # hartree/bohr
- [ -5.57532711E-06,   4.41060273E-06,  -4.41060273E-06, ]
- [  5.57532711E-06,   4.41060273E-06,  -4.41060273E-06, ]
- [  6.27682427E-16,   6.94341292E-06,   2.60430182E-05, ]
- [  3.01103686E-17,  -2.38278159E-05,   2.54103760E-05, ]
- [ -8.22851008E-05,   2.21362714E-05,  -2.21362714E-05, ]
- [ -6.27687336E-16,  -2.60430182E-05,  -6.94341292E-06, ]
- [ -3.01203700E-17,  -2.54103760E-05,   2.38278159E-05, ]
- [  8.22851008E-05,   2.21362714E-05,  -2.21362714E-05, ]
- [ -2.65635612E-21,   1.52440488E-05,  -1.52440488E-05, ]
force_length_stats: {min:   8.36606868E-06, max:   8.80390075E-05, mean:   3.75492482E-05, }
...

 Integrated electronic density in atomic spheres:
 ------------------------------------------------
 Atom  Sphere_radius  Integrated_density
    1        2.20660          5.35943787
    2        2.20660          5.35943787
    3        2.30022          4.02113745
    4        1.80316          4.35954969
    5        1.80316          4.36962592
    6        2.30022          4.02113745
    7        1.80316          4.35954969
    8        1.80316          4.36962592
    9        2.21000          8.81237306

 PAW TEST:
 ==== Compensation charge inside spheres ============
 The following values must be close to each other ...
 Compensation charge over spherical meshes =     -5.787133253064834
 Compensation charge over fine fft grid    =     -5.787171777072068

 ==== Results concerning PAW augmentation regions ====

 Total pseudopotential strength Dij (hartree):
 Atom #  1
   0.42733  -0.14158   0.00000  -0.00000  -0.00001  -0.00001   0.00001   0.00002  -0.00000   0.00000   0.00000   0.00000 ...
  -0.14158   0.04257  -0.00000   0.00000   0.00000   0.00000  -0.00000  -0.00001   0.00000  -0.00000  -0.00000  -0.00000 ...
   0.00000  -0.00000  -0.09201   0.00000  -0.00000  -0.16747  -0.00000   0.00000  -0.00000  -0.00000  -0.00000  -0.00000 ...
  -0.00000   0.00000   0.00000  -0.09201   0.00000  -0.00000  -0.16747  -0.00000  -0.00000   0.00000  -0.00000  -0.00000 ...
  -0.00001   0.00000  -0.00000   0.00000  -0.09201   0.00000  -0.00000  -0.16747   0.00000  -0.00000   0.00000  -0.00000 ...
  -0.00001   0.00000  -0.16747  -0.00000   0.00000   0.40005   0.00000  -0.00002   0.00000   0.00000   0.00000   0.00000 ...
   0.00001  -0.00000  -0.00000  -0.16747  -0.00000   0.00000   0.40005   0.00002   0.00000  -0.00000   0.00000   0.00000 ...
   0.00002  -0.00001   0.00000  -0.00000  -0.16747  -0.00002   0.00002   0.40004  -0.00000   0.00000  -0.00000   0.00000 ...
  -0.00000   0.00000  -0.00000  -0.00000   0.00000   0.00000   0.00000  -0.00000   0.00545   0.00000   0.00000  -0.00000 ...
   0.00000  -0.00000  -0.00000   0.00000  -0.00000   0.00000  -0.00000   0.00000   0.00000   0.00545   0.00000  -0.00000 ...
   0.00000  -0.00000  -0.00000  -0.00000   0.00000   0.00000   0.00000  -0.00000   0.00000   0.00000   0.00545   0.00000 ...
   0.00000  -0.00000  -0.00000  -0.00000  -0.00000   0.00000   0.00000   0.00000  -0.00000  -0.00000   0.00000   0.00545 ...
   ...  only 12  components have been written...
 Atom #  9
   3.06636  -0.89281   0.00001  -0.00001   0.00000  -0.00001   0.00001   0.00000   0.00000   0.00001  -0.00004   0.00000 ...
  -0.89281   0.26673   0.00001  -0.00001   0.00000  -0.00000   0.00000   0.00000   0.00000  -0.00000   0.00000   0.00000 ...
   0.00001   0.00001   0.27335   0.00001   0.00000  -0.05571  -0.00000   0.00000   0.00000  -0.00011  -0.00006   0.00000 ...
  -0.00001  -0.00001   0.00001   0.27335   0.00000  -0.00000  -0.05571   0.00000   0.00000   0.00011  -0.00012   0.00000 ...
   0.00000   0.00000   0.00000   0.00000   0.27347   0.00000   0.00000  -0.05573   0.00011   0.00000   0.00000  -0.00011 ...
  -0.00001  -0.00000  -0.05571  -0.00000   0.00000   0.01522   0.00000   0.00000   0.00000   0.00002   0.00001   0.00000 ...
   0.00001   0.00000  -0.00000  -0.05571   0.00000   0.00000   0.01522   0.00000   0.00000  -0.00002   0.00002   0.00000 ...
   0.00000   0.00000   0.00000   0.00000  -0.05573   0.00000   0.00000   0.01522  -0.00002   0.00000   0.00000   0.00002 ...
   0.00000   0.00000   0.00000   0.00000   0.00011   0.00000   0.00000  -0.00002  -0.00965   0.00000   0.00000   0.00000 ...
   0.00001  -0.00000  -0.00011   0.00011   0.00000   0.00002  -0.00002   0.00000   0.00000  -0.00973   0.00000   0.00000 ...
  -0.00004   0.00000  -0.00006  -0.00012   0.00000   0.00001   0.00002   0.00000   0.00000   0.00000  -0.00961   0.00000 ...
   0.00000   0.00000   0.00000   0.00000  -0.00011   0.00000   0.00000   0.00002   0.00000   0.00000   0.00000  -0.00965 ...
   ...  only 12  components have been written...


 Augmentation waves occupancies Rhoij:
 Atom #  1
   1.99713  -0.01602  -0.00000   0.00000  -0.00003   0.00001  -0.00001  -0.00005  -0.00412   0.00053   0.00083   0.00412 ...
  -0.01602   0.11424   0.00143  -0.00143  -0.00401  -0.00005   0.00005   0.00012   0.02406  -0.00110  -0.00711  -0.02406 ...
  -0.00000   0.00143   2.00892  -0.00034   0.00279  -0.00486   0.00004  -0.00042  -0.00172  -0.00136   0.00024   0.00049 ...
   0.00000  -0.00143  -0.00034   2.00892  -0.00279   0.00004  -0.00486   0.00042   0.00049   0.00136   0.00003  -0.00172 ...
  -0.00003  -0.00401   0.00279  -0.00279   2.01064  -0.00042   0.00042  -0.00516   0.00085   0.00061   0.00184  -0.00085 ...
   0.00001  -0.00005  -0.00486   0.00004  -0.00042   0.00007  -0.00000   0.00002   0.00004   0.00005  -0.00002  -0.00003 ...
  -0.00001   0.00005   0.00004  -0.00486   0.00042  -0.00000   0.00007  -0.00002  -0.00003  -0.00005  -0.00002   0.00004 ...
  -0.00005   0.00012  -0.00042   0.00042  -0.00516   0.00002  -0.00002   0.00010  -0.00001  -0.00003  -0.00005   0.00001 ...
  -0.00412   0.02406  -0.00172   0.00049   0.00085   0.00004  -0.00003  -0.00001   0.04139   0.00004  -0.01475   0.00250 ...
   0.00053  -0.00110  -0.00136   0.00136   0.00061   0.00005  -0.00005  -0.00003   0.00004   0.01825  -0.00113  -0.00004 ...
   0.00083  -0.00711   0.00024   0.00003   0.00184  -0.00002  -0.00002  -0.00005  -0.01475  -0.00113   0.02366  -0.00854 ...
   0.00412  -0.02406   0.00049  -0.00172  -0.00085  -0.00003   0.00004   0.00001   0.00250  -0.00004  -0.00854   0.04139 ...
   ...  only 12  components have been written...
 Atom #  9
   1.99238  -0.07144  -0.00073   0.00073   0.00000  -0.00373   0.00373   0.00000   0.00000  -0.00045   0.00136   0.00000 ...
  -0.07144   1.05843  -0.00637   0.00637   0.00000   0.06700  -0.06700   0.00000   0.00000   0.00778  -0.02570   0.00000 ...
  -0.00073  -0.00637   1.96546  -0.00015   0.00000  -0.21049  -0.00062   0.00000   0.00000  -0.00100   0.00143   0.00000 ...
   0.00073   0.00637  -0.00015   1.96546   0.00000  -0.00062  -0.21049   0.00000   0.00000   0.00100   0.00281   0.00000 ...
   0.00000   0.00000   0.00000   0.00000   1.96316   0.00000   0.00000  -0.22343   0.00111   0.00000   0.00000  -0.00111 ...
  -0.00373   0.06700  -0.21049  -0.00062   0.00000   1.61290   0.01706   0.00000   0.00000   0.03302  -0.10325   0.00000 ...
   0.00373  -0.06700  -0.00062  -0.21049   0.00000   0.01706   1.61290   0.00000   0.00000  -0.03302  -0.20961   0.00000 ...
   0.00000   0.00000   0.00000   0.00000  -0.22343   0.00000   0.00000   1.86417  -0.03549   0.00000   0.00000   0.03549 ...
   0.00000   0.00000   0.00000   0.00000   0.00111   0.00000   0.00000  -0.03549   0.50242   0.00000   0.00000   0.00037 ...
  -0.00045   0.00778  -0.00100   0.00100   0.00000   0.03302  -0.03302   0.00000   0.00000   0.47056   0.00527   0.00000 ...
   0.00136  -0.02570   0.00143   0.00281   0.00000  -0.10325  -0.20961   0.00000   0.00000   0.00527   1.44108   0.00000 ...
   0.00000   0.00000   0.00000   0.00000  -0.00111   0.00000   0.00000   0.03549   0.00037   0.00000   0.00000   0.50242 ...
   ...  only 12  components have been written...


================================================================================

 ----iterations are completed or convergence reached----

 Mean square residual over all n,k,spin=   24.218E-08; max=  53.665E-05
 reduced coordinates (array xred) for    9 atoms
       0.253964589130      0.238717819810      0.253353001930
       0.746035410870      0.746646998070      0.761282180190
       0.247096052670      0.250845661050      0.749154338950
       0.782239264330      0.770645744440      0.229354255560
       0.219299508085      0.774672975440      0.786728008390
       0.752903947330      0.250845661050      0.749154338950
       0.217760735670      0.770645744440      0.229354255560
       0.780700491915      0.213271991610      0.225327024560
       0.000000000000     -0.016292595903      0.016292595903
 rms dE/dt=  3.8924E-04; max dE/dt=  1.0702E-03; dE/dt below (all hartree)
    1       0.000000000000      0.000066858365      0.000051672208
    2       0.000000000000     -0.000051672208     -0.000066858365
    3      -0.000361927196     -0.000321378565     -0.000040548632
    4      -0.000017363853     -0.000308861354      0.000291497501
    5       0.000000000000      0.001070204522      0.000679163724
    6       0.000361927196      0.000040548632      0.000321378565
    7       0.000017363853     -0.000291497501      0.000308861354
    8       0.000000000000     -0.000679163724     -0.001070204522
    9       0.000000000000      0.000122449139     -0.000122449139

 cartesian coordinates (angstrom) at end:
    1      2.76795345206885     2.94412086490975     2.86201266043005
    2      8.48227041725610     8.75025439024615     8.66814618576645
    3      5.62511193466248     5.73557755454544     2.93990132151051
    4      5.62511193466248     5.92644038201684     8.96326437830613
    5      8.78305530893586     5.83994988309140     5.77231716746462
    6      5.62511193466248     8.67236572916569     5.87668949613076
    7      5.62511193466248     2.64900267237007     5.68582666865936
    8      2.46716856038909     5.83994988321158     5.77231716758480
    9      0.00000000000000     0.09140684310860    -0.09140684310860

 cartesian forces (hartree/bohr) at end:
    1     -0.00000557532711     0.00000441060273    -0.00000441060273
    2      0.00000557532711     0.00000441060273    -0.00000441060273
    3      0.00000000000000     0.00000694341292     0.00002604301818
    4      0.00000000000000    -0.00002382781587     0.00002541037600
    5     -0.00008228510084     0.00002213627145    -0.00002213627145
    6     -0.00000000000000    -0.00002604301818    -0.00000694341292
    7     -0.00000000000000    -0.00002541037600     0.00002382781587
    8      0.00008228510084     0.00002213627145    -0.00002213627145
    9     -0.00000000000000     0.00001524404877    -0.00001524404877
 frms,max,avg= 2.7207217E-05 8.2285101E-05   0.000E+00 -3.694E-06  3.694E-06 h/b

 cartesian forces (eV/Angstrom) at end:
    1     -0.00028669482283     0.00022680229210    -0.00022680229210
[...]
           strten3     3.8232694648E-06  3.7575967026E-06  3.7575967026E-06
                       1.2986226153E-08  9.3089182816E-14  9.3089179522E-14
           strten4     3.9787448716E-06  3.9787448716E-06  3.9495479960E-06
                      -5.2991059888E-15 -5.2984955896E-15  1.0314171738E-14
           symafm1       1    1    1    1
           symafm2       1    1    1    1
           symafm3       1    1    1    1
           symafm4       1    1    1    1    1    1    1    1    1    1
                         1    1    1    1    1    1
           symrel1     1  0  0   0  1  0   0  0  1       0  1 -1   0  1  0  -1  1  0
                       0  0 -1   0 -1  0  -1  0  0       1 -1  0   0 -1  0   0 -1  1
           symrel2     1  0  0   0  1  0   0  0  1       1  0  0   1  0 -1   1 -1  0
                      -1  0  0   0  0 -1   0 -1  0      -1  0  0  -1  1  0  -1  0  1
           symrel3     1  0  0   0  1  0   0  0  1       1  0  0   1  0 -1   1 -1  0
                       1  0  0   0  0  1   0  1  0       1  0  0   1 -1  0   1  0 -1
           symrel4     1  0  0   0  1  0   0  0  1      -1  0  0   0 -1  0   0  0 -1
                      -1  0  1   0 -1  1   0  0  1       1  0 -1   0  1 -1   0  0 -1
                       0  1 -1   1  0 -1   0  0 -1       0 -1  1  -1  0  1   0  0  1
                       0 -1  0  -1  0  0   0  0 -1       0  1  0   1  0  0   0  0  1
                       1  0  0   1  0 -1   1 -1  0      -1  0  0  -1  0  1  -1  1  0
                       0 -1  0   0 -1  1   1 -1  0       0  1  0   0  1 -1  -1  1  0
                       0  1 -1   0  1  0  -1  1  0       0 -1  1   0 -1  0   1 -1  0
                      -1  0  1  -1  0  0  -1  1  0       1  0 -1   1  0  0   1 -1  0
            tnons1     0.0000000  0.0000000  0.0000000     0.0000000 -0.0000000  0.0000000
                       0.0000000 -0.0000000  0.0000000     0.0000000  0.0000000  0.0000000
            tnons2     0.0000000  0.0000000  0.0000000    -0.0000000  0.0000000  0.0000000
                       0.0000000  0.0000000  0.0000000     0.0000000  0.0000000  0.0000000
            tnons3     0.0000000  0.0000000  0.0000000     0.0000000 -0.0000000 -0.0000000
                       0.0000000 -0.0000000  0.0000000     0.0000000 -0.0000000 -0.0000000
            tnons4     0.0000000  0.0000000  0.0000000    -0.0000000  0.0000000 -0.0000000
                      -0.0000000  0.0000000 -0.0000000     0.0000000  0.0000000 -0.0000000
                      -0.0000000  0.0000000 -0.0000000     0.0000000  0.0000000 -0.0000000
                       0.0000000  0.0000000 -0.0000000    -0.0000000  0.0000000  0.0000000
                       0.0000000 -0.0000000 -0.0000000    -0.0000000  0.0000000 -0.0000000
                       0.0000000 -0.0000000 -0.0000000    -0.0000000  0.0000000 -0.0000000
                      -0.0000000  0.0000000 -0.0000000     0.0000000 -0.0000000 -0.0000000
                      -0.0000000  0.0000000 -0.0000000     0.0000000 -0.0000000 -0.0000000
           toldfe      1.00000000E-08 Hartree
            typat1     1  1  2  4  2  4  4  4  3
            typat2     1  1  2  4  4  2  4  4  3
            typat3     1  1  4  2  4  2  4  4  3
            typat4     1  1  2  2  4  4  4  4  3
           useylm           1
              wtk1       0.00058    0.00231    0.00231    0.00231    0.00231    0.00231
                         0.00116    0.00231    0.00231    0.00463    0.00463    0.00463
                         0.00463    0.00463    0.00463    0.00463    0.00463    0.00463
                         0.00463    0.00231    0.00463    0.00231    0.00463    0.00463
                         0.00463    0.00463    0.00463    0.00463    0.00463    0.00463
                         0.00463    0.00231    0.00463    0.00463    0.00231    0.00463
                         0.00463    0.00463    0.00463    0.00463    0.00463    0.00463
                         0.00463    0.00231    0.00463    0.00463    0.00463    0.00231
                         0.00463    0.00463
              wtk2       0.00058    0.00231    0.00231    0.00231    0.00231    0.00231
                         0.00116    0.00231    0.00231    0.00463    0.00463    0.00463
                         0.00463    0.00463    0.00463    0.00463    0.00463    0.00463
                         0.00463    0.00231    0.00463    0.00231    0.00463    0.00463
                         0.00463    0.00463    0.00463    0.00463    0.00463    0.00463
                         0.00463    0.00231    0.00463    0.00463    0.00231    0.00463
                         0.00463    0.00463    0.00463    0.00463    0.00463    0.00463
                         0.00463    0.00231    0.00463    0.00463    0.00463    0.00231
                         0.00463    0.00463
              wtk3       0.00058    0.00231    0.00231    0.00231    0.00231    0.00231
                         0.00116    0.00231    0.00231    0.00463    0.00463    0.00463
                         0.00463    0.00463    0.00463    0.00463    0.00463    0.00463
                         0.00463    0.00231    0.00463    0.00231    0.00463    0.00463
                         0.00463    0.00463    0.00463    0.00463    0.00463    0.00463
                         0.00463    0.00231    0.00463    0.00463    0.00231    0.00463
                         0.00463    0.00463    0.00463    0.00463    0.00463    0.00463
                         0.00463    0.00231    0.00463    0.00463    0.00463    0.00231
                         0.00463    0.00463
              wtk4       0.00058    0.00463    0.00463    0.00463    0.00463    0.00463
                         0.00231    0.00116    0.00463    0.00463    0.00463    0.00463
                         0.00463    0.00463    0.00463    0.00463    0.00463    0.00231
                         0.00116    0.00463    0.00463    0.00463    0.00463    0.00463
                         0.00463    0.00463    0.00231    0.00116    0.00463    0.00463
                         0.00463    0.00463    0.00463    0.00231    0.00116    0.00463
                         0.00463    0.00463    0.00231    0.00116    0.00463    0.00231
                         0.00058    0.00231    0.00926    0.00926    0.00926    0.00926
                         0.00926    0.00926
                       outvars : Printing only first  50 k-points.
           xangst1     2.9441207046E+00  2.7679537435E+00  2.8620131520E+00
                       8.7502545612E+00  8.4822710288E+00  8.6681470086E+00
                       5.7355778468E+00  5.6251123861E+00  2.9399014166E+00
                       5.9264410096E+00  5.6251123861E+00  8.9632648100E+00
                       8.6723662966E+00  5.6251123861E+00  5.8766898664E+00
                       5.8399502965E+00  8.7830562641E+00  5.7723174167E+00
                       5.8399502965E+00  2.4671685081E+00  5.7723174167E+00
                       2.6490029032E+00  5.6251123861E+00  5.6858267036E+00
                       9.1406938007E-02  2.1274389311E-17 -9.1406938007E-02
           xangst2     2.7679534521E+00  2.9441208649E+00  2.8620126604E+00
                       8.4822704173E+00  8.7502543902E+00  8.6681461858E+00
                       5.6251119347E+00  5.7355775545E+00  2.9399013215E+00
                       5.6251119347E+00  5.9264403820E+00  8.9632643783E+00
                       8.7830553089E+00  5.8399498831E+00  5.7723171675E+00
                       5.6251119347E+00  8.6723657292E+00  5.8766894961E+00
                       5.6251119347E+00  2.6490026724E+00  5.6858266687E+00
                       2.4671685604E+00  5.8399498832E+00  5.7723171676E+00
                       2.0893232247E-18  9.1406843109E-02 -9.1406843109E-02
           xangst3     2.8571793834E+00  2.8462204031E+00  2.8462204031E+00
                       8.3930690510E+00  8.4565450458E+00  8.4565450458E+00
                       5.6251242172E+00  5.7306268113E+00  2.4531969829E+00
                       5.6251242172E+00  5.5397644557E+00  8.4765511962E+00
                       8.7830802344E+00  5.6441434678E+00  5.6441434678E+00
                       5.6251242172E+00  8.4765511962E+00  5.5397644557E+00
                       5.6251242172E+00  2.4531969829E+00  5.7306268113E+00
                       2.4671682000E+00  5.6441434679E+00  5.6441434679E+00
                      -4.2935354153E-16  9.1405311420E-02  9.1405311420E-02
           xangst4     2.8488717223E+00  2.8488717223E+00  2.7726879644E+00
                       8.5466151669E+00  8.5466151669E+00  8.3180638932E+00
                       5.6977434446E+00  5.6977434446E+00  2.9126881817E+00
                       5.6977434446E+00  5.6977434446E+00  8.1780636759E+00
                       8.9217838578E+00  5.6977434446E+00  5.5453759288E+00
                       5.6977434446E+00  8.9217838578E+00  5.5453759288E+00
                       5.6977434446E+00  2.4737030315E+00  5.5453759288E+00
                       2.4737030315E+00  5.6977434446E+00  5.5453759288E+00
                      -2.5076685300E-20 -3.6520931994E-20  8.4244773844E-21
            xcart1     5.5635818338E+00  5.2306745236E+00  5.4084210461E+00
                       1.6535584714E+01  1.6029169229E+01  1.6380423926E+01
                       1.0838671344E+01  1.0629921876E+01  5.5556085351E+00
                       1.1199350451E+01  1.0629921876E+01  1.6938115747E+01
                       1.6388397225E+01  1.0629921876E+01  1.1105334415E+01
                       1.1035906690E+01  1.6597570949E+01  1.0908099070E+01
                       1.1035906690E+01  4.6622728041E+00  1.0908099070E+01
                       5.0058900122E+00  1.0629921876E+01  1.0744655309E+01
                       1.7273407948E-01  4.0202769442E-17 -1.7273407948E-01
            xcart2     5.2306739730E+00  5.5635821368E+00  5.4084201171E+00
                       1.6029168074E+01  1.6535584391E+01  1.6380422371E+01
                       1.0629921023E+01  1.0838670792E+01  5.5556083554E+00
                       1.0629921023E+01  1.1199349265E+01  1.6938114932E+01
                       1.6597569144E+01  1.1035905909E+01  1.0908098599E+01
                       1.0629921023E+01  1.6388396152E+01  1.1105333716E+01
                       1.0629921023E+01  5.0058895761E+00  1.0744655243E+01
                       4.6622729028E+00  1.1035905909E+01  1.0908098599E+01
                       3.9482486978E-18  1.7273390015E-01 -1.7273390015E-01
            xcart3     5.3992865471E+00  5.3785770756E+00  5.3785770756E+00
                       1.5860601921E+01  1.5980554167E+01  1.5980554167E+01
                       1.0629944234E+01  1.0829315243E+01  4.6358704477E+00
                       1.0629944234E+01  1.0468637662E+01  1.6018360312E+01
                       1.6597616246E+01  1.0665885409E+01  1.0665885409E+01
                       1.0629944234E+01  1.6018360312E+01  1.0468637662E+01
                       1.0629944234E+01  4.6358704477E+00  1.0829315243E+01
                       4.6622722218E+00  1.0665885409E+01  1.0665885409E+01
                      -8.1136060768E-16  1.7273100568E-01  1.7273100568E-01
            xcart4     5.3835873429E+00  5.3835873429E+00  5.2396209047E+00
                       1.6150762029E+01  1.6150762029E+01  1.5718862714E+01
                       1.0767174686E+01  1.0767174686E+01  5.5041829740E+00
                       1.0767174686E+01  1.0767174686E+01  1.5454300645E+01
                       1.6859728108E+01  1.0767174686E+01  1.0479241809E+01
                       1.0767174686E+01  1.6859728108E+01  1.0479241809E+01
                       1.0767174686E+01  4.6746212635E+00  1.0479241809E+01
                       4.6746212635E+00  1.0767174686E+01  1.0479241809E+01
                      -4.7388067537E-20 -6.9014559587E-20  1.5919955069E-20
             xred1     2.3871788396E-01  2.5396458297E-01  2.5335295009E-01
                       7.4664704991E-01  7.4603541703E-01  7.6128211604E-01
                       2.5084563981E-01  2.4709604340E-01  7.4915436019E-01
                       7.7064573097E-01  7.8223928240E-01  2.2935426903E-01
                       2.5084563981E-01  7.5290395660E-01  7.4915436019E-01
                       7.7467298297E-01  2.1929948584E-01  7.8672804535E-01
                       2.1327195465E-01  7.8070051416E-01  2.2532701703E-01
                       7.7064573097E-01  2.1776071760E-01  2.2935426903E-01
                      -1.6292613058E-02 -1.1789765272E-18  1.6292613058E-02
             xred2     2.5396458913E-01  2.3871781981E-01  2.5335300193E-01
                       7.4603541087E-01  7.4664699807E-01  7.6128218019E-01
                       2.4709605267E-01  2.5084566105E-01  7.4915433895E-01
                       7.8223926433E-01  7.7064574444E-01  2.2935425556E-01
                       2.1929950809E-01  7.7467297544E-01  7.8672800839E-01
                       7.5290394733E-01  2.5084566105E-01  7.4915433895E-01
                       2.1776073567E-01  7.7064574444E-01  2.2935425556E-01
                       7.8070049192E-01  2.1327199161E-01  2.2532702456E-01
                       2.1954349994E-18 -1.6292595903E-02  1.6292595903E-02
             xred3     2.5335241524E-01  2.5396589240E-01  2.5396589240E-01
                       7.6128420003E-01  7.4603410760E-01  7.4603410760E-01
                       2.2935385342E-01  2.1776117344E-01  7.8223882656E-01
                       7.4915370717E-01  7.5290403972E-01  2.4709596028E-01
                       2.2532695945E-01  7.8070100279E-01  7.8070100279E-01
                       7.4915370717E-01  2.4709596028E-01  7.5290403972E-01
                       2.2935385342E-01  7.8223882656E-01  2.1776117344E-01
                       7.8672896503E-01  2.1929899721E-01  2.1929899721E-01
                       1.6292339078E-02 -3.8233487079E-17 -3.8094345864E-17
             xred4     2.5000000000E-01  2.5000000000E-01  2.5000000000E-01
                       7.5000000000E-01  7.5000000000E-01  7.5000000000E-01
                       2.6262314937E-01  2.6262314937E-01  7.3737685063E-01
                       7.3737685063E-01  7.3737685063E-01  2.6262314937E-01
                       2.1707743210E-01  7.8292256790E-01  7.8292256790E-01
                       7.8292256790E-01  2.1707743210E-01  7.8292256790E-01
                       2.1707743210E-01  7.8292256790E-01  2.1707743210E-01
                       7.8292256790E-01  2.1707743210E-01  2.1707743210E-01
                      -2.4468407478E-22  1.7638736649E-21 -6.1650345005E-21
            znucl       55.00000   53.00000   40.00000   17.00000

================================================================================


- Timing analysis has been suppressed with timopt=0



================================================================================

 Suggested references for the acknowledgment of ABINIT usage.

 The users of ABINIT have little formal obligations with respect to the ABINIT group
 (those specified in the GNU General Public License, http://www.gnu.org/copyleft/gpl.txt).
 However, it is common practice in the scientific literature,
 to acknowledge the efforts of people that have made the research possible.
 In this spirit, please find below suggested citations of work written by ABINIT developers,
 corresponding to implementations inside of ABINIT that you have used in the present run.
 Note also that it will be of great value to readers of publications presenting these results,
 to read papers enabling them to understand the theoretical formalism and details
 of the ABINIT implementation.
 For information on why they are suggested, see also https://docs.abinit.org/theory/acknowledgments.
-
- [1] Implementation of the Projector Augmented-Wave Method in the ABINIT code.
- M. Torrent, F. Jollet, F. Bottin, G. Zerah, and X. Gonze Comput. Mat. Science 42, 337, (2008).
- Comment: PAW calculations. Strong suggestion to cite this paper.
- DOI and bibtex: see https://docs.abinit.org/theory/bibliography/#torrent2008
-
- [2] Libxc: A library of exchange and correlation functionals for density functional theory.
- M.A.L. Marques, M.J.T. Oliveira, T. Burnus, Computer Physics Communications 183, 2227 (2012).
- Comment: to be cited when LibXC is used (negative value of ixc)
- Strong suggestion to cite this paper.
- DOI and bibtex: see https://docs.abinit.org/theory/bibliography/#marques2012
-
- [3] The Abinit project: Impact, environment and recent developments.
- Computer Phys. Comm. 248, 107042 (2020).
- X.Gonze, B. Amadon, G. Antonius, F.Arnardi, L.Baguet, J.-M.Beuken,
- J.Bieder, F.Bottin, J.Bouchet, E.Bousquet, N.Brouwer, F.Bruneval,
- G.Brunin, T.Cavignac, J.-B. Charraud, Wei Chen, M.Cote, S.Cottenier,
- J.Denier, G.Geneste, Ph.Ghosez, M.Giantomassi, Y.Gillet, O.Gingras,
- D.R.Hamann, G.Hautier, Xu He, N.Helbig, N.Holzwarth, Y.Jia, F.Jollet,
- W.Lafargue-Dit-Hauret, K.Lejaeghere, M.A.L.Marques, A.Martin, C.Martins,
- H.P.C. Miranda, F.Naccarato, K. Persson, G.Petretto, V.Planes, Y.Pouillon,
- S.Prokhorenko, F.Ricci, G.-M.Rignanese, A.H.Romero, M.M.Schmitt, M.Torrent,
- M.J.van Setten, B.Van Troeye, M.J.Verstraete, G.Zerah and J.W.Zwanzig
- Comment: the fifth generic paper describing the ABINIT project.
- Note that a version of this paper, that is not formatted for Computer Phys. Comm. 
- is available at https://www.abinit.org/sites/default/files/ABINIT20.pdf .
- The licence allows the authors to put it on the Web.
- DOI and bibtex: see https://docs.abinit.org/theory/bibliography/#gonze2020
-
- [4] ABINIT: Overview, and focus on selected capabilities
- J. Chem. Phys. 152, 124102 (2020).
- A. Romero, D.C. Allan, B. Amadon, G. Antonius, T. Applencourt, L.Baguet,
- J.Bieder, F.Bottin, J.Bouchet, E.Bousquet, F.Bruneval,
- G.Brunin, D.Caliste, M.Cote,
- J.Denier, C. Dreyer, Ph.Ghosez, M.Giantomassi, Y.Gillet, O.Gingras,
- D.R.Hamann, G.Hautier, F.Jollet, G. Jomard,
- A.Martin, 
- H.P.C. Miranda, F.Naccarato, G.Petretto, N.A. Pike, V.Planes,
- S.Prokhorenko, T. Rangel, F.Ricci, G.-M.Rignanese, M.Royo, M.Stengel, M.Torrent,
- M.J.van Setten, B.Van Troeye, M.J.Verstraete, J.Wiktor, J.W.Zwanziger, and X.Gonze.
- Comment: a global overview of ABINIT, with focus on selected capabilities .
- Note that a version of this paper, that is not formatted for J. Chem. Phys 
- is available at https://www.abinit.org/sites/default/files/ABINIT20_JPC.pdf .
- The licence allows the authors to put it on the Web.
- DOI and bibtex: see https://docs.abinit.org/theory/bibliography/#romero2020
-
- [5] Recent developments in the ABINIT software package.
- Computer Phys. Comm. 205, 106 (2016).
- X.Gonze, F.Jollet, F.Abreu Araujo, D.Adams, B.Amadon, T.Applencourt,
- C.Audouze, J.-M.Beuken, J.Bieder, A.Bokhanchuk, E.Bousquet, F.Bruneval
- D.Caliste, M.Cote, F.Dahm, F.Da Pieve, M.Delaveau, M.Di Gennaro,
- B.Dorado, C.Espejo, G.Geneste, L.Genovese, A.Gerossier, M.Giantomassi,
- Y.Gillet, D.R.Hamann, L.He, G.Jomard, J.Laflamme Janssen, S.Le Roux,
- A.Levitt, A.Lherbier, F.Liu, I.Lukacevic, A.Martin, C.Martins,
- M.J.T.Oliveira, S.Ponce, Y.Pouillon, T.Rangel, G.-M.Rignanese,
- A.H.Romero, B.Rousseau, O.Rubel, A.A.Shukri, M.Stankovski, M.Torrent,
- M.J.Van Setten, B.Van Troeye, M.J.Verstraete, D.Waroquier, J.Wiktor,
- B.Xu, A.Zhou, J.W.Zwanziger.
- Comment: the fourth generic paper describing the ABINIT project.
- Note that a version of this paper, that is not formatted for Computer Phys. Comm. 
- is available at https://www.abinit.org/sites/default/files/ABINIT16.pdf .
- The licence allows the authors to put it on the Web.
- DOI and bibtex: see https://docs.abinit.org/theory/bibliography/#gonze2016
-
- Proc.   0 individual time (sec): cpu=       6985.3  wall=       7009.4

================================================================================

 Calculation completed.
.Delivered   0 WARNINGs and   1 COMMENTs to log file.
+Overall time at end (sec) : cpu=      27941.6  wall=      28037.2
