
.Version 9.2.2 of ABINIT 
.(MPI version, prepared for a x86_64_linux_gnu9.3 computer) 

.Copyright (C) 1998-2020 ABINIT group . 
 ABINIT comes with ABSOLUTELY NO WARRANTY.
 It is free software, and you are welcome to redistribute it
 under certain conditions (GNU General Public License,
 see ~abinit/COPYING or http://www.gnu.org/copyleft/gpl.txt).

 ABINIT is a project of the Universite Catholique de Louvain,
 Corning Inc. and other collaborators, see ~abinit/doc/developers/contributors.txt .
 Please read https://docs.abinit.org/theory/acknowledgments for suggested
 acknowledgments of the ABINIT effort.
 For more information, see https://www.abinit.org .

.Starting date : Thu 27 Jul 2023.
- ( at 14h40 )
  
- The starting date is more than 2 years after the initial release
- of this version of ABINIT, namely Nov 2020.
- Note that the use beyond 3 years after the release will not be supported.
- Action: please, switch to a more recent version of ABINIT.

- input  file    -> Cs2TiI6.in
- output file    -> Cs2TiI6.out
- root for input  files -> Cs2TiI6i
- root for output files -> Cs2TiI6o

- inpspheads : Reading pseudopotential header in XML form from 
-   ../../../Psps_for_tests/ATOMICDATA/Cs.GGA_PBE-JTH.xml
- inpspheads : Reading pseudopotential header in XML form from 
-   ../../../Psps_for_tests/ATOMICDATA/I.GGA_PBE-JTH.xml
- inpspheads : Reading pseudopotential header in XML form from 
-   ../../../Psps_for_tests/ATOMICDATA/Hf.GGA_PBE-JTH.xml

 DATASET    1 : space group Fm -3 m (#225); Bravais cF (face-center cubic)
================================================================================
 Values of the parameters that define the memory need for DATASET  1.
     intxc =       0    ionmov =       0      iscf =      17    lmnmax =      18
     lnmax =       6     mgfft =      60  mpssoang =       3    mqgrid =    3734
     natom =       9  nloc_mem =       2    nspden =       1   nspinor =       1
    nsppol =       1      nsym =      48    n1xccc =       1    ntypat =       3
    occopt =       1   xclevel =       2
-    mband =          42        mffmem =           1         mkmem =          12
       mpw =        9005          nfft =      216000          nkpt =          72
Pmy_natom=         2
 PAW method is used; the additional fine FFT grid is defined by:
   mgfftf=        96    nfftf =    884736
================================================================================
P This job should need less than                     324.397 Mbytes of memory.
  Rough estimation (10% accuracy) of disk space for files :
_ WF disk file :    415.516 Mbytes ; DEN or POT disk file :      6.752 Mbytes.
================================================================================


 DATASET    2 : space group Fm -3 m (#225); Bravais cF (face-center cubic)
================================================================================
 Values of the parameters that define the memory need for DATASET  2.
     intxc =       0    ionmov =       0      iscf =      17    lmnmax =      18
     lnmax =       6     mgfft =      60  mpssoang =       3    mqgrid =    3738
     natom =       9  nloc_mem =       2    nspden =       1   nspinor =       1
    nsppol =       1      nsym =      48    n1xccc =       1    ntypat =       3
    occopt =       1   xclevel =       2
-    mband =          42        mffmem =           1         mkmem =          12
       mpw =        9033          nfft =      216000          nkpt =          72
Pmy_natom=         2
 PAW method is used; the additional fine FFT grid is defined by:
   mgfftf=        96    nfftf =    884736
================================================================================
P This job should need less than                     324.628 Mbytes of memory.
  Rough estimation (10% accuracy) of disk space for files :
_ WF disk file :    416.808 Mbytes ; DEN or POT disk file :      6.752 Mbytes.
================================================================================


 DATASET    3 : space group Fm -3 m (#225); Bravais cF (face-center cubic)
================================================================================
 Values of the parameters that define the memory need for DATASET  3.
     intxc =       0    ionmov =       0      iscf =      17    lmnmax =      18
     lnmax =       6     mgfft =      60  mpssoang =       3    mqgrid =    3742
     natom =       9  nloc_mem =       2    nspden =       1   nspinor =       1
    nsppol =       1      nsym =      48    n1xccc =       1    ntypat =       3
    occopt =       1   xclevel =       2
-    mband =          42        mffmem =           1         mkmem =          12
       mpw =        9045          nfft =      216000          nkpt =          72
Pmy_natom=         2
 PAW method is used; the additional fine FFT grid is defined by:
   mgfftf=        96    nfftf =    884736
================================================================================
P This job should need less than                     324.721 Mbytes of memory.
  Rough estimation (10% accuracy) of disk space for files :
_ WF disk file :    417.362 Mbytes ; DEN or POT disk file :      6.752 Mbytes.
================================================================================


 DATASET    4 : space group Fm -3 m (#225); Bravais cF (face-center cubic)
================================================================================
 Values of the parameters that define the memory need for DATASET  4.
     intxc =       0    ionmov =       0      iscf =      17    lmnmax =      18
     lnmax =       6     mgfft =      60  mpssoang =       3    mqgrid =    3745
     natom =       9  nloc_mem =       2    nspden =       1   nspinor =       1
    nsppol =       1      nsym =      48    n1xccc =       1    ntypat =       3
    occopt =       1   xclevel =       2
-    mband =          42        mffmem =           1         mkmem =          12
       mpw =        9089          nfft =      216000          nkpt =          72
Pmy_natom=         2
 PAW method is used; the additional fine FFT grid is defined by:
   mgfftf=        96    nfftf =    884736
================================================================================
P This job should need less than                     325.090 Mbytes of memory.
  Rough estimation (10% accuracy) of disk space for files :
_ WF disk file :    419.392 Mbytes ; DEN or POT disk file :      6.752 Mbytes.
================================================================================


 DATASET    5 : space group Fm -3 m (#225); Bravais cF (face-center cubic)
================================================================================
 Values of the parameters that define the memory need for DATASET  5.
     intxc =       0    ionmov =       0      iscf =      17    lmnmax =      18
     lnmax =       6     mgfft =      60  mpssoang =       3    mqgrid =    3749
     natom =       9  nloc_mem =       2    nspden =       1   nspinor =       1
    nsppol =       1      nsym =      48    n1xccc =       1    ntypat =       3
    occopt =       1   xclevel =       2
-    mband =          42        mffmem =           1         mkmem =          12
       mpw =        9119          nfft =      216000          nkpt =          72
Pmy_natom=         2
 PAW method is used; the additional fine FFT grid is defined by:
   mgfftf=        96    nfftf =    884736
================================================================================
P This job should need less than                     325.338 Mbytes of memory.
  Rough estimation (10% accuracy) of disk space for files :
_ WF disk file :    420.776 Mbytes ; DEN or POT disk file :      6.752 Mbytes.
================================================================================


 DATASET    6 : space group Fm -3 m (#225); Bravais cF (face-center cubic)
================================================================================
 Values of the parameters that define the memory need for DATASET  6.
     intxc =       0    ionmov =       0      iscf =      17    lmnmax =      18
     lnmax =       6     mgfft =      60  mpssoang =       3    mqgrid =    3753
     natom =       9  nloc_mem =       2    nspden =       1   nspinor =       1
    nsppol =       1      nsym =      48    n1xccc =       1    ntypat =       3
    occopt =       1   xclevel =       2
-    mband =          42        mffmem =           1         mkmem =          12
       mpw =        9143          nfft =      216000          nkpt =          72
Pmy_natom=         2
 PAW method is used; the additional fine FFT grid is defined by:
   mgfftf=        96    nfftf =    884736
================================================================================
P This job should need less than                     325.535 Mbytes of memory.
  Rough estimation (10% accuracy) of disk space for files :
_ WF disk file :    421.884 Mbytes ; DEN or POT disk file :      6.752 Mbytes.
================================================================================


 DATASET    7 : space group Fm -3 m (#225); Bravais cF (face-center cubic)
================================================================================
 Values of the parameters that define the memory need for DATASET  7.
     intxc =       0    ionmov =       0      iscf =      17    lmnmax =      18
     lnmax =       6     mgfft =      60  mpssoang =       3    mqgrid =    3757
     natom =       9  nloc_mem =       2    nspden =       1   nspinor =       1
    nsppol =       1      nsym =      48    n1xccc =       1    ntypat =       3
    occopt =       1   xclevel =       2
-    mband =          42        mffmem =           1         mkmem =          12
       mpw =        9185          nfft =      216000          nkpt =          72
Pmy_natom=         2
 PAW method is used; the additional fine FFT grid is defined by:
   mgfftf=        96    nfftf =    884736
================================================================================
P This job should need less than                     325.887 Mbytes of memory.
  Rough estimation (10% accuracy) of disk space for files :
_ WF disk file :    423.822 Mbytes ; DEN or POT disk file :      6.752 Mbytes.
================================================================================


 DATASET    8 : space group Fm -3 m (#225); Bravais cF (face-center cubic)
================================================================================
 Values of the parameters that define the memory need for DATASET  8.
     intxc =       0    ionmov =       0      iscf =      17    lmnmax =      18
     lnmax =       6     mgfft =      60  mpssoang =       3    mqgrid =    3760
     natom =       9  nloc_mem =       2    nspden =       1   nspinor =       1
    nsppol =       1      nsym =      48    n1xccc =       1    ntypat =       3
    occopt =       1   xclevel =       2
-    mband =          42        mffmem =           1         mkmem =          12
       mpw =        9225          nfft =      216000          nkpt =          72
Pmy_natom=         2
 PAW method is used; the additional fine FFT grid is defined by:
   mgfftf=        96    nfftf =    884736
================================================================================
P This job should need less than                     326.222 Mbytes of memory.
  Rough estimation (10% accuracy) of disk space for files :
_ WF disk file :    425.667 Mbytes ; DEN or POT disk file :      6.752 Mbytes.
================================================================================


 DATASET    9 : space group Fm -3 m (#225); Bravais cF (face-center cubic)
================================================================================
 Values of the parameters that define the memory need for DATASET  9.
     intxc =       0    ionmov =       0      iscf =      17    lmnmax =      18
     lnmax =       6     mgfft =      60  mpssoang =       3    mqgrid =    3764
     natom =       9  nloc_mem =       2    nspden =       1   nspinor =       1
    nsppol =       1      nsym =      48    n1xccc =       1    ntypat =       3
    occopt =       1   xclevel =       2
-    mband =          42        mffmem =           1         mkmem =          12
       mpw =        9257          nfft =      216000          nkpt =          72
Pmy_natom=         2
 PAW method is used; the additional fine FFT grid is defined by:
   mgfftf=        96    nfftf =    884736
================================================================================
P This job should need less than                     326.488 Mbytes of memory.
  Rough estimation (10% accuracy) of disk space for files :
_ WF disk file :    427.144 Mbytes ; DEN or POT disk file :      6.752 Mbytes.
================================================================================


 DATASET   10 : space group Fm -3 m (#225); Bravais cF (face-center cubic)
================================================================================
 Values of the parameters that define the memory need for DATASET 10.
     intxc =       0    ionmov =       0      iscf =      17    lmnmax =      18
     lnmax =       6     mgfft =      60  mpssoang =       3    mqgrid =    3768
     natom =       9  nloc_mem =       2    nspden =       1   nspinor =       1
    nsppol =       1      nsym =      48    n1xccc =       1    ntypat =       3
    occopt =       1   xclevel =       2
-    mband =          42        mffmem =           1         mkmem =          12
       mpw =        9269          nfft =      216000          nkpt =          72
Pmy_natom=         2
 PAW method is used; the additional fine FFT grid is defined by:
   mgfftf=        96    nfftf =    884736
================================================================================
P This job should need less than                     326.581 Mbytes of memory.
  Rough estimation (10% accuracy) of disk space for files :
_ WF disk file :    427.698 Mbytes ; DEN or POT disk file :      6.752 Mbytes.
================================================================================


 DATASET   11 : space group Fm -3 m (#225); Bravais cF (face-center cubic)
================================================================================
 Values of the parameters that define the memory need for DATASET 11.
     intxc =       0    ionmov =       0      iscf =      17    lmnmax =      18
     lnmax =       6     mgfft =      60  mpssoang =       3    mqgrid =    3775
     natom =       9  nloc_mem =       2    nspden =       1   nspinor =       1
    nsppol =       1      nsym =      48    n1xccc =       1    ntypat =       3
    occopt =       1   xclevel =       2
-    mband =          42        mffmem =           1         mkmem =          12
       mpw =        9309          nfft =      216000          nkpt =          72
Pmy_natom=         2
 PAW method is used; the additional fine FFT grid is defined by:
   mgfftf=        96    nfftf =    884736
================================================================================
P This job should need less than                     326.905 Mbytes of memory.
  Rough estimation (10% accuracy) of disk space for files :
_ WF disk file :    429.543 Mbytes ; DEN or POT disk file :      6.752 Mbytes.
================================================================================


 DATASET   12 : space group Fm -3 m (#225); Bravais cF (face-center cubic)
================================================================================
 Values of the parameters that define the memory need for DATASET 12.
     intxc =       0    ionmov =       0      iscf =      17    lmnmax =      18
     lnmax =       6     mgfft =      60  mpssoang =       3    mqgrid =    3783
     natom =       9  nloc_mem =       2    nspden =       1   nspinor =       1
    nsppol =       1      nsym =      48    n1xccc =       1    ntypat =       3
    occopt =       1   xclevel =       2
-    mband =          42        mffmem =           1         mkmem =          12
       mpw =        9353          nfft =      216000          nkpt =          72
Pmy_natom=         2
 PAW method is used; the additional fine FFT grid is defined by:
   mgfftf=        96    nfftf =    884736
================================================================================
P This job should need less than                     327.265 Mbytes of memory.
  Rough estimation (10% accuracy) of disk space for files :
_ WF disk file :    431.574 Mbytes ; DEN or POT disk file :      6.752 Mbytes.
================================================================================


 DATASET   13 : space group Fm -3 m (#225); Bravais cF (face-center cubic)
================================================================================
 Values of the parameters that define the memory need for DATASET 13.
     intxc =       0    ionmov =       0      iscf =      17    lmnmax =      18
     lnmax =       6     mgfft =      60  mpssoang =       3    mqgrid =    3790
     natom =       9  nloc_mem =       2    nspden =       1   nspinor =       1
    nsppol =       1      nsym =      48    n1xccc =       1    ntypat =       3
    occopt =       1   xclevel =       2
-    mband =          42        mffmem =           1         mkmem =          12
       mpw =        9405          nfft =      216000          nkpt =          72
Pmy_natom=         2
 PAW method is used; the additional fine FFT grid is defined by:
   mgfftf=        96    nfftf =    884736
================================================================================
P This job should need less than                     327.693 Mbytes of memory.
  Rough estimation (10% accuracy) of disk space for files :
_ WF disk file :    433.973 Mbytes ; DEN or POT disk file :      6.752 Mbytes.
================================================================================


 DATASET   14 : space group Fm -3 m (#225); Bravais cF (face-center cubic)
================================================================================
 Values of the parameters that define the memory need for DATASET 14.
     intxc =       0    ionmov =       0      iscf =      17    lmnmax =      18
     lnmax =       6     mgfft =      60  mpssoang =       3    mqgrid =    3798
     natom =       9  nloc_mem =       2    nspden =       1   nspinor =       1
    nsppol =       1      nsym =      48    n1xccc =       1    ntypat =       3
    occopt =       1   xclevel =       2
-    mband =          42        mffmem =           1         mkmem =          12
       mpw =        9459          nfft =      216000          nkpt =          72
Pmy_natom=         2
 PAW method is used; the additional fine FFT grid is defined by:
   mgfftf=        96    nfftf =    884736
================================================================================
P This job should need less than                     328.139 Mbytes of memory.
  Rough estimation (10% accuracy) of disk space for files :
_ WF disk file :    436.465 Mbytes ; DEN or POT disk file :      6.752 Mbytes.
================================================================================


 DATASET   15 : space group Fm -3 m (#225); Bravais cF (face-center cubic)
================================================================================
 Values of the parameters that define the memory need for DATASET 15.
     intxc =       0    ionmov =       0      iscf =      17    lmnmax =      18
     lnmax =       6     mgfft =      60  mpssoang =       3    mqgrid =    3805
     natom =       9  nloc_mem =       2    nspden =       1   nspinor =       1
    nsppol =       1      nsym =      48    n1xccc =       1    ntypat =       3
    occopt =       1   xclevel =       2
-    mband =          42        mffmem =           1         mkmem =          12
       mpw =        9511          nfft =      216000          nkpt =          72
Pmy_natom=         2
 PAW method is used; the additional fine FFT grid is defined by:
   mgfftf=        96    nfftf =    884736
================================================================================
P This job should need less than                     328.568 Mbytes of memory.
  Rough estimation (10% accuracy) of disk space for files :
_ WF disk file :    438.864 Mbytes ; DEN or POT disk file :      6.752 Mbytes.
================================================================================


 DATASET   16 : space group Fm -3 m (#225); Bravais cF (face-center cubic)
================================================================================
 Values of the parameters that define the memory need for DATASET 16.
     intxc =       0    ionmov =       0      iscf =      17    lmnmax =      18
     lnmax =       6     mgfft =      60  mpssoang =       3    mqgrid =    3813
     natom =       9  nloc_mem =       2    nspden =       1   nspinor =       1
    nsppol =       1      nsym =      48    n1xccc =       1    ntypat =       3
    occopt =       1   xclevel =       2
-    mband =          42        mffmem =           1         mkmem =          12
       mpw =        9571          nfft =      216000          nkpt =          72
Pmy_natom=         2
 PAW method is used; the additional fine FFT grid is defined by:
   mgfftf=        96    nfftf =    884736
================================================================================
P This job should need less than                     329.066 Mbytes of memory.
  Rough estimation (10% accuracy) of disk space for files :
_ WF disk file :    441.633 Mbytes ; DEN or POT disk file :      6.752 Mbytes.
================================================================================


 DATASET   17 : space group Fm -3 m (#225); Bravais cF (face-center cubic)
================================================================================
 Values of the parameters that define the memory need for DATASET 17.
     intxc =       0    ionmov =       0      iscf =      17    lmnmax =      18
     lnmax =       6     mgfft =      60  mpssoang =       3    mqgrid =    3820
     natom =       9  nloc_mem =       2    nspden =       1   nspinor =       1
    nsppol =       1      nsym =      48    n1xccc =       1    ntypat =       3
    occopt =       1   xclevel =       2
-    mband =          42        mffmem =           1         mkmem =          12
       mpw =        9627          nfft =      216000          nkpt =          72
Pmy_natom=         2
 PAW method is used; the additional fine FFT grid is defined by:
   mgfftf=        96    nfftf =    884736
================================================================================
P This job should need less than                     329.530 Mbytes of memory.
  Rough estimation (10% accuracy) of disk space for files :
_ WF disk file :    444.217 Mbytes ; DEN or POT disk file :      6.752 Mbytes.
================================================================================


 DATASET   18 : space group Fm -3 m (#225); Bravais cF (face-center cubic)
================================================================================
 Values of the parameters that define the memory need for DATASET 18.
     intxc =       0    ionmov =       0      iscf =      17    lmnmax =      18
     lnmax =       6     mgfft =      60  mpssoang =       3    mqgrid =    3827
     natom =       9  nloc_mem =       2    nspden =       1   nspinor =       1
    nsppol =       1      nsym =      48    n1xccc =       1    ntypat =       3
    occopt =       1   xclevel =       2
-    mband =          42        mffmem =           1         mkmem =          12
       mpw =        9676          nfft =      216000          nkpt =          72
Pmy_natom=         2
 PAW method is used; the additional fine FFT grid is defined by:
   mgfftf=        96    nfftf =    884736
================================================================================
P This job should need less than                     329.933 Mbytes of memory.
  Rough estimation (10% accuracy) of disk space for files :
_ WF disk file :    446.478 Mbytes ; DEN or POT disk file :      6.752 Mbytes.
================================================================================


 DATASET   19 : space group Fm -3 m (#225); Bravais cF (face-center cubic)
================================================================================
 Values of the parameters that define the memory need for DATASET 19.
     intxc =       0    ionmov =       0      iscf =      17    lmnmax =      18
     lnmax =       6     mgfft =      60  mpssoang =       3    mqgrid =    3835
     natom =       9  nloc_mem =       2    nspden =       1   nspinor =       1
    nsppol =       1      nsym =      48    n1xccc =       1    ntypat =       3
    occopt =       1   xclevel =       2
-    mband =          42        mffmem =           1         mkmem =          12
       mpw =        9723          nfft =      216000          nkpt =          72
Pmy_natom=         2
 PAW method is used; the additional fine FFT grid is defined by:
   mgfftf=        96    nfftf =    884736
================================================================================
P This job should need less than                     330.320 Mbytes of memory.
  Rough estimation (10% accuracy) of disk space for files :
_ WF disk file :    448.646 Mbytes ; DEN or POT disk file :      6.752 Mbytes.
================================================================================


 DATASET   20 : space group Fm -3 m (#225); Bravais cF (face-center cubic)
================================================================================
 Values of the parameters that define the memory need for DATASET 20.
     intxc =       0    ionmov =       0      iscf =      17    lmnmax =      18
     lnmax =       6     mgfft =      60  mpssoang =       3    mqgrid =    3842
     natom =       9  nloc_mem =       2    nspden =       1   nspinor =       1
    nsppol =       1      nsym =      48    n1xccc =       1    ntypat =       3
    occopt =       1   xclevel =       2
-    mband =          42        mffmem =           1         mkmem =          12
       mpw =        9781          nfft =      216000          nkpt =          72
Pmy_natom=         2
 PAW method is used; the additional fine FFT grid is defined by:
   mgfftf=        96    nfftf =    884736
================================================================================
P This job should need less than                     330.801 Mbytes of memory.
  Rough estimation (10% accuracy) of disk space for files :
_ WF disk file :    451.323 Mbytes ; DEN or POT disk file :      6.752 Mbytes.
================================================================================


 DATASET   21 : space group Fm -3 m (#225); Bravais cF (face-center cubic)
================================================================================
 Values of the parameters that define the memory need for DATASET 21.
     intxc =       0    ionmov =       0      iscf =      17    lmnmax =      18
     lnmax =       6     mgfft =      60  mpssoang =       3    mqgrid =    3854
     natom =       9  nloc_mem =       2    nspden =       1   nspinor =       1
    nsppol =       1      nsym =      48    n1xccc =       1    ntypat =       3
    occopt =       1   xclevel =       2
-    mband =          42        mffmem =           1         mkmem =          12
       mpw =        9912          nfft =      216000          nkpt =          72
Pmy_natom=         2
 PAW method is used; the additional fine FFT grid is defined by:
   mgfftf=        96    nfftf =    884736
================================================================================
P This job should need less than                     331.905 Mbytes of memory.
  Rough estimation (10% accuracy) of disk space for files :
_ WF disk file :    457.367 Mbytes ; DEN or POT disk file :      6.752 Mbytes.
================================================================================


 DATASET   22 : space group Fm -3 m (#225); Bravais cF (face-center cubic)
================================================================================
 Values of the parameters that define the memory need for DATASET 22.
     intxc =       0    ionmov =       0      iscf =      17    lmnmax =      18
     lnmax =       6     mgfft =      60  mpssoang =       3    mqgrid =    3865
     natom =       9  nloc_mem =       2    nspden =       1   nspinor =       1
    nsppol =       1      nsym =      48    n1xccc =       1    ntypat =       3
    occopt =       1   xclevel =       2
-    mband =          42        mffmem =           1         mkmem =          12
       mpw =        9964          nfft =      216000          nkpt =          72
Pmy_natom=         2
 PAW method is used; the additional fine FFT grid is defined by:
   mgfftf=        96    nfftf =    884736
================================================================================
P This job should need less than                     332.325 Mbytes of memory.
  Rough estimation (10% accuracy) of disk space for files :
_ WF disk file :    459.767 Mbytes ; DEN or POT disk file :      6.752 Mbytes.
================================================================================


 DATASET   23 : space group Fm -3 m (#225); Bravais cF (face-center cubic)
================================================================================
 Values of the parameters that define the memory need for DATASET 23.
     intxc =       0    ionmov =       0      iscf =      17    lmnmax =      18
     lnmax =       6     mgfft =      64  mpssoang =       3    mqgrid =    3876
     natom =       9  nloc_mem =       2    nspden =       1   nspinor =       1
    nsppol =       1      nsym =      48    n1xccc =       1    ntypat =       3
    occopt =       1   xclevel =       2
-    mband =          42        mffmem =           1         mkmem =          12
       mpw =       10053          nfft =      262144          nkpt =          72
Pmy_natom=         2
 PAW method is used; the additional fine FFT grid is defined by:
   mgfftf=        96    nfftf =    884736
================================================================================
P This job should need less than                     339.934 Mbytes of memory.
  Rough estimation (10% accuracy) of disk space for files :
_ WF disk file :    463.873 Mbytes ; DEN or POT disk file :      6.752 Mbytes.
================================================================================


 DATASET   24 : space group Fm -3 m (#225); Bravais cF (face-center cubic)
================================================================================
 Values of the parameters that define the memory need for DATASET 24.
     intxc =       0    ionmov =       0      iscf =      17    lmnmax =      18
     lnmax =       6     mgfft =      64  mpssoang =       3    mqgrid =    3887
     natom =       9  nloc_mem =       2    nspden =       1   nspinor =       1
    nsppol =       1      nsym =      48    n1xccc =       1    ntypat =       3
    occopt =       1   xclevel =       2
-    mband =          42        mffmem =           1         mkmem =          12
       mpw =       10134          nfft =      262144          nkpt =          72
Pmy_natom=         2
 PAW method is used; the additional fine FFT grid is defined by:
   mgfftf=        96    nfftf =    884736
================================================================================
P This job should need less than                     340.606 Mbytes of memory.
  Rough estimation (10% accuracy) of disk space for files :
_ WF disk file :    467.611 Mbytes ; DEN or POT disk file :      6.752 Mbytes.
================================================================================


 DATASET   25 : space group Fm -3 m (#225); Bravais cF (face-center cubic)
================================================================================
 Values of the parameters that define the memory need for DATASET 25.
     intxc =       0    ionmov =       0      iscf =      17    lmnmax =      18
     lnmax =       6     mgfft =      64  mpssoang =       3    mqgrid =    3898
     natom =       9  nloc_mem =       2    nspden =       1   nspinor =       1
    nsppol =       1      nsym =      48    n1xccc =       1    ntypat =       3
    occopt =       1   xclevel =       2
-    mband =          42        mffmem =           1         mkmem =          12
       mpw =       10233          nfft =      262144          nkpt =          72
Pmy_natom=         2
 PAW method is used; the additional fine FFT grid is defined by:
   mgfftf=        96    nfftf =    884736
================================================================================
P This job should need less than                     341.434 Mbytes of memory.
  Rough estimation (10% accuracy) of disk space for files :
_ WF disk file :    472.179 Mbytes ; DEN or POT disk file :      6.752 Mbytes.
================================================================================


 DATASET   26 : space group Fm -3 m (#225); Bravais cF (face-center cubic)
================================================================================
 Values of the parameters that define the memory need for DATASET 26.
     intxc =       0    ionmov =       0      iscf =      17    lmnmax =      18
     lnmax =       6     mgfft =      64  mpssoang =       3    mqgrid =    3910
     natom =       9  nloc_mem =       2    nspden =       1   nspinor =       1
    nsppol =       1      nsym =      48    n1xccc =       1    ntypat =       3
    occopt =       1   xclevel =       2
-    mband =          42        mffmem =           1         mkmem =          12
       mpw =       10308          nfft =      262144          nkpt =          72
Pmy_natom=         2
 PAW method is used; the additional fine FFT grid is defined by:
   mgfftf=        96    nfftf =    884736
================================================================================
P This job should need less than                     342.055 Mbytes of memory.
  Rough estimation (10% accuracy) of disk space for files :
_ WF disk file :    475.640 Mbytes ; DEN or POT disk file :      6.752 Mbytes.
================================================================================


 DATASET   27 : space group Fm -3 m (#225); Bravais cF (face-center cubic)
================================================================================
 Values of the parameters that define the memory need for DATASET 27.
     intxc =       0    ionmov =       0      iscf =      17    lmnmax =      18
     lnmax =       6     mgfft =      64  mpssoang =       3    mqgrid =    3921
     natom =       9  nloc_mem =       2    nspden =       1   nspinor =       1
    nsppol =       1      nsym =      48    n1xccc =       1    ntypat =       3
    occopt =       1   xclevel =       2
-    mband =          42        mffmem =           1         mkmem =          12
       mpw =       10395          nfft =      262144          nkpt =          72
Pmy_natom=         2
 PAW method is used; the additional fine FFT grid is defined by:
   mgfftf=       100    nfftf =   1000000
================================================================================
P This job should need less than                     370.074 Mbytes of memory.
  Rough estimation (10% accuracy) of disk space for files :
_ WF disk file :    479.654 Mbytes ; DEN or POT disk file :      7.631 Mbytes.
================================================================================


 DATASET   28 : space group Fm -3 m (#225); Bravais cF (face-center cubic)
================================================================================
 Values of the parameters that define the memory need for DATASET 28.
     intxc =       0    ionmov =       0      iscf =      17    lmnmax =      18
     lnmax =       6     mgfft =      64  mpssoang =       3    mqgrid =    3932
     natom =       9  nloc_mem =       2    nspden =       1   nspinor =       1
    nsppol =       1      nsym =      48    n1xccc =       1    ntypat =       3
    occopt =       1   xclevel =       2
-    mband =          42        mffmem =           1         mkmem =          12
       mpw =       10484          nfft =      262144          nkpt =          72
Pmy_natom=         2
 PAW method is used; the additional fine FFT grid is defined by:
   mgfftf=       100    nfftf =   1000000
================================================================================
P This job should need less than                     370.813 Mbytes of memory.
  Rough estimation (10% accuracy) of disk space for files :
_ WF disk file :    483.761 Mbytes ; DEN or POT disk file :      7.631 Mbytes.
================================================================================


 DATASET   29 : space group Fm -3 m (#225); Bravais cF (face-center cubic)
================================================================================
 Values of the parameters that define the memory need for DATASET 29.
     intxc =       0    ionmov =       0      iscf =      17    lmnmax =      18
     lnmax =       6     mgfft =      64  mpssoang =       3    mqgrid =    3943
     natom =       9  nloc_mem =       2    nspden =       1   nspinor =       1
    nsppol =       1      nsym =      48    n1xccc =       1    ntypat =       3
    occopt =       1   xclevel =       2
-    mband =          42        mffmem =           1         mkmem =          12
       mpw =       10585          nfft =      262144          nkpt =          72
Pmy_natom=         2
 PAW method is used; the additional fine FFT grid is defined by:
   mgfftf=       100    nfftf =   1000000
================================================================================
P This job should need less than                     371.656 Mbytes of memory.
  Rough estimation (10% accuracy) of disk space for files :
_ WF disk file :    488.421 Mbytes ; DEN or POT disk file :      7.631 Mbytes.
================================================================================


 DATASET   30 : space group Fm -3 m (#225); Bravais cF (face-center cubic)
================================================================================
 Values of the parameters that define the memory need for DATASET 30.
     intxc =       0    ionmov =       0      iscf =      17    lmnmax =      18
     lnmax =       6     mgfft =      64  mpssoang =       3    mqgrid =    3954
     natom =       9  nloc_mem =       2    nspden =       1   nspinor =       1
    nsppol =       1      nsym =      48    n1xccc =       1    ntypat =       3
    occopt =       1   xclevel =       2
-    mband =          42        mffmem =           1         mkmem =          12
       mpw =       10693          nfft =      262144          nkpt =          72
Pmy_natom=         2
 PAW method is used; the additional fine FFT grid is defined by:
   mgfftf=       100    nfftf =   1000000
================================================================================
P This job should need less than                     372.559 Mbytes of memory.
  Rough estimation (10% accuracy) of disk space for files :
_ WF disk file :    493.405 Mbytes ; DEN or POT disk file :      7.631 Mbytes.
================================================================================


 DATASET   31 : space group Fm -3 m (#225); Bravais cF (face-center cubic)
================================================================================
 Values of the parameters that define the memory need for DATASET 31.
     intxc =       0    ionmov =       0      iscf =      17    lmnmax =      18
     lnmax =       6     mgfft =      64  mpssoang =       3    mqgrid =    3969
     natom =       9  nloc_mem =       2    nspden =       1   nspinor =       1
    nsppol =       1      nsym =      48    n1xccc =       1    ntypat =       3
    occopt =       1   xclevel =       2
-    mband =          42        mffmem =           1         mkmem =          12
       mpw =       10850          nfft =      262144          nkpt =          72
Pmy_natom=         2
 PAW method is used; the additional fine FFT grid is defined by:
   mgfftf=       100    nfftf =   1000000
================================================================================
P This job should need less than                     373.877 Mbytes of memory.
  Rough estimation (10% accuracy) of disk space for files :
_ WF disk file :    500.649 Mbytes ; DEN or POT disk file :      7.631 Mbytes.
================================================================================


 DATASET   32 : space group Fm -3 m (#225); Bravais cF (face-center cubic)
================================================================================
 Values of the parameters that define the memory need for DATASET 32.
     intxc =       0    ionmov =       0      iscf =      17    lmnmax =      18
     lnmax =       6     mgfft =      64  mpssoang =       3    mqgrid =    3984
     natom =       9  nloc_mem =       2    nspden =       1   nspinor =       1
    nsppol =       1      nsym =      48    n1xccc =       1    ntypat =       3
    occopt =       1   xclevel =       2
-    mband =          42        mffmem =           1         mkmem =          12
       mpw =       10919          nfft =      262144          nkpt =          72
Pmy_natom=         2
 PAW method is used; the additional fine FFT grid is defined by:
   mgfftf=       100    nfftf =   1000000
================================================================================
P This job should need less than                     374.435 Mbytes of memory.
  Rough estimation (10% accuracy) of disk space for files :
_ WF disk file :    503.833 Mbytes ; DEN or POT disk file :      7.631 Mbytes.
================================================================================


 DATASET   33 : space group Fm -3 m (#225); Bravais cF (face-center cubic)
================================================================================
 Values of the parameters that define the memory need for DATASET 33.
     intxc =       0    ionmov =       0      iscf =      17    lmnmax =      18
     lnmax =       6     mgfft =      64  mpssoang =       3    mqgrid =    3999
     natom =       9  nloc_mem =       2    nspden =       1   nspinor =       1
    nsppol =       1      nsym =      48    n1xccc =       1    ntypat =       3
    occopt =       1   xclevel =       2
-    mband =          42        mffmem =           1         mkmem =          12
       mpw =       11046          nfft =      262144          nkpt =          72
Pmy_natom=         2
 PAW method is used; the additional fine FFT grid is defined by:
   mgfftf=       100    nfftf =   1000000
================================================================================
P This job should need less than                     375.495 Mbytes of memory.
  Rough estimation (10% accuracy) of disk space for files :
_ WF disk file :    509.693 Mbytes ; DEN or POT disk file :      7.631 Mbytes.
================================================================================


 DATASET   34 : space group Fm -3 m (#225); Bravais cF (face-center cubic)
================================================================================
 Values of the parameters that define the memory need for DATASET 34.
     intxc =       0    ionmov =       0      iscf =      17    lmnmax =      18
     lnmax =       6     mgfft =      64  mpssoang =       3    mqgrid =    4014
     natom =       9  nloc_mem =       2    nspden =       1   nspinor =       1
    nsppol =       1      nsym =      48    n1xccc =       1    ntypat =       3
    occopt =       1   xclevel =       2
-    mband =          42        mffmem =           1         mkmem =          12
       mpw =       11169          nfft =      262144          nkpt =          72
Pmy_natom=         2
 PAW method is used; the additional fine FFT grid is defined by:
   mgfftf=       100    nfftf =   1000000
================================================================================
P This job should need less than                     376.520 Mbytes of memory.
  Rough estimation (10% accuracy) of disk space for files :
_ WF disk file :    515.368 Mbytes ; DEN or POT disk file :      7.631 Mbytes.
================================================================================


 DATASET   35 : space group Fm -3 m (#225); Bravais cF (face-center cubic)
================================================================================
 Values of the parameters that define the memory need for DATASET 35.
     intxc =       0    ionmov =       0      iscf =      17    lmnmax =      18
     lnmax =       6     mgfft =      64  mpssoang =       3    mqgrid =    4029
     natom =       9  nloc_mem =       2    nspden =       1   nspinor =       1
    nsppol =       1      nsym =      48    n1xccc =       1    ntypat =       3
    occopt =       1   xclevel =       2
-    mband =          42        mffmem =           1         mkmem =          12
       mpw =       11294          nfft =      262144          nkpt =          72
Pmy_natom=         2
 PAW method is used; the additional fine FFT grid is defined by:
   mgfftf=       100    nfftf =   1000000
================================================================================
P This job should need less than                     377.564 Mbytes of memory.
  Rough estimation (10% accuracy) of disk space for files :
_ WF disk file :    521.136 Mbytes ; DEN or POT disk file :      7.631 Mbytes.
================================================================================


 DATASET   36 : space group Fm -3 m (#225); Bravais cF (face-center cubic)
================================================================================
 Values of the parameters that define the memory need for DATASET 36.
     intxc =       0    ionmov =       0      iscf =      17    lmnmax =      18
     lnmax =       6     mgfft =      64  mpssoang =       3    mqgrid =    4044
     natom =       9  nloc_mem =       2    nspden =       1   nspinor =       1
    nsppol =       1      nsym =      48    n1xccc =       1    ntypat =       3
    occopt =       1   xclevel =       2
-    mband =          42        mffmem =           1         mkmem =          12
       mpw =       11412          nfft =      262144          nkpt =          72
Pmy_natom=         2
 PAW method is used; the additional fine FFT grid is defined by:
   mgfftf=       100    nfftf =   1000000
================================================================================
P This job should need less than                     378.548 Mbytes of memory.
  Rough estimation (10% accuracy) of disk space for files :
_ WF disk file :    526.581 Mbytes ; DEN or POT disk file :      7.631 Mbytes.
================================================================================


 DATASET   37 : space group Fm -3 m (#225); Bravais cF (face-center cubic)
================================================================================
 Values of the parameters that define the memory need for DATASET 37.
     intxc =       0    ionmov =       0      iscf =      17    lmnmax =      18
     lnmax =       6     mgfft =      64  mpssoang =       3    mqgrid =    4059
     natom =       9  nloc_mem =       2    nspden =       1   nspinor =       1
    nsppol =       1      nsym =      48    n1xccc =       1    ntypat =       3
    occopt =       1   xclevel =       2
-    mband =          42        mffmem =           1         mkmem =          12
       mpw =       11543          nfft =      262144          nkpt =          72
Pmy_natom=         2
 PAW method is used; the additional fine FFT grid is defined by:
   mgfftf=       100    nfftf =   1000000
================================================================================
P This job should need less than                     379.645 Mbytes of memory.
  Rough estimation (10% accuracy) of disk space for files :
_ WF disk file :    532.626 Mbytes ; DEN or POT disk file :      7.631 Mbytes.
================================================================================


 DATASET   38 : space group Fm -3 m (#225); Bravais cF (face-center cubic)
================================================================================
 Values of the parameters that define the memory need for DATASET 38.
     intxc =       0    ionmov =       0      iscf =      17    lmnmax =      18
     lnmax =       6     mgfft =      64  mpssoang =       3    mqgrid =    4074
     natom =       9  nloc_mem =       2    nspden =       1   nspinor =       1
    nsppol =       1      nsym =      48    n1xccc =       1    ntypat =       3
    occopt =       1   xclevel =       2
-    mband =          42        mffmem =           1         mkmem =          12
       mpw =       11656          nfft =      262144          nkpt =          72
Pmy_natom=         2
 PAW method is used; the additional fine FFT grid is defined by:
   mgfftf=       100    nfftf =   1000000
================================================================================
P This job should need less than                     380.587 Mbytes of memory.
  Rough estimation (10% accuracy) of disk space for files :
_ WF disk file :    537.840 Mbytes ; DEN or POT disk file :      7.631 Mbytes.
================================================================================


 DATASET   39 : space group Fm -3 m (#225); Bravais cF (face-center cubic)
================================================================================
 Values of the parameters that define the memory need for DATASET 39.
     intxc =       0    ionmov =       0      iscf =      17    lmnmax =      18
     lnmax =       6     mgfft =      64  mpssoang =       3    mqgrid =    4089
     natom =       9  nloc_mem =       2    nspden =       1   nspinor =       1
    nsppol =       1      nsym =      48    n1xccc =       1    ntypat =       3
    occopt =       1   xclevel =       2
-    mband =          42        mffmem =           1         mkmem =          12
       mpw =       11800          nfft =      262144          nkpt =          72
Pmy_natom=         2
 PAW method is used; the additional fine FFT grid is defined by:
   mgfftf=       108    nfftf =   1259712
================================================================================
P This job should need less than                     443.174 Mbytes of memory.
  Rough estimation (10% accuracy) of disk space for files :
_ WF disk file :    544.484 Mbytes ; DEN or POT disk file :      9.613 Mbytes.
================================================================================


 DATASET   40 : space group Fm -3 m (#225); Bravais cF (face-center cubic)
================================================================================
 Values of the parameters that define the memory need for DATASET 40.
     intxc =       0    ionmov =       0      iscf =      17    lmnmax =      18
     lnmax =       6     mgfft =      64  mpssoang =       3    mqgrid =    4103
     natom =       9  nloc_mem =       2    nspden =       1   nspinor =       1
    nsppol =       1      nsym =      48    n1xccc =       1    ntypat =       3
    occopt =       1   xclevel =       2
-    mband =          42        mffmem =           1         mkmem =          12
       mpw =       11912          nfft =      262144          nkpt =          72
Pmy_natom=         2
 PAW method is used; the additional fine FFT grid is defined by:
   mgfftf=       108    nfftf =   1259712
================================================================================
P This job should need less than                     444.099 Mbytes of memory.
  Rough estimation (10% accuracy) of disk space for files :
_ WF disk file :    549.652 Mbytes ; DEN or POT disk file :      9.613 Mbytes.
================================================================================

--------------------------------------------------------------------------------
------------- Echo of variables that govern the present computation ------------
--------------------------------------------------------------------------------
-
- outvars: echo of selected default values                                      
-   iomode0 =  0 , fftalg0 =112 , wfoptalg0 = 10
-
- outvars: echo of global parameters not present in the input file              
-  max_nthreads =    0
-
 -outvars: echo values of preprocessed input variables --------
            acell1     1.6061709500E+01  1.6061709500E+01  1.6061709500E+01 Bohr
            acell2     1.6077755164E+01  1.6077755164E+01  1.6077755164E+01 Bohr
            acell3     1.6093800828E+01  1.6093800828E+01  1.6093800828E+01 Bohr
            acell4     1.6109846491E+01  1.6109846491E+01  1.6109846491E+01 Bohr
            acell5     1.6125892155E+01  1.6125892155E+01  1.6125892155E+01 Bohr
            acell6     1.6141937819E+01  1.6141937819E+01  1.6141937819E+01 Bohr
            acell7     1.6157983483E+01  1.6157983483E+01  1.6157983483E+01 Bohr
            acell8     1.6174029147E+01  1.6174029147E+01  1.6174029147E+01 Bohr
            acell9     1.6190074811E+01  1.6190074811E+01  1.6190074811E+01 Bohr
            acell10    1.6206120474E+01  1.6206120474E+01  1.6206120474E+01 Bohr
            acell11    1.6238211802E+01  1.6238211802E+01  1.6238211802E+01 Bohr
            acell12    1.6270303130E+01  1.6270303130E+01  1.6270303130E+01 Bohr
            acell13    1.6302394457E+01  1.6302394457E+01  1.6302394457E+01 Bohr
            acell14    1.6334485785E+01  1.6334485785E+01  1.6334485785E+01 Bohr
            acell15    1.6366577113E+01  1.6366577113E+01  1.6366577113E+01 Bohr
            acell16    1.6398668440E+01  1.6398668440E+01  1.6398668440E+01 Bohr
            acell17    1.6430759768E+01  1.6430759768E+01  1.6430759768E+01 Bohr
            acell18    1.6462851096E+01  1.6462851096E+01  1.6462851096E+01 Bohr
            acell19    1.6494942423E+01  1.6494942423E+01  1.6494942423E+01 Bohr
            acell20    1.6527033751E+01  1.6527033751E+01  1.6527033751E+01 Bohr
            acell21    1.6575170743E+01  1.6575170743E+01  1.6575170743E+01 Bohr
            acell22    1.6623307734E+01  1.6623307734E+01  1.6623307734E+01 Bohr
            acell23    1.6671444726E+01  1.6671444726E+01  1.6671444726E+01 Bohr
            acell24    1.6719581717E+01  1.6719581717E+01  1.6719581717E+01 Bohr
            acell25    1.6767718709E+01  1.6767718709E+01  1.6767718709E+01 Bohr
            acell26    1.6815855700E+01  1.6815855700E+01  1.6815855700E+01 Bohr
            acell27    1.6863992692E+01  1.6863992692E+01  1.6863992692E+01 Bohr
            acell28    1.6912129683E+01  1.6912129683E+01  1.6912129683E+01 Bohr
            acell29    1.6960266675E+01  1.6960266675E+01  1.6960266675E+01 Bohr
            acell30    1.7008403666E+01  1.7008403666E+01  1.7008403666E+01 Bohr
            acell31    1.7072586322E+01  1.7072586322E+01  1.7072586322E+01 Bohr
            acell32    1.7136768977E+01  1.7136768977E+01  1.7136768977E+01 Bohr
            acell33    1.7200951632E+01  1.7200951632E+01  1.7200951632E+01 Bohr
            acell34    1.7265134288E+01  1.7265134288E+01  1.7265134288E+01 Bohr
            acell35    1.7329316943E+01  1.7329316943E+01  1.7329316943E+01 Bohr
            acell36    1.7393499598E+01  1.7393499598E+01  1.7393499598E+01 Bohr
            acell37    1.7457682254E+01  1.7457682254E+01  1.7457682254E+01 Bohr
            acell38    1.7521864909E+01  1.7521864909E+01  1.7521864909E+01 Bohr
            acell39    1.7586047564E+01  1.7586047564E+01  1.7586047564E+01 Bohr
            acell40    1.7650230220E+01  1.7650230220E+01  1.7650230220E+01 Bohr
              amu      1.32905430E+02  1.26904470E+02  1.78490000E+02
           diemac      1.20000000E+01
             ecut      1.60000000E+01 Hartree
-          fftalg         112
           istwfk        2    0    0    0    0    0    3    0    0    0
                         0    0    0    0    0    0    0    0    0    0
                         0    0    0    0    0    0    0    0    0    0
                         0    0    0    0    0    0    0    0    0    0
                         0    0    7    0    0    0    0    0    0    0
                       outvar_i_n : Printing only first  50 k-points.
              ixc     -101130
           jdtset        1    2    3    4    5    6    7    8    9   10
                        11   12   13   14   15   16   17   18   19   20
                        21   22   23   24   25   26   27   28   29   30
                        31   32   33   34   35   36   37   38   39   40
              kpt      0.00000000E+00  0.00000000E+00  0.00000000E+00
                       8.33333333E-02  0.00000000E+00  0.00000000E+00
                       1.66666667E-01  0.00000000E+00  0.00000000E+00
                       2.50000000E-01  0.00000000E+00  0.00000000E+00
                       3.33333333E-01  0.00000000E+00  0.00000000E+00
                       4.16666667E-01  0.00000000E+00  0.00000000E+00
                       5.00000000E-01  0.00000000E+00  0.00000000E+00
                       8.33333333E-02  8.33333333E-02  0.00000000E+00
                       1.66666667E-01  8.33333333E-02  0.00000000E+00
                       2.50000000E-01  8.33333333E-02  0.00000000E+00
                       3.33333333E-01  8.33333333E-02  0.00000000E+00
                       4.16666667E-01  8.33333333E-02  0.00000000E+00
                       5.00000000E-01  8.33333333E-02  0.00000000E+00
                      -4.16666667E-01  8.33333333E-02  0.00000000E+00
                      -3.33333333E-01  8.33333333E-02  0.00000000E+00
                      -2.50000000E-01  8.33333333E-02  0.00000000E+00
                      -1.66666667E-01  8.33333333E-02  0.00000000E+00
                      -8.33333333E-02  8.33333333E-02  0.00000000E+00
                       1.66666667E-01  1.66666667E-01  0.00000000E+00
                       2.50000000E-01  1.66666667E-01  0.00000000E+00
                       3.33333333E-01  1.66666667E-01  0.00000000E+00
                       4.16666667E-01  1.66666667E-01  0.00000000E+00
                       5.00000000E-01  1.66666667E-01  0.00000000E+00
                      -4.16666667E-01  1.66666667E-01  0.00000000E+00
                      -3.33333333E-01  1.66666667E-01  0.00000000E+00
                      -2.50000000E-01  1.66666667E-01  0.00000000E+00
                      -1.66666667E-01  1.66666667E-01  0.00000000E+00
                       2.50000000E-01  2.50000000E-01  0.00000000E+00
                       3.33333333E-01  2.50000000E-01  0.00000000E+00
                       4.16666667E-01  2.50000000E-01  0.00000000E+00
                       5.00000000E-01  2.50000000E-01  0.00000000E+00
                      -4.16666667E-01  2.50000000E-01  0.00000000E+00
                      -3.33333333E-01  2.50000000E-01  0.00000000E+00
                      -2.50000000E-01  2.50000000E-01  0.00000000E+00
                       3.33333333E-01  3.33333333E-01  0.00000000E+00
                       4.16666667E-01  3.33333333E-01  0.00000000E+00
                       5.00000000E-01  3.33333333E-01  0.00000000E+00
                      -4.16666667E-01  3.33333333E-01  0.00000000E+00
                      -3.33333333E-01  3.33333333E-01  0.00000000E+00
                       4.16666667E-01  4.16666667E-01  0.00000000E+00
                       5.00000000E-01  4.16666667E-01  0.00000000E+00
                      -4.16666667E-01  4.16666667E-01  0.00000000E+00
                       5.00000000E-01  5.00000000E-01  0.00000000E+00
                       2.50000000E-01  1.66666667E-01  8.33333333E-02
                       3.33333333E-01  1.66666667E-01  8.33333333E-02
                       4.16666667E-01  1.66666667E-01  8.33333333E-02
                       5.00000000E-01  1.66666667E-01  8.33333333E-02
                      -4.16666667E-01  1.66666667E-01  8.33333333E-02
                       3.33333333E-01  2.50000000E-01  8.33333333E-02
                       4.16666667E-01  2.50000000E-01  8.33333333E-02
                       outvar_i_n : Printing only first  50 k-points.
         kptrlatt       12    0    0      0   12    0      0    0   12
          kptrlen1     1.92740514E+02
          kptrlen2     1.92933062E+02
          kptrlen3     1.93125610E+02
          kptrlen4     1.93318158E+02
          kptrlen5     1.93510706E+02
          kptrlen6     1.93703254E+02
          kptrlen7     1.93895802E+02
          kptrlen8     1.94088350E+02
          kptrlen9     1.94280898E+02
          kptrlen10    1.94473446E+02
          kptrlen11    1.94858542E+02
          kptrlen12    1.95243638E+02
          kptrlen13    1.95628733E+02
          kptrlen14    1.96013829E+02
          kptrlen15    1.96398925E+02
          kptrlen16    1.96784021E+02
          kptrlen17    1.97169117E+02
          kptrlen18    1.97554213E+02
          kptrlen19    1.97939309E+02
          kptrlen20    1.98324405E+02
          kptrlen21    1.98902049E+02
          kptrlen22    1.99479693E+02
          kptrlen23    2.00057337E+02
          kptrlen24    2.00634981E+02
          kptrlen25    2.01212625E+02
          kptrlen26    2.01790268E+02
          kptrlen27    2.02367912E+02
          kptrlen28    2.02945556E+02
          kptrlen29    2.03523200E+02
          kptrlen30    2.04100844E+02
          kptrlen31    2.04871036E+02
          kptrlen32    2.05641228E+02
          kptrlen33    2.06411420E+02
          kptrlen34    2.07181611E+02
          kptrlen35    2.07951803E+02
          kptrlen36    2.08721995E+02
          kptrlen37    2.09492187E+02
          kptrlen38    2.10262379E+02
          kptrlen39    2.11032571E+02
          kptrlen40    2.11802763E+02
P           mkmem          12
            natom           9
            nband          42
           ndtset          40
            ngfft1         60      60      60
            ngfft2         60      60      60
            ngfft3         60      60      60
            ngfft4         60      60      60
            ngfft5         60      60      60
            ngfft6         60      60      60
            ngfft7         60      60      60
            ngfft8         60      60      60
            ngfft9         60      60      60
            ngfft10        60      60      60
            ngfft11        60      60      60
            ngfft12        60      60      60
            ngfft13        60      60      60
            ngfft14        60      60      60
            ngfft15        60      60      60
            ngfft16        60      60      60
            ngfft17        60      60      60
            ngfft18        60      60      60
            ngfft19        60      60      60
            ngfft20        60      60      60
            ngfft21        60      60      60
            ngfft22        60      60      60
            ngfft23        64      64      64
            ngfft24        64      64      64
            ngfft25        64      64      64
            ngfft26        64      64      64
            ngfft27        64      64      64
            ngfft28        64      64      64
            ngfft29        64      64      64
            ngfft30        64      64      64
            ngfft31        64      64      64
            ngfft32        64      64      64
            ngfft33        64      64      64
            ngfft34        64      64      64
            ngfft35        64      64      64
            ngfft36        64      64      64
            ngfft37        64      64      64
            ngfft38        64      64      64
            ngfft39        64      64      64
            ngfft40        64      64      64
          ngfftdg1         96      96      96
          ngfftdg2         96      96      96
          ngfftdg3         96      96      96
          ngfftdg4         96      96      96
          ngfftdg5         96      96      96
          ngfftdg6         96      96      96
          ngfftdg7         96      96      96
          ngfftdg8         96      96      96
          ngfftdg9         96      96      96
          ngfftdg10        96      96      96
          ngfftdg11        96      96      96
          ngfftdg12        96      96      96
          ngfftdg13        96      96      96
          ngfftdg14        96      96      96
          ngfftdg15        96      96      96
          ngfftdg16        96      96      96
          ngfftdg17        96      96      96
          ngfftdg18        96      96      96
          ngfftdg19        96      96      96
          ngfftdg20        96      96      96
          ngfftdg21        96      96      96
          ngfftdg22        96      96      96
          ngfftdg23        96      96      96
          ngfftdg24        96      96      96
          ngfftdg25        96      96      96
          ngfftdg26        96      96      96
          ngfftdg27       100     100     100
          ngfftdg28       100     100     100
          ngfftdg29       100     100     100
          ngfftdg30       100     100     100
          ngfftdg31       100     100     100
          ngfftdg32       100     100     100
          ngfftdg33       100     100     100
          ngfftdg34       100     100     100
          ngfftdg35       100     100     100
          ngfftdg36       100     100     100
          ngfftdg37       100     100     100
          ngfftdg38       100     100     100
          ngfftdg39       108     108     108
          ngfftdg40       108     108     108
             nkpt          72
            nstep        2500
             nsym          48
           ntypat           3
              occ      2.000000  2.000000  2.000000  2.000000  2.000000  2.000000
                       2.000000  2.000000  2.000000  2.000000  2.000000  2.000000
                       2.000000  2.000000  2.000000  2.000000  2.000000  2.000000
                       2.000000  2.000000  2.000000  2.000000  2.000000  2.000000
                       2.000000  2.000000  2.000000  2.000000  2.000000  2.000000
                       2.000000  2.000000  2.000000  2.000000  2.000000  2.000000
                       0.000000  0.000000  0.000000  0.000000  0.000000  0.000000
        pawecutdg      4.00000000E+01 Hartree
            prtwf           0
            rprim      0.0000000000E+00  7.0710678119E-01  7.0710678119E-01
                       7.0710678119E-01  0.0000000000E+00  7.0710678119E-01
                       7.0710678119E-01  7.0710678119E-01  0.0000000000E+00
          spgroup         225
           symrel      1  0  0   0  1  0   0  0  1      -1  0  0   0 -1  0   0  0 -1
                       0 -1  1   0 -1  0   1 -1  0       0  1 -1   0  1  0  -1  1  0
                      -1  0  0  -1  0  1  -1  1  0       1  0  0   1  0 -1   1 -1  0
                       0  1 -1   1  0 -1   0  0 -1       0 -1  1  -1  0  1   0  0  1
                      -1  0  0  -1  1  0  -1  0  1       1  0  0   1 -1  0   1  0 -1
                       0 -1  1   1 -1  0   0 -1  0       0  1 -1  -1  1  0   0  1  0
                       1  0  0   0  0  1   0  1  0      -1  0  0   0  0 -1   0 -1  0
                       0  1 -1   0  0 -1   1  0 -1       0 -1  1   0  0  1  -1  0  1
                      -1  0  1  -1  1  0  -1  0  0       1  0 -1   1 -1  0   1  0  0
                       0 -1  0   1 -1  0   0 -1  1       0  1  0  -1  1  0   0  1 -1
                       1  0 -1   0  0 -1   0  1 -1      -1  0  1   0  0  1   0 -1  1
                       0  1  0   0  0  1   1  0  0       0 -1  0   0  0 -1  -1  0  0
                       1  0 -1   0  1 -1   0  0 -1      -1  0  1   0 -1  1   0  0  1
                       0 -1  0   0 -1  1   1 -1  0       0  1  0   0  1 -1  -1  1  0
                      -1  0  1  -1  0  0  -1  1  0       1  0 -1   1  0  0   1 -1  0
                       0  1  0   1  0  0   0  0  1       0 -1  0  -1  0  0   0  0 -1
                       0  0 -1   0  1 -1   1  0 -1       0  0  1   0 -1  1  -1  0  1
                       1 -1  0   0 -1  1   0 -1  0      -1  1  0   0  1 -1   0  1  0
                       0  0  1   1  0  0   0  1  0       0  0 -1  -1  0  0   0 -1  0
                      -1  1  0  -1  0  0  -1  0  1       1 -1  0   1  0  0   1  0 -1
                       0  0  1   0  1  0   1  0  0       0  0 -1   0 -1  0  -1  0  0
                       1 -1  0   0 -1  0   0 -1  1      -1  1  0   0  1  0   0  1 -1
                       0  0 -1   1  0 -1   0  1 -1       0  0  1  -1  0  1   0 -1  1
                      -1  1  0  -1  0  1  -1  0  0       1 -1  0   1  0 -1   1  0  0
           toldfe      1.00000000E-08 Hartree
            typat      1  1  2  2  2  2  2  2  3
           useylm           1
              wtk        0.00058    0.00463    0.00463    0.00463    0.00463    0.00463
                         0.00231    0.00347    0.01389    0.01389    0.01389    0.01389
                         0.01389    0.01389    0.01389    0.01389    0.01389    0.00694
                         0.00347    0.01389    0.01389    0.01389    0.01389    0.01389
                         0.01389    0.01389    0.00694    0.00347    0.01389    0.01389
                         0.01389    0.01389    0.01389    0.00694    0.00347    0.01389
                         0.01389    0.01389    0.00694    0.00347    0.01389    0.00694
                         0.00174    0.01389    0.02778    0.02778    0.02778    0.01389
                         0.01389    0.02778
                       outvars : Printing only first  50 k-points.
           xangst1     3.0050237194E+00  3.0050237194E+00  3.0050237194E+00
                       9.0150711582E+00  9.0150711582E+00  9.0150711582E+00
                       6.0100474388E+00  9.1558544201E+00  6.0100474388E+00
                       6.0100474388E+00  6.0100474388E+00  2.8642404574E+00
                       6.0100474388E+00  6.0100474388E+00  9.1558544201E+00
                       6.0100474388E+00  2.8642404574E+00  6.0100474388E+00
                       9.1558544201E+00  6.0100474388E+00  6.0100474388E+00
                       2.8642404574E+00  6.0100474388E+00  6.0100474388E+00
                       0.0000000000E+00  0.0000000000E+00  0.0000000000E+00
           xangst2     3.0080257411E+00  3.0080257411E+00  3.0080257411E+00
                       9.0240772234E+00  9.0240772234E+00  9.0240772234E+00
                       6.0160514822E+00  9.1675488168E+00  6.0160514822E+00
                       6.0160514822E+00  6.0160514822E+00  2.8645541476E+00
                       6.0160514822E+00  6.0160514822E+00  9.1675488168E+00
                       6.0160514822E+00  2.8645541476E+00  6.0160514822E+00
                       9.1675488168E+00  6.0160514822E+00  6.0160514822E+00
                       2.8645541476E+00  6.0160514822E+00  6.0160514822E+00
                       1.5158108952E-21 -9.9181070044E-23 -7.8055114610E-21
           xangst3     3.0110277628E+00  3.0110277628E+00  3.0110277628E+00
                       9.0330832885E+00  9.0330832885E+00  9.0330832885E+00
                       6.0220555257E+00  9.1792322228E+00  6.0220555257E+00
                       6.0220555257E+00  6.0220555257E+00  2.8648788286E+00
                       6.0220555257E+00  6.0220555257E+00  9.1792322228E+00
                       6.0220555257E+00  2.8648788286E+00  6.0220555257E+00
                       9.1792322228E+00  6.0220555257E+00  6.0220555257E+00
                       2.8648788286E+00  6.0220555257E+00  6.0220555257E+00
                       0.0000000000E+00  0.0000000000E+00  0.0000000000E+00
           xangst4     3.0140297844E+00  3.0140297844E+00  3.0140297844E+00
                       9.0420893532E+00  9.0420893532E+00  9.0420893532E+00
                       6.0280595688E+00  9.1909465414E+00  6.0280595688E+00
                       6.0280595688E+00  6.0280595688E+00  2.8651725962E+00
                       6.0280595688E+00  6.0280595688E+00  9.1909465414E+00
                       6.0280595688E+00  2.8651725962E+00  6.0280595688E+00
                       9.1909465414E+00  6.0280595688E+00  6.0280595688E+00
                       2.8651725962E+00  6.0280595688E+00  6.0280595688E+00
                       0.0000000000E+00  0.0000000000E+00  0.0000000000E+00
           xangst5     3.0170318061E+00  3.0170318061E+00  3.0170318061E+00
                       9.0510954184E+00  9.0510954184E+00  9.0510954184E+00
                       6.0340636122E+00  9.2026516055E+00  6.0340636122E+00
                       6.0340636122E+00  6.0340636122E+00  2.8654756189E+00
                       6.0340636122E+00  6.0340636122E+00  9.2026516055E+00
                       6.0340636122E+00  2.8654756189E+00  6.0340636122E+00
                       9.2026516055E+00  6.0340636122E+00  6.0340636122E+00
                       2.8654756189E+00  6.0340636122E+00  6.0340636122E+00
                       0.0000000000E+00  0.0000000000E+00  0.0000000000E+00
           xangst6     3.0200338278E+00  3.0200338278E+00  3.0200338278E+00
                       9.0601014835E+00  9.0601014835E+00  9.0601014835E+00
                       6.0400676557E+00  9.2143919932E+00  6.0400676557E+00
                       6.0400676557E+00  6.0400676557E+00  2.8657433182E+00
                       6.0400676557E+00  6.0400676557E+00  9.2143919932E+00
                       6.0400676557E+00  2.8657433182E+00  6.0400676557E+00
                       9.2143919932E+00  6.0400676557E+00  6.0400676557E+00
                       2.8657433182E+00  6.0400676557E+00  6.0400676557E+00
                       0.0000000000E+00  0.0000000000E+00  0.0000000000E+00
           xangst7     3.0230358496E+00  3.0230358496E+00  3.0230358496E+00
                       9.0691075487E+00  9.0691075487E+00  9.0691075487E+00
                       6.0460716992E+00  9.2261043220E+00  6.0460716992E+00
                       6.0460716992E+00  6.0460716992E+00  2.8660390763E+00
                       6.0460716992E+00  6.0460716992E+00  9.2261043220E+00
                       6.0460716992E+00  2.8660390763E+00  6.0460716992E+00
                       9.2261043220E+00  6.0460716992E+00  6.0460716992E+00
                       2.8660390763E+00  6.0460716992E+00  6.0460716992E+00
                      -2.4874819245E-20 -5.9791434452E-20 -2.6011400915E-21
           xangst8     3.0260378713E+00  3.0260378713E+00  3.0260378713E+00
                       9.0781136139E+00  9.0781136139E+00  9.0781136139E+00
                       6.0520757426E+00  9.2378377388E+00  6.0520757426E+00
                       6.0520757426E+00  6.0520757426E+00  2.8663137465E+00
                       6.0520757426E+00  6.0520757426E+00  9.2378377388E+00
                       6.0520757426E+00  2.8663137465E+00  6.0520757426E+00
                       9.2378377388E+00  6.0520757426E+00  6.0520757426E+00
                       2.8663137465E+00  6.0520757426E+00  6.0520757426E+00
                      -1.2925716576E-19  4.6790976964E-20 -4.2329632162E-20
           xangst9     3.0290398930E+00  3.0290398930E+00  3.0290398930E+00
                       9.0871196791E+00  9.0871196791E+00  9.0871196791E+00
                       6.0580797861E+00  9.2495874171E+00  6.0580797861E+00
                       6.0580797861E+00  6.0580797861E+00  2.8665721551E+00
                       6.0580797861E+00  6.0580797861E+00  9.2495874171E+00
                       6.0580797861E+00  2.8665721551E+00  6.0580797861E+00
                       9.2495874171E+00  6.0580797861E+00  6.0580797861E+00
                       2.8665721551E+00  6.0580797861E+00  6.0580797861E+00
                       0.0000000000E+00  0.0000000000E+00  0.0000000000E+00
           xangst10    3.0320419146E+00  3.0320419146E+00  3.0320419146E+00
                       9.0961257437E+00  9.0961257437E+00  9.0961257437E+00
                       6.0640838291E+00  9.2613215431E+00  6.0640838291E+00
                       6.0640838291E+00  6.0640838291E+00  2.8668461152E+00
                       6.0640838291E+00  6.0640838291E+00  9.2613215431E+00
                       6.0640838291E+00  2.8668461152E+00  6.0640838291E+00
                       9.2613215431E+00  6.0640838291E+00  6.0640838291E+00
                       2.8668461152E+00  6.0640838291E+00  6.0640838291E+00
                       0.0000000000E+00  0.0000000000E+00  0.0000000000E+00
           xangst11    3.0380459580E+00  3.0380459580E+00  3.0380459580E+00
                       9.1141378741E+00  9.1141378741E+00  9.1141378741E+00
                       6.0760919161E+00  9.2847770807E+00  6.0760919161E+00
                       6.0760919161E+00  6.0760919161E+00  2.8674067514E+00
                       6.0760919161E+00  6.0760919161E+00  9.2847770807E+00
                       6.0760919161E+00  2.8674067514E+00  6.0760919161E+00
                       9.2847770807E+00  6.0760919161E+00  6.0760919161E+00
                       2.8674067514E+00  6.0760919161E+00  6.0760919161E+00
                       0.0000000000E+00  0.0000000000E+00  0.0000000000E+00
           xangst12    3.0440500015E+00  3.0440500015E+00  3.0440500015E+00
                       9.1321500045E+00  9.1321500045E+00  9.1321500045E+00
                       6.0881000030E+00  9.3082844766E+00  6.0881000030E+00
                       6.0881000030E+00  6.0881000030E+00  2.8679155294E+00
                       6.0881000030E+00  6.0881000030E+00  9.3082844766E+00
                       6.0881000030E+00  2.8679155294E+00  6.0881000030E+00
                       9.3082844766E+00  6.0881000030E+00  6.0881000030E+00
                       2.8679155294E+00  6.0881000030E+00  6.0881000030E+00
                      -3.6687509347E-20  9.6279411043E-20 -3.6699384465E-20
           xangst13    3.0500540448E+00  3.0500540448E+00  3.0500540448E+00
                       9.1501621343E+00  9.1501621343E+00  9.1501621343E+00
                       6.1001080895E+00  9.3317643144E+00  6.1001080895E+00
                       6.1001080895E+00  6.1001080895E+00  2.8684518646E+00
                       6.1001080895E+00  6.1001080895E+00  9.3317643144E+00
                       6.1001080895E+00  2.8684518646E+00  6.1001080895E+00
                       9.3317643144E+00  6.1001080895E+00  6.1001080895E+00
                       2.8684518646E+00  6.1001080895E+00  6.1001080895E+00
                      -7.6162346321E-22  1.4445312092E-21 -7.4306909207E-22
           xangst14    3.0560580882E+00  3.0560580882E+00  3.0560580882E+00
                       9.1681742646E+00  9.1681742646E+00  9.1681742646E+00
                       6.1121161764E+00  9.3552879702E+00  6.1121161764E+00
                       6.1121161764E+00  6.1121161764E+00  2.8689443826E+00
                       6.1121161764E+00  6.1121161764E+00  9.3552879702E+00
                       6.1121161764E+00  2.8689443826E+00  6.1121161764E+00
                       9.3552879702E+00  6.1121161764E+00  6.1121161764E+00
                       2.8689443826E+00  6.1121161764E+00  6.1121161764E+00
                      -1.2481020244E-21 -1.1341223178E-19 -1.4686682210E-19
           xangst15    3.0620621317E+00  3.0620621317E+00  3.0620621317E+00
                       9.1861863950E+00  9.1861863950E+00  9.1861863950E+00
                       6.1241242633E+00  9.3788471195E+00  6.1241242633E+00
                       6.1241242633E+00  6.1241242633E+00  2.8694014071E+00
                       6.1241242633E+00  6.1241242633E+00  9.3788471195E+00
                       6.1241242633E+00  2.8694014071E+00  6.1241242633E+00
                       9.3788471195E+00  6.1241242633E+00  6.1241242633E+00
                       2.8694014071E+00  6.1241242633E+00  6.1241242633E+00
                      -5.2119294414E-20 -6.2766305268E-20 -5.0796794176E-21
[...]
                       2.3256916833E-01  7.6743083167E-01  7.6743083167E-01
                       7.6743083167E-01  2.3256916833E-01  2.3256916833E-01
                       0.0000000000E+00  0.0000000000E+00  0.0000000000E+00
             xred20    2.5000000000E-01  2.5000000000E-01  2.5000000000E-01
                       7.5000000000E-01  7.5000000000E-01  7.5000000000E-01
                       7.6784793850E-01  2.3215206150E-01  7.6784793850E-01
                       2.3215206150E-01  2.3215206150E-01  7.6784793850E-01
                       7.6784793850E-01  7.6784793850E-01  2.3215206150E-01
                       2.3215206150E-01  7.6784793850E-01  2.3215206150E-01
                       2.3215206150E-01  7.6784793850E-01  7.6784793850E-01
                       7.6784793850E-01  2.3215206150E-01  2.3215206150E-01
                       0.0000000000E+00  0.0000000000E+00  0.0000000000E+00
             xred21    2.5000000000E-01  2.5000000000E-01  2.5000000000E-01
                       7.5000000000E-01  7.5000000000E-01  7.5000000000E-01
                       7.6847562173E-01  2.3152437827E-01  7.6847562173E-01
                       2.3152437827E-01  2.3152437827E-01  7.6847562173E-01
                       7.6847562173E-01  7.6847562173E-01  2.3152437827E-01
                       2.3152437827E-01  7.6847562173E-01  2.3152437827E-01
                       2.3152437827E-01  7.6847562173E-01  7.6847562173E-01
                       7.6847562173E-01  2.3152437827E-01  2.3152437827E-01
                      -2.8108874886E-20  3.2037370616E-20 -1.8751056975E-20
             xred22    2.5000000000E-01  2.5000000000E-01  2.5000000000E-01
                       7.5000000000E-01  7.5000000000E-01  7.5000000000E-01
                       7.6910948066E-01  2.3089051934E-01  7.6910948066E-01
                       2.3089051934E-01  2.3089051934E-01  7.6910948066E-01
                       7.6910948066E-01  7.6910948066E-01  2.3089051934E-01
                       2.3089051934E-01  7.6910948066E-01  2.3089051934E-01
                       2.3089051934E-01  7.6910948066E-01  7.6910948066E-01
                       7.6910948066E-01  2.3089051934E-01  2.3089051934E-01
                      -3.0273376882E-22  2.4835429313E-22 -6.5993914685E-23
             xred23    2.5000000000E-01  2.5000000000E-01  2.5000000000E-01
                       7.5000000000E-01  7.5000000000E-01  7.5000000000E-01
                       7.6973577074E-01  2.3026422926E-01  7.6973577074E-01
                       2.3026422926E-01  2.3026422926E-01  7.6973577074E-01
                       7.6973577074E-01  7.6973577074E-01  2.3026422926E-01
                       2.3026422926E-01  7.6973577074E-01  2.3026422926E-01
                       2.3026422926E-01  7.6973577074E-01  7.6973577074E-01
                       7.6973577074E-01  2.3026422926E-01  2.3026422926E-01
                       9.4640315960E-24 -2.5788546584E-23 -1.6224385713E-23
             xred24    2.5000000000E-01  2.5000000000E-01  2.5000000000E-01
                       7.5000000000E-01  7.5000000000E-01  7.5000000000E-01
                       7.7035756141E-01  2.2964243859E-01  7.7035756141E-01
                       2.2964243859E-01  2.2964243859E-01  7.7035756141E-01
                       7.7035756141E-01  7.7035756141E-01  2.2964243859E-01
                       2.2964243859E-01  7.7035756141E-01  2.2964243859E-01
                       2.2964243859E-01  7.7035756141E-01  7.7035756141E-01
                       7.7035756141E-01  2.2964243859E-01  2.2964243859E-01
                       8.1933783873E-24  8.2045242506E-25  2.8259059047E-23
             xred25    2.5000000000E-01  2.5000000000E-01  2.5000000000E-01
                       7.5000000000E-01  7.5000000000E-01  7.5000000000E-01
                       7.7099409026E-01  2.2900590974E-01  7.7099409026E-01
                       2.2900590974E-01  2.2900590974E-01  7.7099409026E-01
                       7.7099409026E-01  7.7099409026E-01  2.2900590974E-01
                       2.2900590974E-01  7.7099409026E-01  2.2900590974E-01
                       2.2900590974E-01  7.7099409026E-01  7.7099409026E-01
                       7.7099409026E-01  2.2900590974E-01  2.2900590974E-01
                       0.0000000000E+00  0.0000000000E+00  0.0000000000E+00
             xred26    2.5000000000E-01  2.5000000000E-01  2.5000000000E-01
                       7.5000000000E-01  7.5000000000E-01  7.5000000000E-01
                       7.7162402231E-01  2.2837597769E-01  7.7162402231E-01
                       2.2837597769E-01  2.2837597769E-01  7.7162402231E-01
                       7.7162402231E-01  7.7162402231E-01  2.2837597769E-01
                       2.2837597769E-01  7.7162402231E-01  2.2837597769E-01
                       2.2837597769E-01  7.7162402231E-01  7.7162402231E-01
                       7.7162402231E-01  2.2837597769E-01  2.2837597769E-01
                      -3.9888526518E-21  1.3360190848E-20 -4.9886165361E-21
             xred27    2.5000000000E-01  2.5000000000E-01  2.5000000000E-01
                       7.5000000000E-01  7.5000000000E-01  7.5000000000E-01
                       7.7224528206E-01  2.2775471794E-01  7.7224528206E-01
                       2.2775471794E-01  2.2775471794E-01  7.7224528206E-01
                       7.7224528206E-01  7.7224528206E-01  2.2775471794E-01
                       2.2775471794E-01  7.7224528206E-01  2.2775471794E-01
                       2.2775471794E-01  7.7224528206E-01  7.7224528206E-01
                       7.7224528206E-01  2.2775471794E-01  2.2775471794E-01
                       0.0000000000E+00  0.0000000000E+00  0.0000000000E+00
             xred28    2.5000000000E-01  2.5000000000E-01  2.5000000000E-01
                       7.5000000000E-01  7.5000000000E-01  7.5000000000E-01
                       7.7286507223E-01  2.2713492777E-01  7.7286507223E-01
                       2.2713492777E-01  2.2713492777E-01  7.7286507223E-01
                       7.7286507223E-01  7.7286507223E-01  2.2713492777E-01
                       2.2713492777E-01  7.7286507223E-01  2.2713492777E-01
                       2.2713492777E-01  7.7286507223E-01  7.7286507223E-01
                       7.7286507223E-01  2.2713492777E-01  2.2713492777E-01
                      -6.2486567787E-21 -1.0540045151E-20  3.1382551441E-21
             xred29    2.5000000000E-01  2.5000000000E-01  2.5000000000E-01
                       7.5000000000E-01  7.5000000000E-01  7.5000000000E-01
                       7.7347716665E-01  2.2652283335E-01  7.7347716665E-01
                       2.2652283335E-01  2.2652283335E-01  7.7347716665E-01
                       7.7347716665E-01  7.7347716665E-01  2.2652283335E-01
                       2.2652283335E-01  7.7347716665E-01  2.2652283335E-01
                       2.2652283335E-01  7.7347716665E-01  7.7347716665E-01
                       7.7347716665E-01  2.2652283335E-01  2.2652283335E-01
                      -1.2168327626E-20  1.5426401881E-20  9.1841362713E-21
             xred30    2.5000000000E-01  2.5000000000E-01  2.5000000000E-01
                       7.5000000000E-01  7.5000000000E-01  7.5000000000E-01
                       7.7409335341E-01  2.2590664659E-01  7.7409335341E-01
                       2.2590664659E-01  2.2590664659E-01  7.7409335341E-01
                       7.7409335341E-01  7.7409335341E-01  2.2590664659E-01
                       2.2590664659E-01  7.7409335341E-01  2.2590664659E-01
                       2.2590664659E-01  7.7409335341E-01  7.7409335341E-01
                       7.7409335341E-01  2.2590664659E-01  2.2590664659E-01
                      -1.3456058861E-20 -8.3314560359E-21  5.4672205739E-20
             xred31    2.5000000000E-01  2.5000000000E-01  2.5000000000E-01
                       7.5000000000E-01  7.5000000000E-01  7.5000000000E-01
                       7.7491303850E-01  2.2508696150E-01  7.7491303850E-01
                       2.2508696150E-01  2.2508696150E-01  7.7491303850E-01
                       7.7491303850E-01  7.7491303850E-01  2.2508696150E-01
                       2.2508696150E-01  7.7491303850E-01  2.2508696150E-01
                       2.2508696150E-01  7.7491303850E-01  7.7491303850E-01
                       7.7491303850E-01  2.2508696150E-01  2.2508696150E-01
                       7.4610371843E-23  4.4251835069E-23 -9.5303937611E-23
             xred32    2.5000000000E-01  2.5000000000E-01  2.5000000000E-01
                       7.5000000000E-01  7.5000000000E-01  7.5000000000E-01
                       7.7573151229E-01  2.2426848771E-01  7.7573151229E-01
                       2.2426848771E-01  2.2426848771E-01  7.7573151229E-01
                       7.7573151229E-01  7.7573151229E-01  2.2426848771E-01
                       2.2426848771E-01  7.7573151229E-01  2.2426848771E-01
                       2.2426848771E-01  7.7573151229E-01  7.7573151229E-01
                       7.7573151229E-01  2.2426848771E-01  2.2426848771E-01
                       1.5709843391E-20  1.3895318350E-20 -5.9822070041E-20
             xred33    2.5000000000E-01  2.5000000000E-01  2.5000000000E-01
                       7.5000000000E-01  7.5000000000E-01  7.5000000000E-01
                       7.7655259274E-01  2.2344740726E-01  7.7655259274E-01
                       2.2344740726E-01  2.2344740726E-01  7.7655259274E-01
                       7.7655259274E-01  7.7655259274E-01  2.2344740726E-01
                       2.2344740726E-01  7.7655259274E-01  2.2344740726E-01
                       2.2344740726E-01  7.7655259274E-01  7.7655259274E-01
                       7.7655259274E-01  2.2344740726E-01  2.2344740726E-01
                       2.8497543104E-22  1.8434417815E-22 -8.2981583512E-22
             xred34    2.5000000000E-01  2.5000000000E-01  2.5000000000E-01
                       7.5000000000E-01  7.5000000000E-01  7.5000000000E-01
                       7.7735671400E-01  2.2264328600E-01  7.7735671400E-01
                       2.2264328600E-01  2.2264328600E-01  7.7735671400E-01
                       7.7735671400E-01  7.7735671400E-01  2.2264328600E-01
                       2.2264328600E-01  7.7735671400E-01  2.2264328600E-01
                       2.2264328600E-01  7.7735671400E-01  7.7735671400E-01
                       7.7735671400E-01  2.2264328600E-01  2.2264328600E-01
                       1.0643140917E-22 -2.0013490751E-22 -5.5788557339E-23
             xred35    2.5000000000E-01  2.5000000000E-01  2.5000000000E-01
                       7.5000000000E-01  7.5000000000E-01  7.5000000000E-01
                       7.7815599902E-01  2.2184400098E-01  7.7815599902E-01
                       2.2184400098E-01  2.2184400098E-01  7.7815599902E-01
                       7.7815599902E-01  7.7815599902E-01  2.2184400098E-01
                       2.2184400098E-01  7.7815599902E-01  2.2184400098E-01
                       2.2184400098E-01  7.7815599902E-01  7.7815599902E-01
                       7.7815599902E-01  2.2184400098E-01  2.2184400098E-01
                       7.2636577238E-20  1.1010806520E-20 -5.8483081861E-20
             xred36    2.5000000000E-01  2.5000000000E-01  2.5000000000E-01
                       7.5000000000E-01  7.5000000000E-01  7.5000000000E-01
                       7.7894576338E-01  2.2105423662E-01  7.7894576338E-01
                       2.2105423662E-01  2.2105423662E-01  7.7894576338E-01
                       7.7894576338E-01  7.7894576338E-01  2.2105423662E-01
                       2.2105423662E-01  7.7894576338E-01  2.2105423662E-01
                       2.2105423662E-01  7.7894576338E-01  7.7894576338E-01
                       7.7894576338E-01  2.2105423662E-01  2.2105423662E-01
                       8.3147099028E-20  7.3668540719E-22 -4.6658525591E-20
             xred37    2.5000000000E-01  2.5000000000E-01  2.5000000000E-01
                       7.5000000000E-01  7.5000000000E-01  7.5000000000E-01
                       7.7974189611E-01  2.2025810389E-01  7.7974189611E-01
                       2.2025810389E-01  2.2025810389E-01  7.7974189611E-01
                       7.7974189611E-01  7.7974189611E-01  2.2025810389E-01
                       2.2025810389E-01  7.7974189611E-01  2.2025810389E-01
                       2.2025810389E-01  7.7974189611E-01  7.7974189611E-01
                       7.7974189611E-01  2.2025810389E-01  2.2025810389E-01
                       1.3553469747E-21  7.6337263232E-23 -7.5332566164E-22
             xred38    2.5000000000E-01  2.5000000000E-01  2.5000000000E-01
                       7.5000000000E-01  7.5000000000E-01  7.5000000000E-01
                       7.8053487602E-01  2.1946512398E-01  7.8053487602E-01
                       2.1946512398E-01  2.1946512398E-01  7.8053487602E-01
                       7.8053487602E-01  7.8053487602E-01  2.1946512398E-01
                       2.1946512398E-01  7.8053487602E-01  2.1946512398E-01
                       2.1946512398E-01  7.8053487602E-01  7.8053487602E-01
                       7.8053487602E-01  2.1946512398E-01  2.1946512398E-01
                       5.7173117013E-22 -1.4334855194E-21  3.6069132515E-22
             xred39    2.5000000000E-01  2.5000000000E-01  2.5000000000E-01
                       7.5000000000E-01  7.5000000000E-01  7.5000000000E-01
                       7.8132582359E-01  2.1867417641E-01  7.8132582359E-01
                       2.1867417641E-01  2.1867417641E-01  7.8132582359E-01
                       7.8132582359E-01  7.8132582359E-01  2.1867417641E-01
                       2.1867417641E-01  7.8132582359E-01  2.1867417641E-01
                       2.1867417641E-01  7.8132582359E-01  7.8132582359E-01
                       7.8132582359E-01  2.1867417641E-01  2.1867417641E-01
                      -9.4768683342E-23  1.7727237640E-22 -1.5269910420E-22
             xred40    2.5000000000E-01  2.5000000000E-01  2.5000000000E-01
                       7.5000000000E-01  7.5000000000E-01  7.5000000000E-01
                       7.8210690313E-01  2.1789309687E-01  7.8210690313E-01
                       2.1789309687E-01  2.1789309687E-01  7.8210690313E-01
                       7.8210690313E-01  7.8210690313E-01  2.1789309687E-01
                       2.1789309687E-01  7.8210690313E-01  2.1789309687E-01
                       2.1789309687E-01  7.8210690313E-01  7.8210690313E-01
                       7.8210690313E-01  2.1789309687E-01  2.1789309687E-01
                      -5.2712203594E-24  4.9310503388E-23 -2.6764450441E-23
            znucl       55.00000   53.00000   72.00000

================================================================================


- Timing analysis has been suppressed with timopt=0



================================================================================

 Suggested references for the acknowledgment of ABINIT usage.

 The users of ABINIT have little formal obligations with respect to the ABINIT group
 (those specified in the GNU General Public License, http://www.gnu.org/copyleft/gpl.txt).
 However, it is common practice in the scientific literature,
 to acknowledge the efforts of people that have made the research possible.
 In this spirit, please find below suggested citations of work written by ABINIT developers,
 corresponding to implementations inside of ABINIT that you have used in the present run.
 Note also that it will be of great value to readers of publications presenting these results,
 to read papers enabling them to understand the theoretical formalism and details
 of the ABINIT implementation.
 For information on why they are suggested, see also https://docs.abinit.org/theory/acknowledgments.
-
- [1] Implementation of the Projector Augmented-Wave Method in the ABINIT code.
- M. Torrent, F. Jollet, F. Bottin, G. Zerah, and X. Gonze Comput. Mat. Science 42, 337, (2008).
- Comment: PAW calculations. Strong suggestion to cite this paper.
- DOI and bibtex: see https://docs.abinit.org/theory/bibliography/#torrent2008
-
- [2] Libxc: A library of exchange and correlation functionals for density functional theory.
- M.A.L. Marques, M.J.T. Oliveira, T. Burnus, Computer Physics Communications 183, 2227 (2012).
- Comment: to be cited when LibXC is used (negative value of ixc)
- Strong suggestion to cite this paper.
- DOI and bibtex: see https://docs.abinit.org/theory/bibliography/#marques2012
-
- [3] The Abinit project: Impact, environment and recent developments.
- Computer Phys. Comm. 248, 107042 (2020).
- X.Gonze, B. Amadon, G. Antonius, F.Arnardi, L.Baguet, J.-M.Beuken,
- J.Bieder, F.Bottin, J.Bouchet, E.Bousquet, N.Brouwer, F.Bruneval,
- G.Brunin, T.Cavignac, J.-B. Charraud, Wei Chen, M.Cote, S.Cottenier,
- J.Denier, G.Geneste, Ph.Ghosez, M.Giantomassi, Y.Gillet, O.Gingras,
- D.R.Hamann, G.Hautier, Xu He, N.Helbig, N.Holzwarth, Y.Jia, F.Jollet,
- W.Lafargue-Dit-Hauret, K.Lejaeghere, M.A.L.Marques, A.Martin, C.Martins,
- H.P.C. Miranda, F.Naccarato, K. Persson, G.Petretto, V.Planes, Y.Pouillon,
- S.Prokhorenko, F.Ricci, G.-M.Rignanese, A.H.Romero, M.M.Schmitt, M.Torrent,
- M.J.van Setten, B.Van Troeye, M.J.Verstraete, G.Zerah and J.W.Zwanzig
- Comment: the fifth generic paper describing the ABINIT project.
- Note that a version of this paper, that is not formatted for Computer Phys. Comm. 
- is available at https://www.abinit.org/sites/default/files/ABINIT20.pdf .
- The licence allows the authors to put it on the Web.
- DOI and bibtex: see https://docs.abinit.org/theory/bibliography/#gonze2020
-
- [4] ABINIT: Overview, and focus on selected capabilities
- J. Chem. Phys. 152, 124102 (2020).
- A. Romero, D.C. Allan, B. Amadon, G. Antonius, T. Applencourt, L.Baguet,
- J.Bieder, F.Bottin, J.Bouchet, E.Bousquet, F.Bruneval,
- G.Brunin, D.Caliste, M.Cote,
- J.Denier, C. Dreyer, Ph.Ghosez, M.Giantomassi, Y.Gillet, O.Gingras,
- D.R.Hamann, G.Hautier, F.Jollet, G. Jomard,
- A.Martin, 
- H.P.C. Miranda, F.Naccarato, G.Petretto, N.A. Pike, V.Planes,
- S.Prokhorenko, T. Rangel, F.Ricci, G.-M.Rignanese, M.Royo, M.Stengel, M.Torrent,
- M.J.van Setten, B.Van Troeye, M.J.Verstraete, J.Wiktor, J.W.Zwanziger, and X.Gonze.
- Comment: a global overview of ABINIT, with focus on selected capabilities .
- Note that a version of this paper, that is not formatted for J. Chem. Phys 
- is available at https://www.abinit.org/sites/default/files/ABINIT20_JPC.pdf .
- The licence allows the authors to put it on the Web.
- DOI and bibtex: see https://docs.abinit.org/theory/bibliography/#romero2020
-
- [5] Recent developments in the ABINIT software package.
- Computer Phys. Comm. 205, 106 (2016).
- X.Gonze, F.Jollet, F.Abreu Araujo, D.Adams, B.Amadon, T.Applencourt,
- C.Audouze, J.-M.Beuken, J.Bieder, A.Bokhanchuk, E.Bousquet, F.Bruneval
- D.Caliste, M.Cote, F.Dahm, F.Da Pieve, M.Delaveau, M.Di Gennaro,
- B.Dorado, C.Espejo, G.Geneste, L.Genovese, A.Gerossier, M.Giantomassi,
- Y.Gillet, D.R.Hamann, L.He, G.Jomard, J.Laflamme Janssen, S.Le Roux,
- A.Levitt, A.Lherbier, F.Liu, I.Lukacevic, A.Martin, C.Martins,
- M.J.T.Oliveira, S.Ponce, Y.Pouillon, T.Rangel, G.-M.Rignanese,
- A.H.Romero, B.Rousseau, O.Rubel, A.A.Shukri, M.Stankovski, M.Torrent,
- M.J.Van Setten, B.Van Troeye, M.J.Verstraete, D.Waroquier, J.Wiktor,
- B.Xu, A.Zhou, J.W.Zwanziger.
- Comment: the fourth generic paper describing the ABINIT project.
- Note that a version of this paper, that is not formatted for Computer Phys. Comm. 
- is available at https://www.abinit.org/sites/default/files/ABINIT16.pdf .
- The licence allows the authors to put it on the Web.
- DOI and bibtex: see https://docs.abinit.org/theory/bibliography/#gonze2016
-
- Proc.   0 individual time (sec): cpu=      25713.8  wall=      25714.8

================================================================================

 Calculation completed.
.Delivered   0 WARNINGs and   0 COMMENTs to log file.
+Overall time at end (sec) : cpu=     154283.5  wall=     154289.0
