
.Version 9.2.2 of ABINIT 
.(MPI version, prepared for a x86_64_linux_gnu9.3 computer) 

.Copyright (C) 1998-2020 ABINIT group . 
 ABINIT comes with ABSOLUTELY NO WARRANTY.
 It is free software, and you are welcome to redistribute it
 under certain conditions (GNU General Public License,
 see ~abinit/COPYING or http://www.gnu.org/copyleft/gpl.txt).

 ABINIT is a project of the Universite Catholique de Louvain,
 Corning Inc. and other collaborators, see ~abinit/doc/developers/contributors.txt .
 Please read https://docs.abinit.org/theory/acknowledgments for suggested
 acknowledgments of the ABINIT effort.
 For more information, see https://www.abinit.org .

.Starting date : Sun 27 Nov 2022.
- ( at 12h10 )
  
- input  file    -> Cs2TiI6.in
- output file    -> Cs2TiI6.out
- root for input  files -> Cs2TiI6i
- root for output files -> Cs2TiI6o

- inpspheads : Reading pseudopotential header in XML form from 
-   ../../../Psps_for_tests/ATOMICDATA/Cs.GGA_PBE-JTH.xml
- inpspheads : Reading pseudopotential header in XML form from 
-   ../../../Psps_for_tests/ATOMICDATA/I.GGA_PBE-JTH.xml
- inpspheads : Reading pseudopotential header in XML form from 
-   ../../../Psps_for_tests/ATOMICDATA/Zr.GGA_PBE-JTH.xml
- inpspheads : Reading pseudopotential header in XML form from 
-   ../../../Psps_for_tests/ATOMICDATA/Br.GGA_PBE-JTH.xml

 DATASET    1 : space group I4 m m (#107); Bravais tI (body-center tetrag.)
================================================================================
 Values of the parameters that define the memory need for DATASET  1.
     intxc =       0    ionmov =       0      iscf =      17    lmnmax =      18
     lnmax =       6     mgfft =      54  mpssoang =       3    mqgrid =    3403
     natom =       9  nloc_mem =       2    nspden =       1   nspinor =       1
    nsppol =       1      nsym =       8    n1xccc =       1    ntypat =       4
    occopt =       1   xclevel =       2
-    mband =          42        mffmem =           1         mkmem =          28
       mpw =        6834          nfft =      157464          nkpt =         163
Pmy_natom=         2
 PAW method is used; the additional fine FFT grid is defined by:
   mgfftf=        90    nfftf =    729000
================================================================================
P This job should need less than                     340.518 Mbytes of memory.
  Rough estimation (10% accuracy) of disk space for files :
_ WF disk file :    713.893 Mbytes ; DEN or POT disk file :      5.564 Mbytes.
================================================================================


 DATASET    2 : space group I4 m m (#107); Bravais tI (body-center tetrag.)
================================================================================
 Values of the parameters that define the memory need for DATASET  2.
     intxc =       0    ionmov =       0      iscf =      17    lmnmax =      18
     lnmax =       6     mgfft =      54  mpssoang =       3    mqgrid =    3400
     natom =       9  nloc_mem =       2    nspden =       1   nspinor =       1
    nsppol =       1      nsym =       8    n1xccc =       1    ntypat =       4
    occopt =       1   xclevel =       2
-    mband =          42        mffmem =           1         mkmem =          28
       mpw =        6806          nfft =      157464          nkpt =         163
Pmy_natom=         2
 PAW method is used; the additional fine FFT grid is defined by:
   mgfftf=        90    nfftf =    729000
================================================================================
P This job should need less than                     339.966 Mbytes of memory.
  Rough estimation (10% accuracy) of disk space for files :
_ WF disk file :    710.968 Mbytes ; DEN or POT disk file :      5.564 Mbytes.
================================================================================


 DATASET    3 : space group I4 m m (#107); Bravais tI (body-center tetrag.)
================================================================================
 Values of the parameters that define the memory need for DATASET  3.
     intxc =       0    ionmov =       0      iscf =      17    lmnmax =      18
     lnmax =       6     mgfft =      54  mpssoang =       3    mqgrid =    3397
     natom =       9  nloc_mem =       2    nspden =       1   nspinor =       1
    nsppol =       1      nsym =       8    n1xccc =       1    ntypat =       4
    occopt =       1   xclevel =       2
-    mband =          42        mffmem =           1         mkmem =          28
       mpw =        6790          nfft =      157464          nkpt =         163
Pmy_natom=         2
 PAW method is used; the additional fine FFT grid is defined by:
   mgfftf=        90    nfftf =    729000
================================================================================
P This job should need less than                     339.655 Mbytes of memory.
  Rough estimation (10% accuracy) of disk space for files :
_ WF disk file :    709.297 Mbytes ; DEN or POT disk file :      5.564 Mbytes.
================================================================================


 DATASET    4 : space group I4 m m (#107); Bravais tI (body-center tetrag.)
================================================================================
 Values of the parameters that define the memory need for DATASET  4.
     intxc =       0    ionmov =       0      iscf =      17    lmnmax =      18
     lnmax =       6     mgfft =      54  mpssoang =       3    mqgrid =    3393
     natom =       9  nloc_mem =       2    nspden =       1   nspinor =       1
    nsppol =       1      nsym =       8    n1xccc =       1    ntypat =       4
    occopt =       1   xclevel =       2
-    mband =          42        mffmem =           1         mkmem =          28
       mpw =        6762          nfft =      157464          nkpt =         163
Pmy_natom=         2
 PAW method is used; the additional fine FFT grid is defined by:
   mgfftf=        90    nfftf =    729000
================================================================================
P This job should need less than                     339.102 Mbytes of memory.
  Rough estimation (10% accuracy) of disk space for files :
_ WF disk file :    706.372 Mbytes ; DEN or POT disk file :      5.564 Mbytes.
================================================================================


 DATASET    5 : space group I4 m m (#107); Bravais tI (body-center tetrag.)
================================================================================
 Values of the parameters that define the memory need for DATASET  5.
     intxc =       0    ionmov =       0      iscf =      17    lmnmax =      18
     lnmax =       6     mgfft =      54  mpssoang =       3    mqgrid =    3390
     natom =       9  nloc_mem =       2    nspden =       1   nspinor =       1
    nsppol =       1      nsym =       8    n1xccc =       1    ntypat =       4
    occopt =       1   xclevel =       2
-    mband =          42        mffmem =           1         mkmem =          28
       mpw =        6752          nfft =      157464          nkpt =         163
Pmy_natom=         2
 PAW method is used; the additional fine FFT grid is defined by:
   mgfftf=        90    nfftf =    729000
================================================================================
P This job should need less than                     338.913 Mbytes of memory.
  Rough estimation (10% accuracy) of disk space for files :
_ WF disk file :    705.327 Mbytes ; DEN or POT disk file :      5.564 Mbytes.
================================================================================


 DATASET    6 : space group I4 m m (#107); Bravais tI (body-center tetrag.)
================================================================================
 Values of the parameters that define the memory need for DATASET  6.
     intxc =       0    ionmov =       0      iscf =      17    lmnmax =      18
     lnmax =       6     mgfft =      54  mpssoang =       3    mqgrid =    3386
     natom =       9  nloc_mem =       2    nspden =       1   nspinor =       1
    nsppol =       1      nsym =       8    n1xccc =       1    ntypat =       4
    occopt =       1   xclevel =       2
-    mband =          42        mffmem =           1         mkmem =          28
       mpw =        6718          nfft =      157464          nkpt =         163
Pmy_natom=         2
 PAW method is used; the additional fine FFT grid is defined by:
   mgfftf=        90    nfftf =    729000
================================================================================
P This job should need less than                     338.239 Mbytes of memory.
  Rough estimation (10% accuracy) of disk space for files :
_ WF disk file :    701.775 Mbytes ; DEN or POT disk file :      5.564 Mbytes.
================================================================================


 DATASET    7 : space group I4 m m (#107); Bravais tI (body-center tetrag.)
================================================================================
 Values of the parameters that define the memory need for DATASET  7.
     intxc =       0    ionmov =       0      iscf =      17    lmnmax =      18
     lnmax =       6     mgfft =      54  mpssoang =       3    mqgrid =    3383
     natom =       9  nloc_mem =       2    nspden =       1   nspinor =       1
    nsppol =       1      nsym =       8    n1xccc =       1    ntypat =       4
    occopt =       1   xclevel =       2
-    mband =          42        mffmem =           1         mkmem =          28
       mpw =        6695          nfft =      157464          nkpt =         163
Pmy_natom=         2
 PAW method is used; the additional fine FFT grid is defined by:
   mgfftf=        90    nfftf =    729000
================================================================================
P This job should need less than                     337.787 Mbytes of memory.
  Rough estimation (10% accuracy) of disk space for files :
_ WF disk file :    699.373 Mbytes ; DEN or POT disk file :      5.564 Mbytes.
================================================================================


 DATASET    8 : space group I4 m m (#107); Bravais tI (body-center tetrag.)
================================================================================
 Values of the parameters that define the memory need for DATASET  8.
     intxc =       0    ionmov =       0      iscf =      17    lmnmax =      18
     lnmax =       6     mgfft =      54  mpssoang =       3    mqgrid =    3379
     natom =       9  nloc_mem =       2    nspden =       1   nspinor =       1
    nsppol =       1      nsym =       8    n1xccc =       1    ntypat =       4
    occopt =       1   xclevel =       2
-    mband =          42        mffmem =           1         mkmem =          28
       mpw =        6670          nfft =      157464          nkpt =         163
Pmy_natom=         2
 PAW method is used; the additional fine FFT grid is defined by:
   mgfftf=        90    nfftf =    729000
================================================================================
P This job should need less than                     337.295 Mbytes of memory.
  Rough estimation (10% accuracy) of disk space for files :
_ WF disk file :    696.761 Mbytes ; DEN or POT disk file :      5.564 Mbytes.
================================================================================


 DATASET    9 : space group I4 m m (#107); Bravais tI (body-center tetrag.)
================================================================================
 Values of the parameters that define the memory need for DATASET  9.
     intxc =       0    ionmov =       0      iscf =      17    lmnmax =      18
     lnmax =       6     mgfft =      54  mpssoang =       3    mqgrid =    3376
     natom =       9  nloc_mem =       2    nspden =       1   nspinor =       1
    nsppol =       1      nsym =       8    n1xccc =       1    ntypat =       4
    occopt =       1   xclevel =       2
-    mband =          42        mffmem =           1         mkmem =          28
       mpw =        6660          nfft =      157464          nkpt =         163
Pmy_natom=         2
 PAW method is used; the additional fine FFT grid is defined by:
   mgfftf=        90    nfftf =    729000
================================================================================
P This job should need less than                     337.106 Mbytes of memory.
  Rough estimation (10% accuracy) of disk space for files :
_ WF disk file :    695.717 Mbytes ; DEN or POT disk file :      5.564 Mbytes.
================================================================================


 DATASET   10 : space group I4 m m (#107); Bravais tI (body-center tetrag.)
================================================================================
 Values of the parameters that define the memory need for DATASET 10.
     intxc =       0    ionmov =       0      iscf =      17    lmnmax =      18
     lnmax =       6     mgfft =      54  mpssoang =       3    mqgrid =    3373
     natom =       9  nloc_mem =       2    nspden =       1   nspinor =       1
    nsppol =       1      nsym =       8    n1xccc =       1    ntypat =       4
    occopt =       1   xclevel =       2
-    mband =          42        mffmem =           1         mkmem =          28
       mpw =        6637          nfft =      157464          nkpt =         163
Pmy_natom=         2
 PAW method is used; the additional fine FFT grid is defined by:
   mgfftf=        90    nfftf =    729000
================================================================================
P This job should need less than                     336.654 Mbytes of memory.
  Rough estimation (10% accuracy) of disk space for files :
_ WF disk file :    693.314 Mbytes ; DEN or POT disk file :      5.564 Mbytes.
================================================================================

--------------------------------------------------------------------------------
------------- Echo of variables that govern the present computation ------------
--------------------------------------------------------------------------------
-
- outvars: echo of selected default values                                      
-   iomode0 =  0 , fftalg0 =112 , wfoptalg0 = 10
-
- outvars: echo of global parameters not present in the input file              
-  max_nthreads =    0
-
 -outvars: echo values of preprocessed input variables --------
            acell1     1.4587878460E+01  1.4587878460E+01  1.4748132604E+01 Bohr
            acell2     1.4573158056E+01  1.4573158056E+01  1.4733625095E+01 Bohr
            acell3     1.4558286313E+01  1.4558286313E+01  1.4719445523E+01 Bohr
            acell4     1.4543346862E+01  1.4543346862E+01  1.4705412997E+01 Bohr
            acell5     1.4528326857E+01  1.4528326857E+01  1.4691555629E+01 Bohr
            acell6     1.4513432321E+01  1.4513432321E+01  1.4677426515E+01 Bohr
            acell7     1.4497996622E+01  1.4497996622E+01  1.4664473445E+01 Bohr
            acell8     1.4483026697E+01  1.4483026697E+01  1.4650509472E+01 Bohr
            acell9     1.4468109601E+01  1.4468109601E+01  1.4636431027E+01 Bohr
            acell10    1.4453340087E+01  1.4453340087E+01  1.4622031672E+01 Bohr
              amu      1.32905430E+02  1.26904470E+02  9.12240000E+01
                       7.99040000E+01
           diemac      1.20000000E+01
             ecut      1.60000000E+01 Hartree
-          fftalg         112
           istwfk        2    0    0    0    0    0    3    0    0    0
                         0    0    0    0    0    0    0    0    0    0
                         0    0    0    0    0    0    0    0    0    0
                         0    0    0    0    0    0    0    0    0    0
                         0    0    7    0    0    0    0    0    0    0
                       outvar_i_n : Printing only first  50 k-points.
              ixc     -101130
           jdtset        1    2    3    4    5    6    7    8    9   10
              kpt      0.00000000E+00  0.00000000E+00  0.00000000E+00
                       8.33333333E-02  0.00000000E+00  0.00000000E+00
                       1.66666667E-01  0.00000000E+00  0.00000000E+00
                       2.50000000E-01  0.00000000E+00  0.00000000E+00
                       3.33333333E-01  0.00000000E+00  0.00000000E+00
                       4.16666667E-01  0.00000000E+00  0.00000000E+00
                       5.00000000E-01  0.00000000E+00  0.00000000E+00
                       8.33333333E-02  8.33333333E-02  0.00000000E+00
                       1.66666667E-01  8.33333333E-02  0.00000000E+00
                       2.50000000E-01  8.33333333E-02  0.00000000E+00
                       3.33333333E-01  8.33333333E-02  0.00000000E+00
                       4.16666667E-01  8.33333333E-02  0.00000000E+00
                       5.00000000E-01  8.33333333E-02  0.00000000E+00
                      -4.16666667E-01  8.33333333E-02  0.00000000E+00
                      -3.33333333E-01  8.33333333E-02  0.00000000E+00
                      -2.50000000E-01  8.33333333E-02  0.00000000E+00
                      -1.66666667E-01  8.33333333E-02  0.00000000E+00
                      -8.33333333E-02  8.33333333E-02  0.00000000E+00
                       1.66666667E-01  1.66666667E-01  0.00000000E+00
                       2.50000000E-01  1.66666667E-01  0.00000000E+00
                       3.33333333E-01  1.66666667E-01  0.00000000E+00
                       4.16666667E-01  1.66666667E-01  0.00000000E+00
                       5.00000000E-01  1.66666667E-01  0.00000000E+00
                      -4.16666667E-01  1.66666667E-01  0.00000000E+00
                      -3.33333333E-01  1.66666667E-01  0.00000000E+00
                      -2.50000000E-01  1.66666667E-01  0.00000000E+00
                      -1.66666667E-01  1.66666667E-01  0.00000000E+00
                       2.50000000E-01  2.50000000E-01  0.00000000E+00
                       3.33333333E-01  2.50000000E-01  0.00000000E+00
                       4.16666667E-01  2.50000000E-01  0.00000000E+00
                       5.00000000E-01  2.50000000E-01  0.00000000E+00
                      -4.16666667E-01  2.50000000E-01  0.00000000E+00
                      -3.33333333E-01  2.50000000E-01  0.00000000E+00
                      -2.50000000E-01  2.50000000E-01  0.00000000E+00
                       3.33333333E-01  3.33333333E-01  0.00000000E+00
                       4.16666667E-01  3.33333333E-01  0.00000000E+00
                       5.00000000E-01  3.33333333E-01  0.00000000E+00
                      -4.16666667E-01  3.33333333E-01  0.00000000E+00
                      -3.33333333E-01  3.33333333E-01  0.00000000E+00
                       4.16666667E-01  4.16666667E-01  0.00000000E+00
                       5.00000000E-01  4.16666667E-01  0.00000000E+00
                      -4.16666667E-01  4.16666667E-01  0.00000000E+00
                       5.00000000E-01  5.00000000E-01  0.00000000E+00
                       8.33333333E-02  0.00000000E+00  8.33333333E-02
                       1.66666667E-01  0.00000000E+00  8.33333333E-02
                       2.50000000E-01  0.00000000E+00  8.33333333E-02
                       3.33333333E-01  0.00000000E+00  8.33333333E-02
                       4.16666667E-01  0.00000000E+00  8.33333333E-02
                       5.00000000E-01  0.00000000E+00  8.33333333E-02
                      -4.16666667E-01  0.00000000E+00  8.33333333E-02
                       outvar_i_n : Printing only first  50 k-points.
         kptrlatt       12    0    0      0   12    0      0    0   12
          kptrlen1     1.75054542E+02
          kptrlen2     1.74877897E+02
          kptrlen3     1.74699436E+02
          kptrlen4     1.74520162E+02
          kptrlen5     1.74339922E+02
          kptrlen6     1.74161188E+02
          kptrlen7     1.73975959E+02
          kptrlen8     1.73796320E+02
          kptrlen9     1.73617315E+02
          kptrlen10    1.73440081E+02
P           mkmem          28
            natom           9
            nband          42
           ndtset          10
            ngfft          54      54      54
          ngfftdg          90      90      90
             nkpt         163
            nstep        2500
             nsym           8
           ntypat           4
              occ      2.000000  2.000000  2.000000  2.000000  2.000000  2.000000
                       2.000000  2.000000  2.000000  2.000000  2.000000  2.000000
                       2.000000  2.000000  2.000000  2.000000  2.000000  2.000000
                       2.000000  2.000000  2.000000  2.000000  2.000000  2.000000
                       2.000000  2.000000  2.000000  2.000000  2.000000  2.000000
                       2.000000  2.000000  2.000000  2.000000  2.000000  2.000000
                       0.000000  0.000000  0.000000  0.000000  0.000000  0.000000
        pawecutdg      4.00000000E+01 Hartree
            prtwf           0
            rprim1     0.0000000000E+00  7.1487465453E-01  6.9925262124E-01
                       7.1487465453E-01  0.0000000000E+00  6.9925262124E-01
                       7.0710678119E-01  7.0710678119E-01  0.0000000000E+00
            rprim2     0.0000000000E+00  7.1489283077E-01  6.9923403844E-01
                       7.1489283077E-01  0.0000000000E+00  6.9923403844E-01
                       7.0710678119E-01  7.0710678119E-01  0.0000000000E+00
            rprim3     0.0000000000E+00  7.1493440376E-01  6.9919153193E-01
                       7.1493440376E-01  0.0000000000E+00  6.9919153193E-01
                       7.0710678119E-01  7.0710678119E-01  0.0000000000E+00
            rprim4     0.0000000000E+00  7.1498653985E-01  6.9913821797E-01
                       7.1498653985E-01  0.0000000000E+00  6.9913821797E-01
                       7.0710678119E-01  7.0710678119E-01  0.0000000000E+00
            rprim5     0.0000000000E+00  7.1505127288E-01  6.9907201142E-01
                       7.1505127288E-01  0.0000000000E+00  6.9907201142E-01
                       7.0710678119E-01  7.0710678119E-01  0.0000000000E+00
            rprim6     0.0000000000E+00  7.1509671797E-01  6.9902552454E-01
                       7.1509671797E-01  0.0000000000E+00  6.9902552454E-01
                       7.0710678119E-01  7.0710678119E-01  0.0000000000E+00
            rprim7     0.0000000000E+00  7.1522630929E-01  6.9889292921E-01
                       7.1522630929E-01  0.0000000000E+00  6.9889292921E-01
                       7.0710678119E-01  7.0710678119E-01  0.0000000000E+00
            rprim8     0.0000000000E+00  7.1528381548E-01  6.9883407423E-01
                       7.1528381548E-01  0.0000000000E+00  6.9883407423E-01
                       7.0710678119E-01  7.0710678119E-01  0.0000000000E+00
            rprim9     0.0000000000E+00  7.1533323408E-01  6.9878348880E-01
                       7.1533323408E-01  0.0000000000E+00  6.9878348880E-01
                       7.0710678119E-01  7.0710678119E-01  0.0000000000E+00
            rprim10    0.0000000000E+00  7.1535974991E-01  6.9875634395E-01
                       7.1535974991E-01  0.0000000000E+00  6.9875634395E-01
                       7.0710678119E-01  7.0710678119E-01  0.0000000000E+00
          spgroup         107
           symrel      1  0  0   0  1  0   0  0  1       1  0 -1   0  1 -1   0  0 -1
                       0  1 -1   1  0 -1   0  0 -1       0  1  0   1  0  0   0  0  1
                       1  0  0   1  0 -1   1 -1  0       0  1  0   0  1 -1  -1  1  0
                       0  1 -1   0  1  0  -1  1  0       1  0 -1   1  0  0   1 -1  0
           toldfe      1.00000000E-08 Hartree
            typat      1  1  2  4  2  2  2  2  3
           useylm           1
              wtk        0.00058    0.00463    0.00463    0.00463    0.00463    0.00463
                         0.00231    0.00116    0.00463    0.00463    0.00463    0.00463
                         0.00463    0.00463    0.00463    0.00463    0.00463    0.00231
                         0.00116    0.00463    0.00463    0.00463    0.00463    0.00463
                         0.00463    0.00463    0.00231    0.00116    0.00463    0.00463
                         0.00463    0.00463    0.00463    0.00231    0.00116    0.00463
                         0.00463    0.00463    0.00231    0.00116    0.00463    0.00231
                         0.00058    0.00231    0.00926    0.00926    0.00926    0.00926
                         0.00926    0.00926
                       outvars : Printing only first  50 k-points.
           xangst1     2.7592634702E+00  2.7592634702E+00  2.6940283207E+00
                       8.2777904106E+00  8.2777904106E+00  8.0919598379E+00
                       5.5185269404E+00  5.5185269404E+00  2.7454358700E+00
                       5.5185269404E+00  5.5185269404E+00  8.1207775250E+00
                       8.2110747895E+00  5.5185269404E+00  5.4034853496E+00
                       5.5185269404E+00  8.2110747895E+00  5.4034853496E+00
                       5.5185269404E+00  2.8259790913E+00  5.4034853496E+00
                       2.8259790913E+00  5.5185269404E+00  5.4034853496E+00
                      -9.7438304256E-13 -9.7438304256E-13 -8.2690814700E-02
           xangst2     2.7565492255E+00  2.7565492255E+00  2.6913336743E+00
                       8.2696476765E+00  8.2696476765E+00  8.0836749152E+00
                       5.5130984510E+00  5.5130984510E+00  2.7439475932E+00
                       5.5130984510E+00  5.5130984510E+00  8.1099022114E+00
                       8.2014157262E+00  5.5130984510E+00  5.3982293945E+00
                       5.5130984510E+00  8.2014157262E+00  5.3982293945E+00
                       5.5130984510E+00  2.8247811758E+00  5.3982293945E+00
                       2.8247811758E+00  5.5130984510E+00  5.3982293945E+00
                       1.1132131463E-12  1.1132131463E-12 -8.3046045041E-02
           xangst3     2.7538963355E+00  2.7538963355E+00  2.6886814872E+00
                       8.2616890064E+00  8.2616890064E+00  8.0751924383E+00
                       5.5077926709E+00  5.5077926709E+00  2.7424581130E+00
                       5.5077926710E+00  5.5077926710E+00  8.0984222981E+00
                       8.1920392962E+00  5.5077926709E+00  5.3927268394E+00
                       5.5077926709E+00  8.1920392962E+00  5.3927268394E+00
                       5.5077926710E+00  2.8235460457E+00  5.3927268394E+00
                       2.8235460457E+00  5.5077926710E+00  5.3927268394E+00
                      -1.1574139010E-12 -1.1574139010E-12 -8.3574084830E-02
           xangst4     2.7512709566E+00  2.7512709566E+00  2.6860182662E+00
                       8.2538128697E+00  8.2538128697E+00  8.0665913723E+00
                       5.5025419131E+00  5.5025419131E+00  2.7408525365E+00
                       5.5025419132E+00  5.5025419132E+00  8.0866886380E+00
                       8.1827680533E+00  5.5025419131E+00  5.3871348821E+00
                       5.5025419131E+00  8.1827680533E+00  5.3871348821E+00
                       5.5025419132E+00  2.8223157730E+00  5.3871348821E+00
                       2.8223157730E+00  5.5025419132E+00  5.3871348821E+00
                      -1.3295889911E-12 -1.3295889911E-12 -8.4105492790E-02
           xangst5     2.7486783484E+00  2.7486783484E+00  2.6833135102E+00
                       8.2460350452E+00  8.2460350452E+00  8.0578206950E+00
                       5.4973566967E+00  5.4973566967E+00  2.7392037546E+00
                       5.4973566968E+00  5.4973566968E+00  8.0748762588E+00
                       8.1736218829E+00  5.4973566967E+00  5.3813346642E+00
                       5.4973566967E+00  8.1736218829E+00  5.3813346642E+00
                       5.4973566968E+00  2.8210915106E+00  5.3813346642E+00
                       2.8210915106E+00  5.4973566968E+00  5.3813346642E+00
                      -1.7409563809E-12 -1.7409563809E-12 -8.4495397171E-02
           xangst6     2.7460348985E+00  2.7460348985E+00  2.6805979697E+00
                       8.2381046956E+00  8.2381046956E+00  8.0492381470E+00
                       5.4920697971E+00  5.4920697971E+00  2.7375880596E+00
                       5.4920697971E+00  5.4920697971E+00  8.0634525692E+00
                       8.1642925094E+00  5.4920697971E+00  5.3758039713E+00
                       5.4920697971E+00  8.1642925094E+00  5.3758039713E+00
                       5.4920697971E+00  2.8198470848E+00  5.3758039713E+00
                       2.8198470848E+00  5.4920697971E+00  5.3758039713E+00
                      -2.1946967627E-13 -2.1946967627E-13 -8.4971212438E-02
           xangst7     2.7436114777E+00  2.7436114777E+00  2.6775081953E+00
                       8.2308344331E+00  8.2308344331E+00  8.0394213056E+00
                       5.4872229553E+00  5.4872229553E+00  2.7359429826E+00
                       5.4872229555E+00  5.4872229555E+00  8.0503034077E+00
                       8.1559053357E+00  5.4872229553E+00  5.3693929441E+00
                       5.4872229553E+00  8.1559053357E+00  5.3693929441E+00
                       5.4872229555E+00  2.8185405751E+00  5.3693929441E+00
                       2.8185405751E+00  5.4872229555E+00  5.3693929441E+00
                      -2.1577353732E-12 -2.1577353732E-12 -8.5442785253E-02
           xangst8     2.7409989245E+00  2.7409989245E+00  2.6749105616E+00
                       8.2229967734E+00  8.2229967734E+00  8.0308361519E+00
                       5.4819978489E+00  5.4819978489E+00  2.7342436262E+00
                       5.4819978489E+00  5.4819978489E+00  8.0385030109E+00
                       8.1467362071E+00  5.4819978489E+00  5.3637375993E+00
                       5.4819978489E+00  8.1467362071E+00  5.3637375993E+00
                       5.4819978489E+00  2.8172594908E+00  5.3637375993E+00
                       2.8172594908E+00  5.4819978489E+00  5.3637375993E+00
                       4.5331312458E-14  4.5331312458E-14 -8.6039025187E-02
           xangst9     2.7383649545E+00  2.7383649545E+00  2.6722165365E+00
                       8.2150948635E+00  8.2150948635E+00  8.0222383875E+00
                       5.4767299089E+00  5.4767299089E+00  2.7325944605E+00
                       5.4767299090E+00  5.4767299090E+00  8.0269350951E+00
                       8.1374934557E+00  5.4767299089E+00  5.3581894385E+00
                       5.4767299089E+00  8.1374934557E+00  5.3581894385E+00
                       5.4767299090E+00  2.8159663623E+00  5.3581894385E+00
                       2.8159663623E+00  5.4767299090E+00  5.3581894385E+00
                      -1.2664504763E-12 -1.2664504763E-12 -8.6567425731E-02
           xangst10    2.7356709446E+00  2.7356709446E+00  2.6696383940E+00
                       8.2070128338E+00  8.2070128338E+00  8.0139911556E+00
                       5.4713418892E+00  5.4713418892E+00  2.7309591329E+00
                       5.4713418892E+00  5.4713418892E+00  8.0158629181E+00
                       8.1280229506E+00  5.4713418892E+00  5.3528640161E+00
                       5.4713418892E+00  8.1280229506E+00  5.3528640161E+00
                       5.4713418892E+00  2.8146608278E+00  5.3528640161E+00
                       2.8146608278E+00  5.4713418892E+00  5.3528640161E+00
                       1.9684056415E-13  1.9684056415E-13 -8.7085571967E-02
            xcart1     5.2142522871E+00  5.2142522871E+00  5.0909757204E+00
                       1.5642756861E+01  1.5642756861E+01  1.5291587972E+01
                       1.0428504574E+01  1.0428504574E+01  5.1881219097E+00
                       1.0428504574E+01  1.0428504574E+01  1.5346045508E+01
                       1.5516682609E+01  1.0428504574E+01  1.0211107474E+01
                       1.0428504574E+01  1.5516682609E+01  1.0211107474E+01
                       1.0428504574E+01  5.3403265398E+00  1.0211107474E+01
                       5.3403265398E+00  1.0428504574E+01  1.0211107474E+01
                      -1.8413170990E-12 -1.8413170990E-12 -1.5626299349E-01
            xcart2     5.2091231080E+00  5.2091231080E+00  5.0858835766E+00
                       1.5627369324E+01  1.5627369324E+01  1.5275931737E+01
                       1.0418246216E+01  1.0418246216E+01  5.1853094741E+00
                       1.0418246216E+01  1.0418246216E+01  1.5325494144E+01
                       1.5498429625E+01  1.0418246216E+01  1.0201175158E+01
                       1.0418246216E+01  1.5498429625E+01  1.0201175158E+01
                       1.0418246216E+01  5.3380628076E+00  1.0201175158E+01
                       5.3380628076E+00  1.0418246216E+01  1.0201175158E+01
                       2.1036679740E-12  2.1036679740E-12 -1.5693428155E-01
            xcart3     5.2041098724E+00  5.2041098724E+00  5.0808716693E+00
                       1.5612329617E+01  1.5612329617E+01  1.5259902179E+01
                       1.0408219745E+01  1.0408219745E+01  5.1824947645E+00
                       1.0408219745E+01  1.0408219745E+01  1.5303800252E+01
                       1.5480710740E+01  1.0408219745E+01  1.0190776836E+01
                       1.0408219745E+01  1.5480710740E+01  1.0190776836E+01
                       1.0408219745E+01  5.3357287499E+00  1.0190776836E+01
                       5.3357287499E+00  1.0408219745E+01  1.0190776836E+01
                      -2.1871952953E-12 -2.1871952953E-12 -1.5793213214E-01
            xcart4     5.1991486253E+00  5.1991486253E+00  5.0758389110E+00
                       1.5597445876E+01  1.5597445876E+01  1.5243648519E+01
                       1.0398297250E+01  1.0398297250E+01  5.1794606647E+00
                       1.0398297251E+01  1.0398297251E+01  1.5281626848E+01
                       1.5463190630E+01  1.0398297250E+01  1.0180209568E+01
                       1.0398297250E+01  1.5463190630E+01  1.0180209568E+01
                       1.0398297251E+01  5.3334038715E+00  1.0180209568E+01
                       5.3334038715E+00  1.0398297251E+01  1.0180209568E+01
                      -2.5125590626E-12 -2.5125590626E-12 -1.5893634764E-01
            xcart5     5.1942493059E+00  5.1942493059E+00  5.0707276630E+00
                       1.5582747918E+01  1.5582747918E+01  1.5227074341E+01
                       1.0388498612E+01  1.0388498612E+01  5.1763449184E+00
                       1.0388498612E+01  1.0388498612E+01  1.5259304686E+01
                       1.5445906873E+01  1.0388498612E+01  1.0169248745E+01
                       1.0388498612E+01  1.5445906873E+01  1.0169248745E+01
                       1.0388498612E+01  5.3310903509E+00  1.0169248745E+01
                       5.3310903509E+00  1.0388498612E+01  1.0169248745E+01
                      -3.2899307692E-12 -3.2899307692E-12 -1.5967316014E-01
            xcart6     5.1892539096E+00  5.1892539096E+00  5.0655960351E+00
                       1.5567761729E+01  1.5567761729E+01  1.5210855676E+01
                       1.0378507819E+01  1.0378507819E+01  5.1732916972E+00
                       1.0378507819E+01  1.0378507819E+01  1.5237717041E+01
                       1.5428276912E+01  1.0378507819E+01  1.0158797250E+01
                       1.0378507819E+01  1.5428276912E+01  1.0158797250E+01
                       1.0378507819E+01  5.3287387269E+00  1.0158797250E+01
                       5.3287387269E+00  1.0378507819E+01  1.0158797250E+01
                      -4.1473758263E-13 -4.1473758263E-13 -1.6057232069E-01
            xcart7     5.1846743079E+00  5.1846743079E+00  5.0597572076E+00
                       1.5554022924E+01  1.5554022924E+01  1.5192304534E+01
                       1.0369348616E+01  1.0369348616E+01  5.1701829523E+00
                       1.0369348616E+01  1.0369348616E+01  1.5212868727E+01
                       1.5412427450E+01  1.0369348616E+01  1.0146682164E+01
                       1.0369348616E+01  1.5412427450E+01  1.0146682164E+01
                       1.0369348616E+01  5.3262697813E+00  1.0146682164E+01
                       5.3262697813E+00  1.0369348616E+01  1.0146682164E+01
                      -4.0775289226E-12 -4.0775289226E-12 -1.6146346416E-01
            xcart8     5.1797372978E+00  5.1797372978E+00  5.0548483913E+00
                       1.5539211893E+01  1.5539211893E+01  1.5176080945E+01
                       1.0359474596E+01  1.0359474596E+01  5.1669716341E+00
                       1.0359474596E+01  1.0359474596E+01  1.5190569209E+01
                       1.5395100308E+01  1.0359474596E+01  1.0135995111E+01
                       1.0359474596E+01  1.5395100308E+01  1.0135995111E+01
                       1.0359474596E+01  5.3238488829E+00  1.0135995111E+01
                       5.3238488829E+00  1.0359474596E+01  1.0135995111E+01
                       8.5663765791E-14  8.5663765791E-14 -1.6259019434E-01
            xcart9     5.1747598159E+00  5.1747598159E+00  5.0497574218E+00
                       1.5524279448E+01  1.5524279448E+01  1.5159833525E+01
                       1.0349519632E+01  1.0349519632E+01  5.1638551627E+00
                       1.0349519632E+01  1.0349519632E+01  1.5168709016E+01
                       1.5377634039E+01  1.0349519632E+01  1.0125510607E+01
                       1.0349519632E+01  1.5377634039E+01  1.0125510607E+01
                       1.0349519632E+01  5.3214052241E+00  1.0125510607E+01
                       5.3214052241E+00  1.0349519632E+01  1.0125510607E+01
                      -2.3932445611E-12 -2.3932445611E-12 -1.6358872666E-01
            xcart10    5.1696688750E+00  5.1696688750E+00  5.0448854385E+00
                       1.5509006625E+01  1.5509006625E+01  1.5144248516E+01
                       1.0339337750E+01  1.0339337750E+01  5.1607648412E+00
                       1.0339337750E+01  1.0339337750E+01  1.5147785634E+01
                       1.5359737378E+01  1.0339337750E+01  1.0115447017E+01
                       1.0339337750E+01  1.5359737378E+01  1.0115447017E+01
                       1.0339337750E+01  5.3189381216E+00  1.0115447017E+01
                       5.3189381216E+00  1.0339337750E+01  1.0115447017E+01
                       3.7197475808E-13  3.7197475808E-13 -1.6456788114E-01
             xred1     2.4954265464E-01  2.4954265464E-01  2.5045734536E-01
                       7.4954265464E-01  7.4954265464E-01  7.5045734536E-01
                       2.5430443692E-01  2.5430443692E-01  7.4569556308E-01
                       7.5221198150E-01  7.5221198150E-01  2.4778801850E-01
                       2.5655913550E-01  7.4446974610E-01  7.4344086450E-01
                       7.4446974610E-01  2.5655913550E-01  7.4344086450E-01
                       2.5655913550E-01  7.4446974610E-01  2.5553025390E-01
                       7.4446974610E-01  2.5655913550E-01  2.5553025390E-01
                      -7.6594909029E-03 -7.6594909029E-03  7.6594909029E-03
             xred2     2.4955149851E-01  2.4955149851E-01  2.5044850149E-01
                       7.4955149851E-01  7.4955149851E-01  7.5044850149E-01
                       2.5443007690E-01  2.5443007690E-01  7.4556992310E-01
                       7.5198340101E-01  7.5198340101E-01  2.4801659899E-01
                       2.5673414098E-01  7.4435780653E-01  7.4326585902E-01
                       7.4435780653E-01  2.5673414098E-01  7.4326585902E-01
                       2.5673414098E-01  7.4435780653E-01  2.5564219347E-01
                       7.4435780653E-01  2.5673414098E-01  2.5564219347E-01
                      -7.7003699628E-03 -7.7003699628E-03  7.7003699628E-03
             xred3     2.4957542197E-01  2.4957542197E-01  2.5042457803E-01
                       7.4957542197E-01  7.4957542197E-01  7.5042457803E-01
                       2.5456720852E-01  2.5456720852E-01  7.4543279148E-01
                       7.5173172129E-01  7.5173172129E-01  2.4826827871E-01
                       2.5689981984E-01  7.4425415317E-01  7.4310018016E-01
                       7.4425415317E-01  2.5689981984E-01  7.4310018016E-01
                       2.5689981984E-01  7.4425415317E-01  2.5574584683E-01
                       7.4425415317E-01  2.5689981984E-01  2.5574584683E-01
                      -7.7577197548E-03 -7.7577197548E-03  7.7577197548E-03
             xred4     2.4960336132E-01  2.4960336132E-01  2.5039663868E-01
                       7.4960336132E-01  7.4960336132E-01  7.5039663868E-01
                       2.5469894029E-01  2.5469894029E-01  7.4530105971E-01
                       7.5147093800E-01  7.5147093800E-01  2.4852906200E-01
                       2.5706540163E-01  7.4415412943E-01  7.4293459837E-01
                       7.4415412943E-01  2.5706540163E-01  7.4293459837E-01
                       2.5706540163E-01  7.4415412943E-01  2.5584587057E-01
                       7.4415412943E-01  2.5706540163E-01  2.5584587057E-01
                      -7.8156630467E-03 -7.8156630467E-03  7.8156630467E-03
             xred5     2.4963344712E-01  2.4963344712E-01  2.5036655288E-01
                       7.4963344712E-01  7.4963344712E-01  7.5036655288E-01
                       2.5483301635E-01  2.5483301635E-01  7.4516698365E-01
                       7.5122015667E-01  7.5122015667E-01  2.4877984333E-01
                       2.5722135267E-01  7.4404899253E-01  7.4277864733E-01
                       7.4404899253E-01  2.5722135267E-01  7.4277864733E-01
                       2.5722135267E-01  7.4404899253E-01  2.5595100747E-01
                       7.4404899253E-01  2.5722135267E-01  2.5595100747E-01
                      -7.8607576719E-03 -7.8607576719E-03  7.8607576719E-03
             xred6     2.4965334621E-01  2.4965334621E-01  2.5034665379E-01
                       7.4965334621E-01  7.4965334621E-01  7.5034665379E-01
                       2.5496103009E-01  2.5496103009E-01  7.4503896991E-01
                       7.5097718444E-01  7.5097718444E-01  2.4902281556E-01
                       2.5738707673E-01  7.4394730102E-01  7.4261292327E-01
                       7.4394730102E-01  2.5738707673E-01  7.4261292327E-01
                       2.5738707673E-01  7.4394730102E-01  2.5605269898E-01
                       7.4394730102E-01  2.5738707673E-01  2.5605269898E-01
                      -7.9136624575E-03 -7.9136624575E-03  7.9136624575E-03
             xred7     2.4967843941E-01  2.4967843941E-01  2.5032156059E-01
                       7.4967843941E-01  7.4967843941E-01  7.5032156059E-01
                       2.5512750079E-01  2.5512750079E-01  7.4487249921E-01
                       7.5069319868E-01  7.5069319868E-01  2.4930680132E-01
                       2.5752509405E-01  7.4386989943E-01  7.4247490595E-01
                       7.4386989943E-01  2.5752509405E-01  7.4247490595E-01
                       2.5752509405E-01  7.4386989943E-01  2.5613010057E-01
                       7.4386989943E-01  2.5752509405E-01  2.5613010057E-01
                      -7.9675652603E-03 -7.9675652603E-03  7.9675652603E-03
             xred8     2.4971506012E-01  2.4971506012E-01  2.5028493988E-01
                       7.4971506012E-01  7.4971506012E-01  7.5028493988E-01
                       2.5525407141E-01  2.5525407141E-01  7.4474592859E-01
                       7.5043079626E-01  7.5043079626E-01  2.4956920374E-01
                       2.5768483163E-01  7.4377374147E-01  7.4231516837E-01
                       7.4377374147E-01  2.5768483163E-01  7.4231516837E-01
                       2.5768483163E-01  7.4377374147E-01  2.5622625853E-01
                       7.4377374147E-01  2.5768483163E-01  2.5622625853E-01
                      -8.0321341042E-03 -8.0321341042E-03  8.0321341042E-03
             xred9     2.4973884322E-01  2.4973884322E-01  2.5026115678E-01
                       7.4973884322E-01  7.4973884322E-01  7.5026115678E-01
                       2.5538161681E-01  2.5538161681E-01  7.4461838319E-01
                       7.5017778606E-01  7.5017778606E-01  2.4982221394E-01
                       2.5784797087E-01  7.4367867476E-01  7.4215202913E-01
                       7.4367867476E-01  2.5784797087E-01  7.4215202913E-01
                       2.5784797087E-01  7.4367867476E-01  2.5632132524E-01
                       7.4367867476E-01  2.5784797087E-01  2.5632132524E-01
                      -8.0903805762E-03 -8.0903805762E-03  8.0903805762E-03
             xred10    2.4976255433E-01  2.4976255433E-01  2.5023744567E-01
                       7.4976255433E-01  7.4976255433E-01  7.5023744567E-01
                       2.5549952021E-01  2.5549952021E-01  7.4450047979E-01
                       7.4993767025E-01  7.4993767025E-01  2.5006232975E-01
                       2.5801479587E-01  7.4357777387E-01  7.4198520413E-01
                       7.4357777387E-01  2.5801479587E-01  7.4198520413E-01
                       2.5801479587E-01  7.4357777387E-01  2.5642222613E-01
                       7.4357777387E-01  2.5801479587E-01  2.5642222613E-01
                      -8.1474386002E-03 -8.1474386002E-03  8.1474386002E-03
            znucl       55.00000   53.00000   40.00000   35.00000

================================================================================

 chkinp: Checking input parameters for consistency, jdtset=   1.

 chkinp: Checking input parameters for consistency, jdtset=   2.

 chkinp: Checking input parameters for consistency, jdtset=   3.

 chkinp: Checking input parameters for consistency, jdtset=   4.

 chkinp: Checking input parameters for consistency, jdtset=   5.

 chkinp: Checking input parameters for consistency, jdtset=   6.

 chkinp: Checking input parameters for consistency, jdtset=   7.

 chkinp: Checking input parameters for consistency, jdtset=   8.

 chkinp: Checking input parameters for consistency, jdtset=   9.

 chkinp: Checking input parameters for consistency, jdtset=  10.

================================================================================
== DATASET  1 ==================================================================
-   mpi_nproc: 6, omp_nthreads: -1 (-1 if OMP is not activated)


--- !DatasetInfo
iteration_state: {dtset: 1, }
dimensions: {natom: 9, nkpt: 163, mband: 42, nsppol: 1, nspinor: 1, nspden: 1, mpw: 6834, }
cutoff_energies: {ecut:  16.0, pawecutdg:  40.0, }
electrons: {nelect:   7.20000000E+01, charge:   0.00000000E+00, occopt:   1.00000000E+00, tsmear:   1.00000000E-02, }
meta: {optdriver: 0, ionmov: 0, optcell: 0, iscf: 17, paral_kgb: 0, }
...

 Real(R)+Recip(G) space primitive vectors, cartesian coordinates (Bohr,Bohr^-1):
 R(1)=  0.0000000 10.4285046 10.2006123  G(1)= -0.0479455  0.0479455  0.0490167
 R(2)= 10.4285046  0.0000000 10.2006123  G(2)=  0.0479455 -0.0479455  0.0490167
 R(3)= 10.4285046 10.4285046  0.0000000  G(3)=  0.0479455  0.0479455 -0.0490167
 Unit cell volume ucvol=  2.2187088E+03 bohr^3
 Angles (23,13,12)=  5.96359346E+01  5.96359346E+01  6.07281308E+01 degrees

 Coarse grid specifications (used for wave-functions):

 getcut: wavevector=  0.0000  0.0000  0.0000  ngfft=  54  54  54
         ecut(hartree)=     16.000   => boxcut(ratio)=   2.03417

 Fine grid specifications (used for densities):

 getcut: wavevector=  0.0000  0.0000  0.0000  ngfft=  90  90  90
         ecut(hartree)=     40.000   => boxcut(ratio)=   2.14371

--- Pseudopotential description ------------------------------------------------
- pspini: atom type   1  psp file is ../../../Psps_for_tests/ATOMICDATA/Cs.GGA_PBE-JTH.xml
- pspatm: opening atomic psp file    ../../../Psps_for_tests/ATOMICDATA/Cs.GGA_PBE-JTH.xml
- pspatm : Reading pseudopotential header in XML form from ../../../Psps_for_tests/ATOMICDATA/Cs.GGA_PBE-JTH.xml
 Pseudopotential format is: paw10
 basis_size (lnmax)=  6 (lmn_size= 18), orbitals=   0   0   1   1   2   2
 Spheres core radius: rc_sph= 2.20660278
 1 radial meshes are used:
  - mesh 1: r(i)=AA*[exp(BB*(i-1))-1], size=1500 , AA= 0.15922E-03 BB= 0.87573E-02
 Shapefunction is SIN type: shapef(r)=[sin(pi*r/rshp)/(pi*r/rshp)]**2
 Radius for shape functions =  2.00394208
 mmax= 1500
 Radial grid used for partial waves is grid 1
 Radial grid used for projectors is grid 1
 Radial grid used for (t)core density is grid 1
 Radial grid used for Vloc is grid 1
 Radial grid used for pseudo valence density is grid 1
 Mesh size for Vloc has been set to 1341 to avoid numerical noise.
 Compensation charge density is not taken into account in XC energy/potential
 pspatm: atomic psp has been read  and splines computed

- pspini: atom type   2  psp file is ../../../Psps_for_tests/ATOMICDATA/I.GGA_PBE-JTH.xml
- pspatm: opening atomic psp file    ../../../Psps_for_tests/ATOMICDATA/I.GGA_PBE-JTH.xml
- pspatm : Reading pseudopotential header in XML form from ../../../Psps_for_tests/ATOMICDATA/I.GGA_PBE-JTH.xml
 Pseudopotential format is: paw10
 basis_size (lnmax)=  4 (lmn_size=  8), orbitals=   0   0   1   1
 Spheres core radius: rc_sph= 2.30022271
 1 radial meshes are used:
  - mesh 1: r(i)=AA*[exp(BB*(i-1))-1], size=2000 , AA= 0.12610E-03 BB= 0.66836E-02
 Shapefunction is SIN type: shapef(r)=[sin(pi*r/rshp)/(pi*r/rshp)]**2
 Radius for shape functions =  2.10879093
 mmax= 2000
 Radial grid used for partial waves is grid 1
 Radial grid used for projectors is grid 1
 Radial grid used for (t)core density is grid 1
 Radial grid used for Vloc is grid 1
 Radial grid used for pseudo valence density is grid 1
 Mesh size for Vloc has been set to 1792 to avoid numerical noise.
 Compensation charge density is not taken into account in XC energy/potential
 pspatm: atomic psp has been read  and splines computed

- pspini: atom type   3  psp file is ../../../Psps_for_tests/ATOMICDATA/Zr.GGA_PBE-JTH.xml
- pspatm: opening atomic psp file    ../../../Psps_for_tests/ATOMICDATA/Zr.GGA_PBE-JTH.xml
- pspatm : Reading pseudopotential header in XML form from ../../../Psps_for_tests/ATOMICDATA/Zr.GGA_PBE-JTH.xml
 Pseudopotential format is: paw10
 basis_size (lnmax)=  6 (lmn_size= 18), orbitals=   0   0   1   1   2   2
 Spheres core radius: rc_sph= 2.21000000
 1 radial meshes are used:
  - mesh 1: r(i)=AA*[exp(BB*(i-1))-1], size= 941 , AA= 0.35256E-03 BB= 0.14102E-01
 Shapefunction is BESSEL type: shapef(r,l)=aa(1,l)*jl(q(1,l)*r)+aa(2,l)*jl(q(2,l)*r)
 Radius for shape functions =  2.21000000
 mmax=  941
 Radial grid used for partial waves is grid 1
 Radial grid used for projectors is grid 1
 Radial grid used for (t)core density is grid 1
 Radial grid used for Vloc is grid 1
 Radial grid used for pseudo valence density is grid 1
 Mesh size for Vloc has been set to  777 to avoid numerical noise.
 Compensation charge density is not taken into account in XC energy/potential
 pspatm: atomic psp has been read  and splines computed

- pspini: atom type   4  psp file is ../../../Psps_for_tests/ATOMICDATA/Br.GGA_PBE-JTH.xml
- pspatm: opening atomic psp file    ../../../Psps_for_tests/ATOMICDATA/Br.GGA_PBE-JTH.xml
- pspatm : Reading pseudopotential header in XML form from ../../../Psps_for_tests/ATOMICDATA/Br.GGA_PBE-JTH.xml
 Pseudopotential format is: paw10
 basis_size (lnmax)=  4 (lmn_size=  8), orbitals=   0   0   1   1
 Spheres core radius: rc_sph= 2.20000000
 1 radial meshes are used:
  - mesh 1: r(i)=AA*[exp(BB*(i-1))-1], size= 927 , AA= 0.40483E-03 BB= 0.14169E-01
 Shapefunction is BESSEL type: shapef(r,l)=aa(1,l)*jl(q(1,l)*r)+aa(2,l)*jl(q(2,l)*r)
 Radius for shape functions =  2.02066386
 mmax=  927
 Radial grid used for partial waves is grid 1
 Radial grid used for projectors is grid 1
 Radial grid used for (t)core density is grid 1
 Radial grid used for Vloc is grid 1
 Radial grid used for pseudo valence density is grid 1
 Mesh size for Vloc has been set to  763 to avoid numerical noise.
 Compensation charge density is not taken into account in XC energy/potential
 pspatm: atomic psp has been read  and splines computed

   4.08286929E+04                                ecore*ucvol(ha*bohr**3)
--------------------------------------------------------------------------------

_setup2: Arith. and geom. avg. npw (full set) are    6782.116    6782.110

================================================================================

--- !BeginCycle
iteration_state: {dtset: 1, }
solver: {iscf: 17, nstep: 2500, nline: 4, wfoptalg: 10, }
tolerances: {toldfe: 1.00E-08, }
...

     iter   Etot(hartree)      deltaE(h)  residm     nres2
 ETOT  1  -160.51042716825    -1.605E+02 2.627E-01 1.689E+01
 ETOT  2  -160.75541355938    -2.450E-01 1.526E-02 5.061E+00
 ETOT  3  -160.75049863458     4.915E-03 2.863E-03 1.042E+00
 ETOT  4  -160.75133779090    -8.392E-04 2.584E-03 1.132E-01
 ETOT  5  -160.75071399776     6.238E-04 1.259E-03 6.926E-03
 ETOT  6  -160.75077616549    -6.217E-05 1.093E-03 1.412E-03
 ETOT  7  -160.75077366564     2.500E-06 9.031E-04 4.813E-04
 ETOT  8  -160.75077419324    -5.276E-07 5.900E-04 8.734E-05
 ETOT  9  -160.75077434315    -1.499E-07 4.110E-04 4.937E-05
 ETOT 10  -160.75077426093     8.222E-08 4.639E-04 4.950E-06
 ETOT 11  -160.75077431747    -5.654E-08 3.643E-04 9.041E-06
 ETOT 12  -160.75077428185     3.562E-08 2.811E-04 9.127E-07
 ETOT 13  -160.75077428559    -3.743E-09 1.786E-04 2.422E-07
 ETOT 14  -160.75077428491     6.773E-10 1.131E-04 8.319E-09

 At SCF step   14, etot is converged : 
  for the second time, diff in etot=  6.773E-10 < toldfe=  1.000E-08

 Cartesian components of stress tensor (hartree/bohr^3)
  sigma(1 1)= -1.40501798E-04  sigma(3 2)= -9.60781681E-14
  sigma(2 2)= -1.40501798E-04  sigma(3 1)= -9.60779495E-14
  sigma(3 3)= -1.40462872E-04  sigma(2 1)=  1.87952713E-13


--- !ResultsGS
iteration_state: {dtset: 1, }
comment   : Summary of ground state results
lattice_vectors:
- [  0.0000000,  10.4285046,  10.2006123, ]
- [ 10.4285046,   0.0000000,  10.2006123, ]
- [ 10.4285046,  10.4285046,   0.0000000, ]
lattice_lengths: [  14.58788,   14.58788,   14.74813, ]
lattice_angles: [ 59.636,  59.636,  60.728, ] # degrees, (23, 13, 12)
lattice_volume:   2.2187088E+03
convergence: {deltae:  6.773E-10, res2:  8.319E-09, residm:  1.131E-04, diffor: null, }
etotal    :  -1.60750774E+02
entropy   :   0.00000000E+00
fermie    :  -6.37159773E-02
cartesian_stress_tensor: # hartree/bohr^3
- [ -1.40501798E-04,   1.87952713E-13,  -9.60779495E-14, ]
- [  1.87952713E-13,  -1.40501798E-04,  -9.60781681E-14, ]
- [ -9.60779495E-14,  -9.60781681E-14,  -1.40462872E-04, ]
pressure_GPa:   4.1333E+00
xred      :
- [  2.4954E-01,   2.4954E-01,   2.5046E-01, Cs]
- [  7.4954E-01,   7.4954E-01,   7.5046E-01, Cs]
- [  2.5430E-01,   2.5430E-01,   7.4570E-01,  I]
- [  7.5221E-01,   7.5221E-01,   2.4779E-01, Br]
- [  2.5656E-01,   7.4447E-01,   7.4344E-01,  I]
- [  7.4447E-01,   2.5656E-01,   7.4344E-01,  I]
- [  2.5656E-01,   7.4447E-01,   2.5553E-01,  I]
- [  7.4447E-01,   2.5656E-01,   2.5553E-01,  I]
- [ -7.6595E-03,  -7.6595E-03,   7.6595E-03, Zr]
cartesian_forces: # hartree/bohr
- [ -2.04358863E-22,   1.48163815E-22,   6.00276917E-06, ]
- [ -2.04358863E-22,   1.48163815E-22,   6.00276917E-06, ]
- [ -1.60830767E-23,  -4.01119714E-23,  -8.23607249E-06, ]
- [ -8.86437023E-23,   3.24486541E-23,   5.32817658E-06, ]
- [  5.24989285E-06,   6.05098665E-17,  -1.58743995E-06, ]
- [  6.05097451E-17,   5.24989285E-06,  -1.58743995E-06, ]
- [ -6.05099227E-17,  -5.24989285E-06,  -1.58743995E-06, ]
- [ -5.24989285E-06,  -6.05106484E-17,  -1.58743995E-06, ]
- [ -1.36580060E-22,   8.03850120E-23,  -2.74788263E-06, ]
force_length_stats: {min:   2.74788263E-06, max:   8.23607249E-06, mean:   5.58402818E-06, }
...

 Integrated electronic density in atomic spheres:
 ------------------------------------------------
 Atom  Sphere_radius  Integrated_density
    1        2.20660          5.35871552
    2        2.20660          5.35871552
    3        2.30022          4.03949211
    4        2.20000          4.93463860
    5        2.30022          4.03526979
    6        2.30022          4.03526979
    7        2.30022          4.03526979
    8        2.30022          4.03526979
    9        2.21000          8.86626180

 PAW TEST:
 ==== Compensation charge inside spheres ============
 The following values must be close to each other ...
 Compensation charge over spherical meshes =     -5.154395856522524
 Compensation charge over fine fft grid    =     -5.154406416813537

 ==== Results concerning PAW augmentation regions ====

 Total pseudopotential strength Dij (hartree):
 Atom #  1
   0.43456  -0.14393   0.00000   0.00000   0.00000   0.00000  -0.00000   0.00000  -0.00000   0.00000   0.00000   0.00000 ...
  -0.14393   0.04333   0.00000  -0.00000   0.00000   0.00000   0.00000   0.00000   0.00000   0.00000  -0.00000   0.00000 ...
   0.00000   0.00000  -0.09285   0.00000  -0.00000  -0.16701   0.00000   0.00000   0.00000   0.00000   0.00000  -0.00000 ...
   0.00000  -0.00000   0.00000  -0.09286   0.00000   0.00000  -0.16701   0.00000  -0.00000   0.00000   0.00000   0.00000 ...
   0.00000   0.00000  -0.00000   0.00000  -0.09285   0.00000   0.00000  -0.16701   0.00000  -0.00000   0.00000   0.00000 ...
   0.00000   0.00000  -0.16701   0.00000   0.00000   0.40233   0.00000  -0.00001   0.00000  -0.00000   0.00000  -0.00000 ...
  -0.00000   0.00000   0.00000  -0.16701   0.00000   0.00000   0.40233   0.00000  -0.00000   0.00000  -0.00000   0.00000 ...
   0.00000   0.00000   0.00000   0.00000  -0.16701  -0.00001   0.00000   0.40233   0.00000  -0.00000   0.00000  -0.00000 ...
  -0.00000   0.00000   0.00000  -0.00000   0.00000   0.00000  -0.00000   0.00000   0.00533   0.00000   0.00000   0.00000 ...
   0.00000   0.00000   0.00000   0.00000  -0.00000  -0.00000   0.00000  -0.00000   0.00000   0.00533   0.00000  -0.00000 ...
   0.00000  -0.00000   0.00000   0.00000   0.00000   0.00000  -0.00000   0.00000   0.00000   0.00000   0.00533   0.00000 ...
   0.00000   0.00000  -0.00000   0.00000   0.00000  -0.00000   0.00000  -0.00000   0.00000  -0.00000   0.00000   0.00533 ...
   ...  only 12  components have been written...
 Atom #  9
   3.07467  -0.89550   0.00000   0.00003   0.00000   0.00000  -0.00000   0.00000   0.00000   0.00000   0.00003   0.00000 ...
  -0.89550   0.26760   0.00000  -0.00001   0.00000   0.00000   0.00000   0.00000   0.00000   0.00000  -0.00000   0.00000 ...
   0.00000   0.00000   0.26871   0.00000   0.00000  -0.05467   0.00000   0.00000   0.00000  -0.00006   0.00000   0.00000 ...
   0.00003  -0.00001   0.00000   0.26876   0.00000   0.00000  -0.05468   0.00000   0.00000   0.00000  -0.00007   0.00000 ...
   0.00000   0.00000   0.00000   0.00000   0.26871   0.00000   0.00000  -0.05467   0.00000   0.00000   0.00000  -0.00006 ...
   0.00000   0.00000  -0.05467   0.00000   0.00000   0.01500   0.00000   0.00000   0.00000   0.00001   0.00000   0.00000 ...
  -0.00000   0.00000   0.00000  -0.05468   0.00000   0.00000   0.01500   0.00000   0.00000   0.00000   0.00001   0.00000 ...
   0.00000   0.00000   0.00000   0.00000  -0.05467   0.00000   0.00000   0.01500   0.00000   0.00000   0.00000   0.00001 ...
   0.00000   0.00000   0.00000   0.00000   0.00000   0.00000   0.00000   0.00000  -0.01421   0.00000   0.00000   0.00000 ...
   0.00000   0.00000  -0.00006   0.00000   0.00000   0.00001   0.00000   0.00000   0.00000  -0.01419   0.00000   0.00000 ...
   0.00003  -0.00000   0.00000  -0.00007   0.00000   0.00000   0.00001   0.00000   0.00000   0.00000  -0.01412   0.00000 ...
   0.00000   0.00000   0.00000   0.00000  -0.00006   0.00000   0.00000   0.00001   0.00000   0.00000   0.00000  -0.01419 ...
   ...  only 12  components have been written...


 Augmentation waves occupancies Rhoij:
 Atom #  1
   1.99838  -0.01297   0.00000   0.00002   0.00000   0.00000   0.00001   0.00000  -0.00215   0.00000  -0.00059   0.00000 ...
  -0.01297   0.20997   0.00000   0.00067   0.00000   0.00000  -0.00003   0.00000   0.01370   0.00000   0.01265   0.00000 ...
   0.00000   0.00000   2.00657   0.00000   0.00111  -0.00482   0.00000  -0.00021   0.00000   0.00039   0.00000  -0.00201 ...
   0.00002   0.00067   0.00000   2.00715   0.00000   0.00000  -0.00496   0.00000  -0.00187   0.00000   0.00035   0.00000 ...
   0.00000   0.00000   0.00111   0.00000   2.00657  -0.00021   0.00000  -0.00482   0.00000  -0.00201   0.00000   0.00039 ...
   0.00000   0.00000  -0.00482   0.00000  -0.00021   0.00015   0.00000   0.00001   0.00000  -0.00001   0.00000   0.00009 ...
   0.00001  -0.00003   0.00000  -0.00496   0.00000   0.00000   0.00017   0.00000   0.00008   0.00000  -0.00002   0.00000 ...
   0.00000   0.00000  -0.00021   0.00000  -0.00482   0.00001   0.00000   0.00015   0.00000   0.00009   0.00000  -0.00001 ...
  -0.00215   0.01370   0.00000  -0.00187   0.00000   0.00000   0.00008   0.00000   0.06148   0.00000  -0.01293   0.00000 ...
   0.00000   0.00000   0.00039   0.00000  -0.00201  -0.00001   0.00000   0.00009   0.00000   0.08572   0.00000   0.00002 ...
  -0.00059   0.01265   0.00000   0.00035   0.00000   0.00000  -0.00002   0.00000  -0.01293   0.00000   0.04614   0.00000 ...
   0.00000   0.00000  -0.00201   0.00000   0.00039   0.00009   0.00000  -0.00001   0.00000   0.00002   0.00000   0.08572 ...
   ...  only 12  components have been written...
 Atom #  9
   1.99409  -0.05889   0.00000  -0.00056   0.00000   0.00000  -0.00234   0.00000   0.00000   0.00000  -0.00192   0.00000 ...
  -0.05889   1.06572   0.00000   0.00029   0.00000   0.00000  -0.01475   0.00000   0.00000   0.00000   0.01911   0.00000 ...
   0.00000   0.00000   1.97150   0.00000   0.00000  -0.17124   0.00000   0.00000   0.00000  -0.00364   0.00000   0.00000 ...
  -0.00056   0.00029   0.00000   1.97064   0.00000   0.00000  -0.17705   0.00000   0.00000   0.00000  -0.00125   0.00000 ...
   0.00000   0.00000   0.00000   0.00000   1.97150   0.00000   0.00000  -0.17124   0.00000   0.00000   0.00000  -0.00364 ...
   0.00000   0.00000  -0.17124   0.00000   0.00000   1.57102   0.00000   0.00000   0.00000   0.05405   0.00000   0.00000 ...
  -0.00234  -0.01475   0.00000  -0.17705   0.00000   0.00000   1.67643   0.00000   0.00000   0.00000  -0.07909   0.00000 ...
   0.00000   0.00000   0.00000   0.00000  -0.17124   0.00000   0.00000   1.57102   0.00000   0.00000   0.00000   0.05405 ...
   0.00000   0.00000   0.00000   0.00000   0.00000   0.00000   0.00000   0.00000   0.49610   0.00000   0.00000   0.00000 ...
   0.00000   0.00000  -0.00364   0.00000   0.00000   0.05405   0.00000   0.00000   0.00000   0.50962   0.00000   0.00000 ...
  -0.00192   0.01911   0.00000  -0.00125   0.00000   0.00000  -0.07909   0.00000   0.00000   0.00000   1.45431   0.00000 ...
   0.00000   0.00000   0.00000   0.00000  -0.00364   0.00000   0.00000   0.05405   0.00000   0.00000   0.00000   0.50962 ...
   ...  only 12  components have been written...


================================================================================

 ----iterations are completed or convergence reached----

 Mean square residual over all n,k,spin=   24.072E-08; max=  11.305E-05
 reduced coordinates (array xred) for    9 atoms
       0.249542654640      0.249542654640      0.250457345360
       0.749542654640      0.749542654640      0.750457345360
       0.254304436920      0.254304436920      0.745695563080
       0.752211981500      0.752211981500      0.247788018500
       0.256559135500      0.744469746100      0.743440864500
       0.744469746100      0.256559135500      0.743440864500
       0.256559135500      0.744469746100      0.255530253900
       0.744469746100      0.256559135500      0.255530253900
      -0.007659490903     -0.007659490903      0.007659490903
 rms dE/dt=  4.8816E-05; max dE/dt=  7.4379E-05; dE/dt below (all hartree)
    1      -0.000070865978     -0.000070865978      0.000000000000
    2      -0.000070865978     -0.000070865978      0.000000000000
    3       0.000074378924      0.000074378924      0.000000000000
    4      -0.000063984721     -0.000063984721      0.000000000000
    5       0.000006558802     -0.000048189730     -0.000054748532
    6      -0.000048189730      0.000006558802     -0.000054748532
    7       0.000061307333      0.000006558802      0.000054748532
    8       0.000006558802      0.000061307333      0.000054748532
    9       0.000018396028      0.000018396028      0.000000000000

 cartesian coordinates (angstrom) at end:
    1      2.75926347019745     2.75926347019745     2.69402832070910
    2      8.27779041059248     8.27779041059248     8.09195983785917
    3      5.51852694036377     5.51852694036377     2.74543587000314
    4      5.51852694042711     5.51852694042711     8.12077752503351
    5      8.21107478949578     5.51852694036405     5.40348534956612
    6      5.51852694036405     8.21107478949578     5.40348534956613
    7      5.51852694042612     2.82597909129440     5.40348534956612
    8      2.82597909129440     5.51852694042612     5.40348534956612
    9     -0.00000000000097    -0.00000000000097    -0.08269081470018

 cartesian forces (hartree/bohr) at end:
    1     -0.00000000000000     0.00000000000000     0.00000600276917
    2     -0.00000000000000     0.00000000000000     0.00000600276917
    3     -0.00000000000000    -0.00000000000000    -0.00000823607249
    4     -0.00000000000000     0.00000000000000     0.00000532817658
    5      0.00000524989285     0.00000000000000    -0.00000158743995
    6      0.00000000000000     0.00000524989285    -0.00000158743995
    7     -0.00000000000000    -0.00000524989285    -0.00000158743995
    8     -0.00000524989285    -0.00000000000000    -0.00000158743995
    9     -0.00000000000000     0.00000000000000    -0.00000274788263
 frms,max,avg= 3.3119595E-06 8.2360725E-06   0.000E+00  0.000E+00  9.445E-07 h/b

 cartesian forces (eV/Angstrom) at end:
    1     -0.00000000000000     0.00000000000000     0.00030867477549
    2     -0.00000000000000     0.00000000000000     0.00030867477549
    3     -0.00000000000000    -0.00000000000000    -0.00042351583984
    4     -0.00000000000000     0.00000000000000     0.00027398583286
    5      0.00026996032191     0.00000000000000    -0.00008162943741
    6      0.00000000000000     0.00026996032191    -0.00008162943741
    7     -0.00000000000000    -0.00026996032191    -0.00008162943740
    8     -0.00026996032191    -0.00000000000000    -0.00008162943740
    9     -0.00000000000000     0.00000000000000    -0.00014130179439
 frms,max,avg= 1.7030779E-04 4.2351584E-04   0.000E+00  0.000E+00  4.857E-05 e/A
 length scales= 14.587878460000 14.587878460000 14.748132604000 bohr
              =  7.719572802713  7.719572802713  7.804375643300 angstroms
 prteigrs : about to open file Cs2TiI6o_DS1_EIG
 Fermi (or HOMO) energy (hartree) =  -0.06372   Average Vxc (hartree)=  -0.32250
 Eigenvalues (hartree) for nkpt= 163  k points:
 kpt#   1, nband= 42, wtk=  0.00058, kpt=  0.0000  0.0000  0.0000 (reduced coord)
  -1.88283   -1.07508   -1.07445   -1.07445   -0.81838   -0.81794   -0.58884   -0.51487
  -0.49254   -0.49254   -0.48587   -0.48474   -0.34371   -0.34202   -0.34202   -0.33801
  -0.33784   -0.33784   -0.22985   -0.17558   -0.17473   -0.17473   -0.17043   -0.17043
  -0.16526   -0.15276   -0.14105   -0.11560   -0.11560   -0.10540   -0.08029   -0.08029
  -0.07688   -0.06591   -0.06372   -0.06372   -0.01139   -0.00704   -0.00704    0.07894
   0.08473    0.08888
 prteigrs : prtvol=0 or 1, do not print more k-points.


--- !EnergyTerms
iteration_state     : {dtset: 1, }
comment             : Components of total free energy in Hartree
kinetic             :  4.50108191110023E+01
hartree             :  2.92379193566719E+01
xc                  : -5.89041896499534E+01
Ewald energy        : -1.28110468404839E+02
psp_core            :  1.84020060522548E+01
local_psp           : -8.94484698455254E+01
spherical_terms     :  2.30615970766024E+01
total_energy        : -1.60750786303786E+02
total_energy_eV     : -4.37425135190916E+03
...


--- !EnergyTermsDC
iteration_state     : {dtset: 1, }
comment             : '"Double-counting" decomposition of free energy'
band_energy         : -2.85874450661583E+01
Ewald energy        : -1.28110468404839E+02
psp_core            :  1.84020060522548E+01
xc_dc               : -4.66286769054509E+01
spherical_terms     :  2.41738100392790E+01
total_energy_dc     : -1.60750774284914E+02
total_energy_dc_eV  : -4.37425102485902E+03
...


 Cartesian components of stress tensor (hartree/bohr^3)
  sigma(1 1)= -1.40501798E-04  sigma(3 2)= -9.60781681E-14
  sigma(2 2)= -1.40501798E-04  sigma(3 1)= -9.60779495E-14
  sigma(3 3)= -1.40462872E-04  sigma(2 1)=  1.87952713E-13

-Cartesian components of stress tensor (GPa)         [Pressure=  4.1333E+00 GPa]
- sigma(1 1)= -4.13370491E+00  sigma(3 2)= -2.82671682E-09
- sigma(2 2)= -4.13370491E+00  sigma(3 1)= -2.82671039E-09
- sigma(3 3)= -4.13255968E+00  sigma(2 1)=  5.52975880E-09

================================================================================
== DATASET  2 ==================================================================
-   mpi_nproc: 6, omp_nthreads: -1 (-1 if OMP is not activated)


--- !DatasetInfo
iteration_state: {dtset: 2, }
dimensions: {natom: 9, nkpt: 163, mband: 42, nsppol: 1, nspinor: 1, nspden: 1, mpw: 6806, }
cutoff_energies: {ecut:  16.0, pawecutdg:  40.0, }
electrons: {nelect:   7.20000000E+01, charge:   0.00000000E+00, occopt:   1.00000000E+00, tsmear:   1.00000000E-02, }
meta: {optdriver: 0, ionmov: 0, optcell: 0, iscf: 17, paral_kgb: 0, }
...

 Real(R)+Recip(G) space primitive vectors, cartesian coordinates (Bohr,Bohr^-1):
 R(1)=  0.0000000 10.4182462 10.1900482  G(1)= -0.0479927  0.0479927  0.0490675
 R(2)= 10.4182462  0.0000000 10.1900482  G(2)=  0.0479927 -0.0479927  0.0490675
 R(3)= 10.4182462 10.4182462  0.0000000  G(3)=  0.0479927  0.0479927 -0.0490675
 Unit cell volume ucvol=  2.2120527E+03 bohr^3
 Angles (23,13,12)=  5.96350811E+01  5.96350811E+01  6.07298378E+01 degrees

 Coarse grid specifications (used for wave-functions):

 getcut: wavevector=  0.0000  0.0000  0.0000  ngfft=  54  54  54
         ecut(hartree)=     16.000   => boxcut(ratio)=   2.03617

 Fine grid specifications (used for densities):

 getcut: wavevector=  0.0000  0.0000  0.0000  ngfft=  90  90  90
         ecut(hartree)=     40.000   => boxcut(ratio)=   2.14582

--- Pseudopotential description ------------------------------------------------
- pspini: atom type   1  psp file is ../../../Psps_for_tests/ATOMICDATA/Cs.GGA_PBE-JTH.xml
- pspatm: opening atomic psp file    ../../../Psps_for_tests/ATOMICDATA/Cs.GGA_PBE-JTH.xml
- pspatm : Reading pseudopotential header in XML form from ../../../Psps_for_tests/ATOMICDATA/Cs.GGA_PBE-JTH.xml
 Pseudopotential format is: paw10
 basis_size (lnmax)=  6 (lmn_size= 18), orbitals=   0   0   1   1   2   2
 Spheres core radius: rc_sph= 2.20660278
 1 radial meshes are used:
  - mesh 1: r(i)=AA*[exp(BB*(i-1))-1], size=1500 , AA= 0.15922E-03 BB= 0.87573E-02
 Shapefunction is SIN type: shapef(r)=[sin(pi*r/rshp)/(pi*r/rshp)]**2
 Radius for shape functions =  2.00394208
 mmax= 1500
 Radial grid used for partial waves is grid 1
 Radial grid used for projectors is grid 1
 Radial grid used for (t)core density is grid 1
 Radial grid used for Vloc is grid 1
 Radial grid used for pseudo valence density is grid 1
 Mesh size for Vloc has been set to 1341 to avoid numerical noise.
 Compensation charge density is not taken into account in XC energy/potential
 pspatm: atomic psp has been read  and splines computed

- pspini: atom type   2  psp file is ../../../Psps_for_tests/ATOMICDATA/I.GGA_PBE-JTH.xml
- pspatm: opening atomic psp file    ../../../Psps_for_tests/ATOMICDATA/I.GGA_PBE-JTH.xml
- pspatm : Reading pseudopotential header in XML form from ../../../Psps_for_tests/ATOMICDATA/I.GGA_PBE-JTH.xml
 Pseudopotential format is: paw10
 basis_size (lnmax)=  4 (lmn_size=  8), orbitals=   0   0   1   1
 Spheres core radius: rc_sph= 2.30022271
 1 radial meshes are used:
  - mesh 1: r(i)=AA*[exp(BB*(i-1))-1], size=2000 , AA= 0.12610E-03 BB= 0.66836E-02
 Shapefunction is SIN type: shapef(r)=[sin(pi*r/rshp)/(pi*r/rshp)]**2
 Radius for shape functions =  2.10879093
 mmax= 2000
 Radial grid used for partial waves is grid 1
 Radial grid used for projectors is grid 1
 Radial grid used for (t)core density is grid 1
 Radial grid used for Vloc is grid 1
 Radial grid used for pseudo valence density is grid 1
 Mesh size for Vloc has been set to 1792 to avoid numerical noise.
 Compensation charge density is not taken into account in XC energy/potential
 pspatm: atomic psp has been read  and splines computed

- pspini: atom type   3  psp file is ../../../Psps_for_tests/ATOMICDATA/Zr.GGA_PBE-JTH.xml
- pspatm: opening atomic psp file    ../../../Psps_for_tests/ATOMICDATA/Zr.GGA_PBE-JTH.xml
- pspatm : Reading pseudopotential header in XML form from ../../../Psps_for_tests/ATOMICDATA/Zr.GGA_PBE-JTH.xml
 Pseudopotential format is: paw10
 basis_size (lnmax)=  6 (lmn_size= 18), orbitals=   0   0   1   1   2   2
 Spheres core radius: rc_sph= 2.21000000
 1 radial meshes are used:
  - mesh 1: r(i)=AA*[exp(BB*(i-1))-1], size= 941 , AA= 0.35256E-03 BB= 0.14102E-01
 Shapefunction is BESSEL type: shapef(r,l)=aa(1,l)*jl(q(1,l)*r)+aa(2,l)*jl(q(2,l)*r)
 Radius for shape functions =  2.21000000
 mmax=  941
 Radial grid used for partial waves is grid 1
 Radial grid used for projectors is grid 1
 Radial grid used for (t)core density is grid 1
 Radial grid used for Vloc is grid 1
 Radial grid used for pseudo valence density is grid 1
 Mesh size for Vloc has been set to  777 to avoid numerical noise.
 Compensation charge density is not taken into account in XC energy/potential
 pspatm: atomic psp has been read  and splines computed

- pspini: atom type   4  psp file is ../../../Psps_for_tests/ATOMICDATA/Br.GGA_PBE-JTH.xml
- pspatm: opening atomic psp file    ../../../Psps_for_tests/ATOMICDATA/Br.GGA_PBE-JTH.xml
- pspatm : Reading pseudopotential header in XML form from ../../../Psps_for_tests/ATOMICDATA/Br.GGA_PBE-JTH.xml
 Pseudopotential format is: paw10
 basis_size (lnmax)=  4 (lmn_size=  8), orbitals=   0   0   1   1
 Spheres core radius: rc_sph= 2.20000000
 1 radial meshes are used:
  - mesh 1: r(i)=AA*[exp(BB*(i-1))-1], size= 927 , AA= 0.40483E-03 BB= 0.14169E-01
 Shapefunction is BESSEL type: shapef(r,l)=aa(1,l)*jl(q(1,l)*r)+aa(2,l)*jl(q(2,l)*r)
 Radius for shape functions =  2.02066386
 mmax=  927
 Radial grid used for partial waves is grid 1
 Radial grid used for projectors is grid 1
 Radial grid used for (t)core density is grid 1
 Radial grid used for Vloc is grid 1
 Radial grid used for pseudo valence density is grid 1
 Mesh size for Vloc has been set to  763 to avoid numerical noise.
 Compensation charge density is not taken into account in XC energy/potential
 pspatm: atomic psp has been read  and splines computed

--------------------------------------------------------------------------------

_setup2: Arith. and geom. avg. npw (full set) are    6761.903    6761.896

================================================================================

--- !BeginCycle
iteration_state: {dtset: 2, }
solver: {iscf: 17, nstep: 2500, nline: 4, wfoptalg: 10, }
tolerances: {toldfe: 1.00E-08, }
...

     iter   Etot(hartree)      deltaE(h)  residm     nres2
 ETOT  1  -160.50903110554    -1.605E+02 2.522E-01 1.687E+01
 ETOT  2  -160.75452660691    -2.455E-01 1.444E-02 5.061E+00
 ETOT  3  -160.74952365030     5.003E-03 7.147E-03 1.035E+00
 ETOT  4  -160.75036661240    -8.430E-04 3.129E-03 1.131E-01
 ETOT  5  -160.74974415962     6.225E-04 1.044E-03 6.794E-03
 ETOT  6  -160.74980642329    -6.226E-05 1.661E-03 1.387E-03
 ETOT  7  -160.74980388053     2.543E-06 4.618E-04 4.360E-04
 ETOT  8  -160.74980451257    -6.320E-07 7.537E-04 8.117E-05
 ETOT  9  -160.74980463996    -1.274E-07 3.435E-04 4.358E-05
 ETOT 10  -160.74980457744     6.252E-08 2.512E-04 4.552E-06
 ETOT 11  -160.74980462794    -5.050E-08 3.379E-04 8.296E-06
 ETOT 12  -160.74980459533     3.261E-08 1.898E-04 8.648E-07
 ETOT 13  -160.74980459884    -3.510E-09 2.088E-04 2.665E-07
 ETOT 14  -160.74980459804     8.021E-10 1.101E-04 1.003E-08

 At SCF step   14, etot is converged : 
  for the second time, diff in etot=  8.021E-10 < toldfe=  1.000E-08

 Cartesian components of stress tensor (hartree/bohr^3)
  sigma(1 1)= -1.43717149E-04  sigma(3 2)=  1.09921133E-13
  sigma(2 2)= -1.43717149E-04  sigma(3 1)=  1.09921680E-13
  sigma(3 3)= -1.43671557E-04  sigma(2 1)= -2.15030058E-13


--- !ResultsGS
iteration_state: {dtset: 2, }
comment   : Summary of ground state results
lattice_vectors:
- [  0.0000000,  10.4182462,  10.1900482, ]
- [ 10.4182462,   0.0000000,  10.1900482, ]
- [ 10.4182462,  10.4182462,   0.0000000, ]
lattice_lengths: [  14.57316,   14.57316,   14.73363, ]
lattice_angles: [ 59.635,  59.635,  60.730, ] # degrees, (23, 13, 12)
lattice_volume:   2.2120527E+03
convergence: {deltae:  8.021E-10, res2:  1.003E-08, residm:  1.101E-04, diffor: null, }
etotal    :  -1.60749805E+02
entropy   :   0.00000000E+00
fermie    :  -6.31048778E-02
cartesian_stress_tensor: # hartree/bohr^3
- [ -1.43717149E-04,  -2.15030058E-13,   1.09921680E-13, ]
- [ -2.15030058E-13,  -1.43717149E-04,   1.09921133E-13, ]
- [  1.09921680E-13,   1.09921133E-13,  -1.43671557E-04, ]
pressure_GPa:   4.2279E+00
xred      :
- [  2.4955E-01,   2.4955E-01,   2.5045E-01, Cs]
- [  7.4955E-01,   7.4955E-01,   7.5045E-01, Cs]
- [  2.5443E-01,   2.5443E-01,   7.4557E-01,  I]
- [  7.5198E-01,   7.5198E-01,   2.4802E-01, Br]
- [  2.5673E-01,   7.4436E-01,   7.4327E-01,  I]
- [  7.4436E-01,   2.5673E-01,   7.4327E-01,  I]
- [  2.5673E-01,   7.4436E-01,   2.5564E-01,  I]
- [  7.4436E-01,   2.5673E-01,   2.5564E-01,  I]
- [ -7.7004E-03,  -7.7004E-03,   7.7004E-03, Zr]
cartesian_forces: # hartree/bohr
- [ -7.35195300E-22,   6.79133793E-22,   5.26052838E-06, ]
- [ -8.47726244E-23,   2.87111175E-23,   5.26052838E-06, ]
- [ -2.36932847E-23,  -3.23682223E-23,  -4.01438810E-06, ]
- [ -1.70246125E-22,   1.14184618E-22,   5.71486105E-06, ]
- [  5.93104637E-06,  -7.77623722E-17,  -8.13620453E-07, ]
- [ -7.77619889E-17,   5.93104637E-06,  -8.13620453E-07, ]
- [  7.77623161E-17,  -5.93104637E-06,  -8.13620453E-07, ]
- [ -5.93104637E-06,   7.77623564E-17,  -8.13620453E-07, ]
- [  3.85167871E-22,  -4.41229378E-22,  -8.96704789E-06, ]
force_length_stats: {min:   4.01438810E-06, max:   8.96704789E-06, mean:   5.90708040E-06, }
...

 Integrated electronic density in atomic spheres:
 ------------------------------------------------
 Atom  Sphere_radius  Integrated_density
    1        2.20660          5.36188113
    2        2.20660          5.36188113
    3        2.30022          4.03640603
    4        2.20000          4.93164079
    5        2.30022          4.03684290
    6        2.30022          4.03684290
    7        2.30022          4.03684290
    8        2.30022          4.03684290
    9        2.21000          8.87224171

 PAW TEST:
 ==== Compensation charge inside spheres ============
 The following values must be close to each other ...
 Compensation charge over spherical meshes =     -5.154664353781069
 Compensation charge over fine fft grid    =     -5.154676154419621

 ==== Results concerning PAW augmentation regions ====

 Total pseudopotential strength Dij (hartree):
 Atom #  1
   0.43443  -0.14389   0.00000   0.00000   0.00000   0.00000  -0.00000   0.00000  -0.00000   0.00000   0.00000   0.00000 ...
  -0.14389   0.04332   0.00000  -0.00000   0.00000   0.00000   0.00000   0.00000   0.00000   0.00000  -0.00000   0.00000 ...
   0.00000   0.00000  -0.09284   0.00000  -0.00000  -0.16703   0.00000   0.00000   0.00000   0.00000   0.00000  -0.00000 ...
   0.00000  -0.00000   0.00000  -0.09284   0.00000   0.00000  -0.16703   0.00000  -0.00000   0.00000   0.00000   0.00000 ...
   0.00000   0.00000  -0.00000   0.00000  -0.09284   0.00000   0.00000  -0.16703   0.00000  -0.00000   0.00000   0.00000 ...
   0.00000   0.00000  -0.16703   0.00000   0.00000   0.40229   0.00000  -0.00001   0.00000  -0.00000   0.00000  -0.00000 ...
[...]
                       5.4767299090E+00  2.8159663623E+00  5.3581894385E+00
                       2.8159663623E+00  5.4767299090E+00  5.3581894385E+00
                      -1.2664504763E-12 -1.2664504763E-12 -8.6567425731E-02
           xangst10    2.7356709446E+00  2.7356709446E+00  2.6696383940E+00
                       8.2070128338E+00  8.2070128338E+00  8.0139911556E+00
                       5.4713418892E+00  5.4713418892E+00  2.7309591329E+00
                       5.4713418892E+00  5.4713418892E+00  8.0158629181E+00
                       8.1280229506E+00  5.4713418892E+00  5.3528640161E+00
                       5.4713418892E+00  8.1280229506E+00  5.3528640161E+00
                       5.4713418892E+00  2.8146608278E+00  5.3528640161E+00
                       2.8146608278E+00  5.4713418892E+00  5.3528640161E+00
                       1.9684056415E-13  1.9684056415E-13 -8.7085571967E-02
            xcart1     5.2142522871E+00  5.2142522871E+00  5.0909757204E+00
                       1.5642756861E+01  1.5642756861E+01  1.5291587972E+01
                       1.0428504574E+01  1.0428504574E+01  5.1881219097E+00
                       1.0428504574E+01  1.0428504574E+01  1.5346045508E+01
                       1.5516682609E+01  1.0428504574E+01  1.0211107474E+01
                       1.0428504574E+01  1.5516682609E+01  1.0211107474E+01
                       1.0428504574E+01  5.3403265398E+00  1.0211107474E+01
                       5.3403265398E+00  1.0428504574E+01  1.0211107474E+01
                      -1.8413170990E-12 -1.8413170990E-12 -1.5626299349E-01
            xcart2     5.2091231080E+00  5.2091231080E+00  5.0858835766E+00
                       1.5627369324E+01  1.5627369324E+01  1.5275931737E+01
                       1.0418246216E+01  1.0418246216E+01  5.1853094741E+00
                       1.0418246216E+01  1.0418246216E+01  1.5325494144E+01
                       1.5498429625E+01  1.0418246216E+01  1.0201175158E+01
                       1.0418246216E+01  1.5498429625E+01  1.0201175158E+01
                       1.0418246216E+01  5.3380628076E+00  1.0201175158E+01
                       5.3380628076E+00  1.0418246216E+01  1.0201175158E+01
                       2.1036679740E-12  2.1036679740E-12 -1.5693428155E-01
            xcart3     5.2041098724E+00  5.2041098724E+00  5.0808716693E+00
                       1.5612329617E+01  1.5612329617E+01  1.5259902179E+01
                       1.0408219745E+01  1.0408219745E+01  5.1824947645E+00
                       1.0408219745E+01  1.0408219745E+01  1.5303800252E+01
                       1.5480710740E+01  1.0408219745E+01  1.0190776836E+01
                       1.0408219745E+01  1.5480710740E+01  1.0190776836E+01
                       1.0408219745E+01  5.3357287499E+00  1.0190776836E+01
                       5.3357287499E+00  1.0408219745E+01  1.0190776836E+01
                      -2.1871952953E-12 -2.1871952953E-12 -1.5793213214E-01
            xcart4     5.1991486253E+00  5.1991486253E+00  5.0758389110E+00
                       1.5597445876E+01  1.5597445876E+01  1.5243648519E+01
                       1.0398297250E+01  1.0398297250E+01  5.1794606647E+00
                       1.0398297251E+01  1.0398297251E+01  1.5281626848E+01
                       1.5463190630E+01  1.0398297250E+01  1.0180209568E+01
                       1.0398297250E+01  1.5463190630E+01  1.0180209568E+01
                       1.0398297251E+01  5.3334038715E+00  1.0180209568E+01
                       5.3334038715E+00  1.0398297251E+01  1.0180209568E+01
                      -2.5125590626E-12 -2.5125590626E-12 -1.5893634764E-01
            xcart5     5.1942493059E+00  5.1942493059E+00  5.0707276630E+00
                       1.5582747918E+01  1.5582747918E+01  1.5227074341E+01
                       1.0388498612E+01  1.0388498612E+01  5.1763449184E+00
                       1.0388498612E+01  1.0388498612E+01  1.5259304686E+01
                       1.5445906873E+01  1.0388498612E+01  1.0169248745E+01
                       1.0388498612E+01  1.5445906873E+01  1.0169248745E+01
                       1.0388498612E+01  5.3310903509E+00  1.0169248745E+01
                       5.3310903509E+00  1.0388498612E+01  1.0169248745E+01
                      -3.2899307692E-12 -3.2899307692E-12 -1.5967316014E-01
            xcart6     5.1892539096E+00  5.1892539096E+00  5.0655960351E+00
                       1.5567761729E+01  1.5567761729E+01  1.5210855676E+01
                       1.0378507819E+01  1.0378507819E+01  5.1732916972E+00
                       1.0378507819E+01  1.0378507819E+01  1.5237717041E+01
                       1.5428276912E+01  1.0378507819E+01  1.0158797250E+01
                       1.0378507819E+01  1.5428276912E+01  1.0158797250E+01
                       1.0378507819E+01  5.3287387269E+00  1.0158797250E+01
                       5.3287387269E+00  1.0378507819E+01  1.0158797250E+01
                      -4.1473758263E-13 -4.1473758263E-13 -1.6057232069E-01
            xcart7     5.1846743079E+00  5.1846743079E+00  5.0597572076E+00
                       1.5554022924E+01  1.5554022924E+01  1.5192304534E+01
                       1.0369348616E+01  1.0369348616E+01  5.1701829523E+00
                       1.0369348616E+01  1.0369348616E+01  1.5212868727E+01
                       1.5412427450E+01  1.0369348616E+01  1.0146682164E+01
                       1.0369348616E+01  1.5412427450E+01  1.0146682164E+01
                       1.0369348616E+01  5.3262697813E+00  1.0146682164E+01
                       5.3262697813E+00  1.0369348616E+01  1.0146682164E+01
                      -4.0775289226E-12 -4.0775289226E-12 -1.6146346416E-01
            xcart8     5.1797372978E+00  5.1797372978E+00  5.0548483913E+00
                       1.5539211893E+01  1.5539211893E+01  1.5176080945E+01
                       1.0359474596E+01  1.0359474596E+01  5.1669716341E+00
                       1.0359474596E+01  1.0359474596E+01  1.5190569209E+01
                       1.5395100308E+01  1.0359474596E+01  1.0135995111E+01
                       1.0359474596E+01  1.5395100308E+01  1.0135995111E+01
                       1.0359474596E+01  5.3238488829E+00  1.0135995111E+01
                       5.3238488829E+00  1.0359474596E+01  1.0135995111E+01
                       8.5663765791E-14  8.5663765791E-14 -1.6259019434E-01
            xcart9     5.1747598159E+00  5.1747598159E+00  5.0497574218E+00
                       1.5524279448E+01  1.5524279448E+01  1.5159833525E+01
                       1.0349519632E+01  1.0349519632E+01  5.1638551627E+00
                       1.0349519632E+01  1.0349519632E+01  1.5168709016E+01
                       1.5377634039E+01  1.0349519632E+01  1.0125510607E+01
                       1.0349519632E+01  1.5377634039E+01  1.0125510607E+01
                       1.0349519632E+01  5.3214052241E+00  1.0125510607E+01
                       5.3214052241E+00  1.0349519632E+01  1.0125510607E+01
                      -2.3932445611E-12 -2.3932445611E-12 -1.6358872666E-01
            xcart10    5.1696688750E+00  5.1696688750E+00  5.0448854385E+00
                       1.5509006625E+01  1.5509006625E+01  1.5144248516E+01
                       1.0339337750E+01  1.0339337750E+01  5.1607648412E+00
                       1.0339337750E+01  1.0339337750E+01  1.5147785634E+01
                       1.5359737378E+01  1.0339337750E+01  1.0115447017E+01
                       1.0339337750E+01  1.5359737378E+01  1.0115447017E+01
                       1.0339337750E+01  5.3189381216E+00  1.0115447017E+01
                       5.3189381216E+00  1.0339337750E+01  1.0115447017E+01
                       3.7197475808E-13  3.7197475808E-13 -1.6456788114E-01
             xred1     2.4954265464E-01  2.4954265464E-01  2.5045734536E-01
                       7.4954265464E-01  7.4954265464E-01  7.5045734536E-01
                       2.5430443692E-01  2.5430443692E-01  7.4569556308E-01
                       7.5221198150E-01  7.5221198150E-01  2.4778801850E-01
                       2.5655913550E-01  7.4446974610E-01  7.4344086450E-01
                       7.4446974610E-01  2.5655913550E-01  7.4344086450E-01
                       2.5655913550E-01  7.4446974610E-01  2.5553025390E-01
                       7.4446974610E-01  2.5655913550E-01  2.5553025390E-01
                      -7.6594909029E-03 -7.6594909029E-03  7.6594909029E-03
             xred2     2.4955149851E-01  2.4955149851E-01  2.5044850149E-01
                       7.4955149851E-01  7.4955149851E-01  7.5044850149E-01
                       2.5443007690E-01  2.5443007690E-01  7.4556992310E-01
                       7.5198340101E-01  7.5198340101E-01  2.4801659899E-01
                       2.5673414098E-01  7.4435780653E-01  7.4326585902E-01
                       7.4435780653E-01  2.5673414098E-01  7.4326585902E-01
                       2.5673414098E-01  7.4435780653E-01  2.5564219347E-01
                       7.4435780653E-01  2.5673414098E-01  2.5564219347E-01
                      -7.7003699628E-03 -7.7003699628E-03  7.7003699628E-03
             xred3     2.4957542197E-01  2.4957542197E-01  2.5042457803E-01
                       7.4957542197E-01  7.4957542197E-01  7.5042457803E-01
                       2.5456720852E-01  2.5456720852E-01  7.4543279148E-01
                       7.5173172129E-01  7.5173172129E-01  2.4826827871E-01
                       2.5689981984E-01  7.4425415317E-01  7.4310018016E-01
                       7.4425415317E-01  2.5689981984E-01  7.4310018016E-01
                       2.5689981984E-01  7.4425415317E-01  2.5574584683E-01
                       7.4425415317E-01  2.5689981984E-01  2.5574584683E-01
                      -7.7577197548E-03 -7.7577197548E-03  7.7577197548E-03
             xred4     2.4960336132E-01  2.4960336132E-01  2.5039663868E-01
                       7.4960336132E-01  7.4960336132E-01  7.5039663868E-01
                       2.5469894029E-01  2.5469894029E-01  7.4530105971E-01
                       7.5147093800E-01  7.5147093800E-01  2.4852906200E-01
                       2.5706540163E-01  7.4415412943E-01  7.4293459837E-01
                       7.4415412943E-01  2.5706540163E-01  7.4293459837E-01
                       2.5706540163E-01  7.4415412943E-01  2.5584587057E-01
                       7.4415412943E-01  2.5706540163E-01  2.5584587057E-01
                      -7.8156630467E-03 -7.8156630467E-03  7.8156630467E-03
             xred5     2.4963344712E-01  2.4963344712E-01  2.5036655288E-01
                       7.4963344712E-01  7.4963344712E-01  7.5036655288E-01
                       2.5483301635E-01  2.5483301635E-01  7.4516698365E-01
                       7.5122015667E-01  7.5122015667E-01  2.4877984333E-01
                       2.5722135267E-01  7.4404899253E-01  7.4277864733E-01
                       7.4404899253E-01  2.5722135267E-01  7.4277864733E-01
                       2.5722135267E-01  7.4404899253E-01  2.5595100747E-01
                       7.4404899253E-01  2.5722135267E-01  2.5595100747E-01
                      -7.8607576719E-03 -7.8607576719E-03  7.8607576719E-03
             xred6     2.4965334621E-01  2.4965334621E-01  2.5034665379E-01
                       7.4965334621E-01  7.4965334621E-01  7.5034665379E-01
                       2.5496103009E-01  2.5496103009E-01  7.4503896991E-01
                       7.5097718444E-01  7.5097718444E-01  2.4902281556E-01
                       2.5738707673E-01  7.4394730102E-01  7.4261292327E-01
                       7.4394730102E-01  2.5738707673E-01  7.4261292327E-01
                       2.5738707673E-01  7.4394730102E-01  2.5605269898E-01
                       7.4394730102E-01  2.5738707673E-01  2.5605269898E-01
                      -7.9136624575E-03 -7.9136624575E-03  7.9136624575E-03
             xred7     2.4967843941E-01  2.4967843941E-01  2.5032156059E-01
                       7.4967843941E-01  7.4967843941E-01  7.5032156059E-01
                       2.5512750079E-01  2.5512750079E-01  7.4487249921E-01
                       7.5069319868E-01  7.5069319868E-01  2.4930680132E-01
                       2.5752509405E-01  7.4386989943E-01  7.4247490595E-01
                       7.4386989943E-01  2.5752509405E-01  7.4247490595E-01
                       2.5752509405E-01  7.4386989943E-01  2.5613010057E-01
                       7.4386989943E-01  2.5752509405E-01  2.5613010057E-01
                      -7.9675652603E-03 -7.9675652603E-03  7.9675652603E-03
             xred8     2.4971506012E-01  2.4971506012E-01  2.5028493988E-01
                       7.4971506012E-01  7.4971506012E-01  7.5028493988E-01
                       2.5525407141E-01  2.5525407141E-01  7.4474592859E-01
                       7.5043079626E-01  7.5043079626E-01  2.4956920374E-01
                       2.5768483163E-01  7.4377374147E-01  7.4231516837E-01
                       7.4377374147E-01  2.5768483163E-01  7.4231516837E-01
                       2.5768483163E-01  7.4377374147E-01  2.5622625853E-01
                       7.4377374147E-01  2.5768483163E-01  2.5622625853E-01
                      -8.0321341042E-03 -8.0321341042E-03  8.0321341042E-03
             xred9     2.4973884322E-01  2.4973884322E-01  2.5026115678E-01
                       7.4973884322E-01  7.4973884322E-01  7.5026115678E-01
                       2.5538161681E-01  2.5538161681E-01  7.4461838319E-01
                       7.5017778606E-01  7.5017778606E-01  2.4982221394E-01
                       2.5784797087E-01  7.4367867476E-01  7.4215202913E-01
                       7.4367867476E-01  2.5784797087E-01  7.4215202913E-01
                       2.5784797087E-01  7.4367867476E-01  2.5632132524E-01
                       7.4367867476E-01  2.5784797087E-01  2.5632132524E-01
                      -8.0903805762E-03 -8.0903805762E-03  8.0903805762E-03
             xred10    2.4976255433E-01  2.4976255433E-01  2.5023744567E-01
                       7.4976255433E-01  7.4976255433E-01  7.5023744567E-01
                       2.5549952021E-01  2.5549952021E-01  7.4450047979E-01
                       7.4993767025E-01  7.4993767025E-01  2.5006232975E-01
                       2.5801479587E-01  7.4357777387E-01  7.4198520413E-01
                       7.4357777387E-01  2.5801479587E-01  7.4198520413E-01
                       2.5801479587E-01  7.4357777387E-01  2.5642222613E-01
                       7.4357777387E-01  2.5801479587E-01  2.5642222613E-01
                      -8.1474386002E-03 -8.1474386002E-03  8.1474386002E-03
            znucl       55.00000   53.00000   40.00000   35.00000

================================================================================


- Timing analysis has been suppressed with timopt=0



================================================================================

 Suggested references for the acknowledgment of ABINIT usage.

 The users of ABINIT have little formal obligations with respect to the ABINIT group
 (those specified in the GNU General Public License, http://www.gnu.org/copyleft/gpl.txt).
 However, it is common practice in the scientific literature,
 to acknowledge the efforts of people that have made the research possible.
 In this spirit, please find below suggested citations of work written by ABINIT developers,
 corresponding to implementations inside of ABINIT that you have used in the present run.
 Note also that it will be of great value to readers of publications presenting these results,
 to read papers enabling them to understand the theoretical formalism and details
 of the ABINIT implementation.
 For information on why they are suggested, see also https://docs.abinit.org/theory/acknowledgments.
-
- [1] Implementation of the Projector Augmented-Wave Method in the ABINIT code.
- M. Torrent, F. Jollet, F. Bottin, G. Zerah, and X. Gonze Comput. Mat. Science 42, 337, (2008).
- Comment: PAW calculations. Strong suggestion to cite this paper.
- DOI and bibtex: see https://docs.abinit.org/theory/bibliography/#torrent2008
-
- [2] Libxc: A library of exchange and correlation functionals for density functional theory.
- M.A.L. Marques, M.J.T. Oliveira, T. Burnus, Computer Physics Communications 183, 2227 (2012).
- Comment: to be cited when LibXC is used (negative value of ixc)
- Strong suggestion to cite this paper.
- DOI and bibtex: see https://docs.abinit.org/theory/bibliography/#marques2012
-
- [3] The Abinit project: Impact, environment and recent developments.
- Computer Phys. Comm. 248, 107042 (2020).
- X.Gonze, B. Amadon, G. Antonius, F.Arnardi, L.Baguet, J.-M.Beuken,
- J.Bieder, F.Bottin, J.Bouchet, E.Bousquet, N.Brouwer, F.Bruneval,
- G.Brunin, T.Cavignac, J.-B. Charraud, Wei Chen, M.Cote, S.Cottenier,
- J.Denier, G.Geneste, Ph.Ghosez, M.Giantomassi, Y.Gillet, O.Gingras,
- D.R.Hamann, G.Hautier, Xu He, N.Helbig, N.Holzwarth, Y.Jia, F.Jollet,
- W.Lafargue-Dit-Hauret, K.Lejaeghere, M.A.L.Marques, A.Martin, C.Martins,
- H.P.C. Miranda, F.Naccarato, K. Persson, G.Petretto, V.Planes, Y.Pouillon,
- S.Prokhorenko, F.Ricci, G.-M.Rignanese, A.H.Romero, M.M.Schmitt, M.Torrent,
- M.J.van Setten, B.Van Troeye, M.J.Verstraete, G.Zerah and J.W.Zwanzig
- Comment: the fifth generic paper describing the ABINIT project.
- Note that a version of this paper, that is not formatted for Computer Phys. Comm. 
- is available at https://www.abinit.org/sites/default/files/ABINIT20.pdf .
- The licence allows the authors to put it on the Web.
- DOI and bibtex: see https://docs.abinit.org/theory/bibliography/#gonze2020
-
- [4] ABINIT: Overview, and focus on selected capabilities
- J. Chem. Phys. 152, 124102 (2020).
- A. Romero, D.C. Allan, B. Amadon, G. Antonius, T. Applencourt, L.Baguet,
- J.Bieder, F.Bottin, J.Bouchet, E.Bousquet, F.Bruneval,
- G.Brunin, D.Caliste, M.Cote,
- J.Denier, C. Dreyer, Ph.Ghosez, M.Giantomassi, Y.Gillet, O.Gingras,
- D.R.Hamann, G.Hautier, F.Jollet, G. Jomard,
- A.Martin, 
- H.P.C. Miranda, F.Naccarato, G.Petretto, N.A. Pike, V.Planes,
- S.Prokhorenko, T. Rangel, F.Ricci, G.-M.Rignanese, M.Royo, M.Stengel, M.Torrent,
- M.J.van Setten, B.Van Troeye, M.J.Verstraete, J.Wiktor, J.W.Zwanziger, and X.Gonze.
- Comment: a global overview of ABINIT, with focus on selected capabilities .
- Note that a version of this paper, that is not formatted for J. Chem. Phys 
- is available at https://www.abinit.org/sites/default/files/ABINIT20_JPC.pdf .
- The licence allows the authors to put it on the Web.
- DOI and bibtex: see https://docs.abinit.org/theory/bibliography/#romero2020
-
- [5] Recent developments in the ABINIT software package.
- Computer Phys. Comm. 205, 106 (2016).
- X.Gonze, F.Jollet, F.Abreu Araujo, D.Adams, B.Amadon, T.Applencourt,
- C.Audouze, J.-M.Beuken, J.Bieder, A.Bokhanchuk, E.Bousquet, F.Bruneval
- D.Caliste, M.Cote, F.Dahm, F.Da Pieve, M.Delaveau, M.Di Gennaro,
- B.Dorado, C.Espejo, G.Geneste, L.Genovese, A.Gerossier, M.Giantomassi,
- Y.Gillet, D.R.Hamann, L.He, G.Jomard, J.Laflamme Janssen, S.Le Roux,
- A.Levitt, A.Lherbier, F.Liu, I.Lukacevic, A.Martin, C.Martins,
- M.J.T.Oliveira, S.Ponce, Y.Pouillon, T.Rangel, G.-M.Rignanese,
- A.H.Romero, B.Rousseau, O.Rubel, A.A.Shukri, M.Stankovski, M.Torrent,
- M.J.Van Setten, B.Van Troeye, M.J.Verstraete, D.Waroquier, J.Wiktor,
- B.Xu, A.Zhou, J.W.Zwanziger.
- Comment: the fourth generic paper describing the ABINIT project.
- Note that a version of this paper, that is not formatted for Computer Phys. Comm. 
- is available at https://www.abinit.org/sites/default/files/ABINIT16.pdf .
- The licence allows the authors to put it on the Web.
- DOI and bibtex: see https://docs.abinit.org/theory/bibliography/#gonze2016
-
- Proc.   0 individual time (sec): cpu=       7310.1  wall=       7310.3

================================================================================

 Calculation completed.
.Delivered   0 WARNINGs and   0 COMMENTs to log file.
+Overall time at end (sec) : cpu=      43860.6  wall=      43861.6
