
.Version 9.2.2 of ABINIT 
.(MPI version, prepared for a x86_64_linux_gnu9.3 computer) 

.Copyright (C) 1998-2020 ABINIT group . 
 ABINIT comes with ABSOLUTELY NO WARRANTY.
 It is free software, and you are welcome to redistribute it
 under certain conditions (GNU General Public License,
 see ~abinit/COPYING or http://www.gnu.org/copyleft/gpl.txt).

 ABINIT is a project of the Universite Catholique de Louvain,
 Corning Inc. and other collaborators, see ~abinit/doc/developers/contributors.txt .
 Please read https://docs.abinit.org/theory/acknowledgments for suggested
 acknowledgments of the ABINIT effort.
 For more information, see https://www.abinit.org .

.Starting date : Sun 27 Nov 2022.
- ( at 10h05 )
  
- input  file    -> Cs2TiI6.in
- output file    -> Cs2TiI6.out
- root for input  files -> Cs2TiI6i
- root for output files -> Cs2TiI6o

- inpspheads : Reading pseudopotential header in XML form from 
-   ../../../Psps_for_tests/ATOMICDATA/Cs.GGA_PBE-JTH.xml
- inpspheads : Reading pseudopotential header in XML form from 
-   ../../../Psps_for_tests/ATOMICDATA/Br.GGA_PBE-JTH.xml
- inpspheads : Reading pseudopotential header in XML form from 
-   ../../../Psps_for_tests/ATOMICDATA/Zr.GGA_PBE-JTH.xml

 DATASET    1 : space group Fm -3 m (#225); Bravais cF (face-center cubic)
================================================================================
 Values of the parameters that define the memory need for DATASET  1.
     intxc =       0    ionmov =       2      iscf =      17    lmnmax =      18
     lnmax =       6     mgfft =      60  mpssoang =       3    mqgrid =    3691
     natom =       9  nloc_mem =       2    nspden =       1   nspinor =       1
    nsppol =       1      nsym =      48    n1xccc =       1    ntypat =       3
    occopt =       1   xclevel =       2
-    mband =          42        mffmem =           1         mkmem =           2
       mpw =        8656          nfft =      216000          nkpt =          10
Pmy_natom=         2
 PAW method is used; the additional fine FFT grid is defined by:
   mgfftf=        96    nfftf =    884736
================================================================================
P This job should need less than                     279.967 Mbytes of memory.
  Rough estimation (10% accuracy) of disk space for files :
_ WF disk file :     55.476 Mbytes ; DEN or POT disk file :      6.752 Mbytes.
================================================================================


 DATASET    2 : space group Fm -3 m (#225); Bravais cF (face-center cubic)
================================================================================
 Values of the parameters that define the memory need for DATASET  2.
     intxc =       0    ionmov =       2      iscf =      17    lmnmax =      18
     lnmax =       6     mgfft =      60  mpssoang =       3    mqgrid =    3689
     natom =       9  nloc_mem =       2    nspden =       1   nspinor =       1
    nsppol =       1      nsym =      48    n1xccc =       1    ntypat =       3
    occopt =       1   xclevel =       2
-    mband =          42        mffmem =           1         mkmem =           2
       mpw =        8644          nfft =      216000          nkpt =          10
Pmy_natom=         2
 PAW method is used; the additional fine FFT grid is defined by:
   mgfftf=        96    nfftf =    884736
================================================================================
P This job should need less than                     279.988 Mbytes of memory.
  Rough estimation (10% accuracy) of disk space for files :
_ WF disk file :     55.399 Mbytes ; DEN or POT disk file :      6.752 Mbytes.
================================================================================


 DATASET    3 : space group Fm -3 m (#225); Bravais cF (face-center cubic)
================================================================================
 Values of the parameters that define the memory need for DATASET  3.
     intxc =       0    ionmov =       2      iscf =      17    lmnmax =      18
     lnmax =       6     mgfft =      60  mpssoang =       3    mqgrid =    3687
     natom =       9  nloc_mem =       2    nspden =       1   nspinor =       1
    nsppol =       1      nsym =      48    n1xccc =       1    ntypat =       3
    occopt =       1   xclevel =       2
-    mband =          42        mffmem =           1         mkmem =           2
       mpw =        8639          nfft =      216000          nkpt =          10
Pmy_natom=         2
 PAW method is used; the additional fine FFT grid is defined by:
   mgfftf=        96    nfftf =    884736
================================================================================
P This job should need less than                     280.018 Mbytes of memory.
  Rough estimation (10% accuracy) of disk space for files :
_ WF disk file :     55.367 Mbytes ; DEN or POT disk file :      6.752 Mbytes.
================================================================================


 DATASET    4 : space group Fm -3 m (#225); Bravais cF (face-center cubic)
================================================================================
 Values of the parameters that define the memory need for DATASET  4.
     intxc =       0    ionmov =       2      iscf =      17    lmnmax =      18
     lnmax =       6     mgfft =      60  mpssoang =       3    mqgrid =    3685
     natom =       9  nloc_mem =       2    nspden =       1   nspinor =       1
    nsppol =       1      nsym =      48    n1xccc =       1    ntypat =       3
    occopt =       1   xclevel =       2
-    mband =          42        mffmem =           1         mkmem =           2
       mpw =        8619          nfft =      216000          nkpt =          10
Pmy_natom=         2
 PAW method is used; the additional fine FFT grid is defined by:
   mgfftf=        96    nfftf =    884736
================================================================================
P This job should need less than                     280.027 Mbytes of memory.
  Rough estimation (10% accuracy) of disk space for files :
_ WF disk file :     55.239 Mbytes ; DEN or POT disk file :      6.752 Mbytes.
================================================================================


 DATASET    5 : space group Fm -3 m (#225); Bravais cF (face-center cubic)
================================================================================
 Values of the parameters that define the memory need for DATASET  5.
     intxc =       0    ionmov =       2      iscf =      17    lmnmax =      18
     lnmax =       6     mgfft =      60  mpssoang =       3    mqgrid =    3683
     natom =       9  nloc_mem =       2    nspden =       1   nspinor =       1
    nsppol =       1      nsym =      48    n1xccc =       1    ntypat =       3
    occopt =       1   xclevel =       2
-    mband =          42        mffmem =           1         mkmem =           2
       mpw =        8601          nfft =      216000          nkpt =          10
Pmy_natom=         2
 PAW method is used; the additional fine FFT grid is defined by:
   mgfftf=        96    nfftf =    884736
================================================================================
P This job should need less than                     280.039 Mbytes of memory.
  Rough estimation (10% accuracy) of disk space for files :
_ WF disk file :     55.123 Mbytes ; DEN or POT disk file :      6.752 Mbytes.
================================================================================


 DATASET    6 : space group Fm -3 m (#225); Bravais cF (face-center cubic)
================================================================================
 Values of the parameters that define the memory need for DATASET  6.
     intxc =       0    ionmov =       2      iscf =      17    lmnmax =      18
     lnmax =       6     mgfft =      60  mpssoang =       3    mqgrid =    3681
     natom =       9  nloc_mem =       2    nspden =       1   nspinor =       1
    nsppol =       1      nsym =      48    n1xccc =       1    ntypat =       3
    occopt =       1   xclevel =       2
-    mband =          42        mffmem =           1         mkmem =           2
       mpw =        8593          nfft =      216000          nkpt =          10
Pmy_natom=         2
 PAW method is used; the additional fine FFT grid is defined by:
   mgfftf=        96    nfftf =    884736
================================================================================
P This job should need less than                     280.066 Mbytes of memory.
  Rough estimation (10% accuracy) of disk space for files :
_ WF disk file :     55.072 Mbytes ; DEN or POT disk file :      6.752 Mbytes.
================================================================================


 DATASET    7 : space group Fm -3 m (#225); Bravais cF (face-center cubic)
================================================================================
 Values of the parameters that define the memory need for DATASET  7.
     intxc =       0    ionmov =       2      iscf =      17    lmnmax =      18
     lnmax =       6     mgfft =      60  mpssoang =       3    mqgrid =    3679
     natom =       9  nloc_mem =       2    nspden =       1   nspinor =       1
    nsppol =       1      nsym =      48    n1xccc =       1    ntypat =       3
    occopt =       1   xclevel =       2
-    mband =          42        mffmem =           1         mkmem =           2
       mpw =        8579          nfft =      216000          nkpt =          10
Pmy_natom=         2
 PAW method is used; the additional fine FFT grid is defined by:
   mgfftf=        96    nfftf =    884736
================================================================================
P This job should need less than                     280.084 Mbytes of memory.
  Rough estimation (10% accuracy) of disk space for files :
_ WF disk file :     54.982 Mbytes ; DEN or POT disk file :      6.752 Mbytes.
================================================================================


 DATASET    8 : space group Fm -3 m (#225); Bravais cF (face-center cubic)
================================================================================
 Values of the parameters that define the memory need for DATASET  8.
     intxc =       0    ionmov =       2      iscf =      17    lmnmax =      18
     lnmax =       6     mgfft =      60  mpssoang =       3    mqgrid =    3678
     natom =       9  nloc_mem =       2    nspden =       1   nspinor =       1
    nsppol =       1      nsym =      48    n1xccc =       1    ntypat =       3
    occopt =       1   xclevel =       2
-    mband =          42        mffmem =           1         mkmem =           2
       mpw =        8579          nfft =      216000          nkpt =          10
Pmy_natom=         2
 PAW method is used; the additional fine FFT grid is defined by:
   mgfftf=        96    nfftf =    884736
================================================================================
P This job should need less than                     280.121 Mbytes of memory.
  Rough estimation (10% accuracy) of disk space for files :
_ WF disk file :     54.982 Mbytes ; DEN or POT disk file :      6.752 Mbytes.
================================================================================


 DATASET    9 : space group Fm -3 m (#225); Bravais cF (face-center cubic)
================================================================================
 Values of the parameters that define the memory need for DATASET  9.
     intxc =       0    ionmov =       2      iscf =      17    lmnmax =      18
     lnmax =       6     mgfft =      60  mpssoang =       3    mqgrid =    3676
     natom =       9  nloc_mem =       2    nspden =       1   nspinor =       1
    nsppol =       1      nsym =      48    n1xccc =       1    ntypat =       3
    occopt =       1   xclevel =       2
-    mband =          42        mffmem =           1         mkmem =           2
       mpw =        8561          nfft =      216000          nkpt =          10
Pmy_natom=         2
 PAW method is used; the additional fine FFT grid is defined by:
   mgfftf=        96    nfftf =    884736
================================================================================
P This job should need less than                     280.135 Mbytes of memory.
  Rough estimation (10% accuracy) of disk space for files :
_ WF disk file :     54.867 Mbytes ; DEN or POT disk file :      6.752 Mbytes.
================================================================================


 DATASET   10 : space group Fm -3 m (#225); Bravais cF (face-center cubic)
================================================================================
 Values of the parameters that define the memory need for DATASET 10.
     intxc =       0    ionmov =       2      iscf =      17    lmnmax =      18
     lnmax =       6     mgfft =      60  mpssoang =       3    mqgrid =    3674
     natom =       9  nloc_mem =       2    nspden =       1   nspinor =       1
    nsppol =       1      nsym =      48    n1xccc =       1    ntypat =       3
    occopt =       1   xclevel =       2
-    mband =          42        mffmem =           1         mkmem =           2
       mpw =        8558          nfft =      216000          nkpt =          10
Pmy_natom=         2
 PAW method is used; the additional fine FFT grid is defined by:
   mgfftf=        90    nfftf =    729000
================================================================================
P This job should need less than                     239.371 Mbytes of memory.
  Rough estimation (10% accuracy) of disk space for files :
_ WF disk file :     54.848 Mbytes ; DEN or POT disk file :      5.564 Mbytes.
================================================================================


 DATASET   11 : space group Fm -3 m (#225); Bravais cF (face-center cubic)
================================================================================
 Values of the parameters that define the memory need for DATASET 11.
     intxc =       0    ionmov =       2      iscf =      17    lmnmax =      18
     lnmax =       6     mgfft =      60  mpssoang =       3    mqgrid =    3672
     natom =       9  nloc_mem =       2    nspden =       1   nspinor =       1
    nsppol =       1      nsym =      48    n1xccc =       1    ntypat =       3
    occopt =       1   xclevel =       2
-    mband =          42        mffmem =           1         mkmem =           2
       mpw =        8543          nfft =      216000          nkpt =          10
Pmy_natom=         2
 PAW method is used; the additional fine FFT grid is defined by:
   mgfftf=        90    nfftf =    729000
================================================================================
P This job should need less than                     239.381 Mbytes of memory.
  Rough estimation (10% accuracy) of disk space for files :
_ WF disk file :     54.751 Mbytes ; DEN or POT disk file :      5.564 Mbytes.
================================================================================


 DATASET   12 : space group Fm -3 m (#225); Bravais cF (face-center cubic)
================================================================================
 Values of the parameters that define the memory need for DATASET 12.
     intxc =       0    ionmov =       2      iscf =      17    lmnmax =      18
     lnmax =       6     mgfft =      60  mpssoang =       3    mqgrid =    3670
     natom =       9  nloc_mem =       2    nspden =       1   nspinor =       1
    nsppol =       1      nsym =      48    n1xccc =       1    ntypat =       3
    occopt =       1   xclevel =       2
-    mband =          42        mffmem =           1         mkmem =           2
       mpw =        8522          nfft =      216000          nkpt =          10
Pmy_natom=         2
 PAW method is used; the additional fine FFT grid is defined by:
   mgfftf=        90    nfftf =    729000
================================================================================
P This job should need less than                     239.382 Mbytes of memory.
  Rough estimation (10% accuracy) of disk space for files :
_ WF disk file :     54.617 Mbytes ; DEN or POT disk file :      5.564 Mbytes.
================================================================================


 DATASET   13 : space group Fm -3 m (#225); Bravais cF (face-center cubic)
================================================================================
 Values of the parameters that define the memory need for DATASET 13.
     intxc =       0    ionmov =       2      iscf =      17    lmnmax =      18
     lnmax =       6     mgfft =      60  mpssoang =       3    mqgrid =    3668
     natom =       9  nloc_mem =       2    nspden =       1   nspinor =       1
    nsppol =       1      nsym =      48    n1xccc =       1    ntypat =       3
    occopt =       1   xclevel =       2
-    mband =          42        mffmem =           1         mkmem =           2
       mpw =        8513          nfft =      216000          nkpt =          10
Pmy_natom=         2
 PAW method is used; the additional fine FFT grid is defined by:
   mgfftf=        90    nfftf =    729000
================================================================================
P This job should need less than                     239.402 Mbytes of memory.
  Rough estimation (10% accuracy) of disk space for files :
_ WF disk file :     54.559 Mbytes ; DEN or POT disk file :      5.564 Mbytes.
================================================================================


 DATASET   14 : space group Fm -3 m (#225); Bravais cF (face-center cubic)
================================================================================
 Values of the parameters that define the memory need for DATASET 14.
     intxc =       0    ionmov =       2      iscf =      17    lmnmax =      18
     lnmax =       6     mgfft =      60  mpssoang =       3    mqgrid =    3667
     natom =       9  nloc_mem =       2    nspden =       1   nspinor =       1
    nsppol =       1      nsym =      48    n1xccc =       1    ntypat =       3
    occopt =       1   xclevel =       2
-    mband =          42        mffmem =           1         mkmem =           2
       mpw =        8492          nfft =      216000          nkpt =          10
Pmy_natom=         2
 PAW method is used; the additional fine FFT grid is defined by:
   mgfftf=        90    nfftf =    729000
================================================================================
P This job should need less than                     239.403 Mbytes of memory.
  Rough estimation (10% accuracy) of disk space for files :
_ WF disk file :     54.425 Mbytes ; DEN or POT disk file :      5.564 Mbytes.
================================================================================


 DATASET   15 : space group Fm -3 m (#225); Bravais cF (face-center cubic)
================================================================================
 Values of the parameters that define the memory need for DATASET 15.
     intxc =       0    ionmov =       2      iscf =      17    lmnmax =      18
     lnmax =       6     mgfft =      60  mpssoang =       3    mqgrid =    3665
     natom =       9  nloc_mem =       2    nspden =       1   nspinor =       1
    nsppol =       1      nsym =      48    n1xccc =       1    ntypat =       3
    occopt =       1   xclevel =       2
-    mband =          42        mffmem =           1         mkmem =           2
       mpw =        8477          nfft =      216000          nkpt =          10
Pmy_natom=         2
 PAW method is used; the additional fine FFT grid is defined by:
   mgfftf=        90    nfftf =    729000
================================================================================
P This job should need less than                     239.413 Mbytes of memory.
  Rough estimation (10% accuracy) of disk space for files :
_ WF disk file :     54.328 Mbytes ; DEN or POT disk file :      5.564 Mbytes.
================================================================================


 DATASET   16 : space group Fm -3 m (#225); Bravais cF (face-center cubic)
================================================================================
 Values of the parameters that define the memory need for DATASET 16.
     intxc =       0    ionmov =       2      iscf =      17    lmnmax =      18
     lnmax =       6     mgfft =      60  mpssoang =       3    mqgrid =    3663
     natom =       9  nloc_mem =       2    nspden =       1   nspinor =       1
    nsppol =       1      nsym =      48    n1xccc =       1    ntypat =       3
    occopt =       1   xclevel =       2
-    mband =          42        mffmem =           1         mkmem =           2
       mpw =        8471          nfft =      216000          nkpt =          10
Pmy_natom=         2
 PAW method is used; the additional fine FFT grid is defined by:
   mgfftf=        90    nfftf =    729000
================================================================================
P This job should need less than                     239.437 Mbytes of memory.
  Rough estimation (10% accuracy) of disk space for files :
_ WF disk file :     54.290 Mbytes ; DEN or POT disk file :      5.564 Mbytes.
================================================================================


 DATASET   17 : space group Fm -3 m (#225); Bravais cF (face-center cubic)
================================================================================
 Values of the parameters that define the memory need for DATASET 17.
     intxc =       0    ionmov =       2      iscf =      17    lmnmax =      18
     lnmax =       6     mgfft =      60  mpssoang =       3    mqgrid =    3661
     natom =       9  nloc_mem =       2    nspden =       1   nspinor =       1
    nsppol =       1      nsym =      48    n1xccc =       1    ntypat =       3
    occopt =       1   xclevel =       2
-    mband =          42        mffmem =           1         mkmem =           2
       mpw =        8459          nfft =      216000          nkpt =          10
Pmy_natom=         2
 PAW method is used; the additional fine FFT grid is defined by:
   mgfftf=        90    nfftf =    729000
================================================================================
P This job should need less than                     239.451 Mbytes of memory.
  Rough estimation (10% accuracy) of disk space for files :
_ WF disk file :     54.213 Mbytes ; DEN or POT disk file :      5.564 Mbytes.
================================================================================


 DATASET   18 : space group Fm -3 m (#225); Bravais cF (face-center cubic)
================================================================================
 Values of the parameters that define the memory need for DATASET 18.
     intxc =       0    ionmov =       2      iscf =      17    lmnmax =      18
     lnmax =       6     mgfft =      60  mpssoang =       3    mqgrid =    3659
     natom =       9  nloc_mem =       2    nspden =       1   nspinor =       1
    nsppol =       1      nsym =      48    n1xccc =       1    ntypat =       3
    occopt =       1   xclevel =       2
-    mband =          42        mffmem =           1         mkmem =           2
       mpw =        8444          nfft =      216000          nkpt =          10
Pmy_natom=         2
 PAW method is used; the additional fine FFT grid is defined by:
   mgfftf=        90    nfftf =    729000
================================================================================
P This job should need less than                     239.462 Mbytes of memory.
  Rough estimation (10% accuracy) of disk space for files :
_ WF disk file :     54.117 Mbytes ; DEN or POT disk file :      5.564 Mbytes.
================================================================================


 DATASET   19 : space group Fm -3 m (#225); Bravais cF (face-center cubic)
================================================================================
 Values of the parameters that define the memory need for DATASET 19.
     intxc =       0    ionmov =       2      iscf =      17    lmnmax =      18
     lnmax =       6     mgfft =      60  mpssoang =       3    mqgrid =    3657
     natom =       9  nloc_mem =       2    nspden =       1   nspinor =       1
    nsppol =       1      nsym =      48    n1xccc =       1    ntypat =       3
    occopt =       1   xclevel =       2
-    mband =          42        mffmem =           1         mkmem =           2
       mpw =        8428          nfft =      216000          nkpt =          10
Pmy_natom=         2
 PAW method is used; the additional fine FFT grid is defined by:
   mgfftf=        90    nfftf =    729000
================================================================================
P This job should need less than                     239.470 Mbytes of memory.
  Rough estimation (10% accuracy) of disk space for files :
_ WF disk file :     54.014 Mbytes ; DEN or POT disk file :      5.564 Mbytes.
================================================================================


 DATASET   20 : space group Fm -3 m (#225); Bravais cF (face-center cubic)
================================================================================
 Values of the parameters that define the memory need for DATASET 20.
     intxc =       0    ionmov =       2      iscf =      17    lmnmax =      18
     lnmax =       6     mgfft =      60  mpssoang =       3    mqgrid =    3655
     natom =       9  nloc_mem =       2    nspden =       1   nspinor =       1
    nsppol =       1      nsym =      48    n1xccc =       1    ntypat =       3
    occopt =       1   xclevel =       2
-    mband =          42        mffmem =           1         mkmem =           2
       mpw =        8414          nfft =      216000          nkpt =          10
Pmy_natom=         2
 PAW method is used; the additional fine FFT grid is defined by:
   mgfftf=        90    nfftf =    729000
================================================================================
P This job should need less than                     239.483 Mbytes of memory.
  Rough estimation (10% accuracy) of disk space for files :
_ WF disk file :     53.925 Mbytes ; DEN or POT disk file :      5.564 Mbytes.
================================================================================

--------------------------------------------------------------------------------
------------- Echo of variables that govern the present computation ------------
--------------------------------------------------------------------------------
-
- outvars: echo of selected default values                                      
-   iomode0 =  0 , fftalg0 =112 , wfoptalg0 = 10
-
- outvars: echo of global parameters not present in the input file              
-  max_nthreads =    0
-
 -outvars: echo values of preprocessed input variables --------
            acell1     1.3803283181E+01  1.3803283181E+01  1.3803283181E+01 Bohr
            acell2     1.3796378087E+01  1.3796378087E+01  1.3796378087E+01 Bohr
            acell3     1.3789472993E+01  1.3789472993E+01  1.3789472993E+01 Bohr
            acell4     1.3782567898E+01  1.3782567898E+01  1.3782567898E+01 Bohr
            acell5     1.3775662804E+01  1.3775662804E+01  1.3775662804E+01 Bohr
            acell6     1.3768757710E+01  1.3768757710E+01  1.3768757710E+01 Bohr
            acell7     1.3761852616E+01  1.3761852616E+01  1.3761852616E+01 Bohr
            acell8     1.3754947522E+01  1.3754947522E+01  1.3754947522E+01 Bohr
            acell9     1.3748042428E+01  1.3748042428E+01  1.3748042428E+01 Bohr
            acell10    1.3741137334E+01  1.3741137334E+01  1.3741137334E+01 Bohr
            acell11    1.3734232239E+01  1.3734232239E+01  1.3734232239E+01 Bohr
            acell12    1.3727327145E+01  1.3727327145E+01  1.3727327145E+01 Bohr
            acell13    1.3720422051E+01  1.3720422051E+01  1.3720422051E+01 Bohr
            acell14    1.3713516957E+01  1.3713516957E+01  1.3713516957E+01 Bohr
            acell15    1.3706611863E+01  1.3706611863E+01  1.3706611863E+01 Bohr
            acell16    1.3699706769E+01  1.3699706769E+01  1.3699706769E+01 Bohr
            acell17    1.3692801675E+01  1.3692801675E+01  1.3692801675E+01 Bohr
            acell18    1.3685896581E+01  1.3685896581E+01  1.3685896581E+01 Bohr
            acell19    1.3678991486E+01  1.3678991486E+01  1.3678991486E+01 Bohr
            acell20    1.3672086392E+01  1.3672086392E+01  1.3672086392E+01 Bohr
              amu      1.32905430E+02  7.99040000E+01  9.12240000E+01
           diemac      1.20000000E+01
          dilatmx      1.15000000E+00
             ecut      1.60000000E+01 Hartree
           ecutsm      5.00000000E-01 Hartree
-          fftalg         112
          getxred1          0
          getxred2         -1
          getxred3         -1
          getxred4         -1
          getxred5         -1
          getxred6         -1
          getxred7         -1
          getxred8         -1
          getxred9         -1
          getxred10        -1
          getxred11        -1
          getxred12        -1
          getxred13        -1
          getxred14        -1
          getxred15        -1
          getxred16        -1
          getxred17        -1
          getxred18        -1
          getxred19        -1
          getxred20        -1
           ionmov           2
              ixc     -101130
           jdtset        1    2    3    4    5    6    7    8    9   10
                        11   12   13   14   15   16   17   18   19   20
              kpt     -1.25000000E-01 -2.50000000E-01  0.00000000E+00
                      -1.25000000E-01  5.00000000E-01  0.00000000E+00
                      -2.50000000E-01 -3.75000000E-01  0.00000000E+00
                      -1.25000000E-01 -3.75000000E-01  1.25000000E-01
                      -1.25000000E-01  2.50000000E-01  0.00000000E+00
                      -2.50000000E-01  3.75000000E-01  0.00000000E+00
                      -3.75000000E-01  5.00000000E-01  0.00000000E+00
                      -2.50000000E-01  5.00000000E-01  1.25000000E-01
                      -1.25000000E-01  0.00000000E+00  0.00000000E+00
                      -3.75000000E-01  0.00000000E+00  0.00000000E+00
         kptrlatt        4   -4    4     -4    4    4     -4   -4    4
          kptrlen1     7.80831611E+01
          kptrlen2     7.80441000E+01
          kptrlen3     7.80050389E+01
          kptrlen4     7.79659778E+01
          kptrlen5     7.79269167E+01
          kptrlen6     7.78878556E+01
          kptrlen7     7.78487945E+01
          kptrlen8     7.78097333E+01
          kptrlen9     7.77706722E+01
          kptrlen10    7.77316111E+01
          kptrlen11    7.76925500E+01
          kptrlen12    7.76534889E+01
          kptrlen13    7.76144278E+01
          kptrlen14    7.75753667E+01
          kptrlen15    7.75363056E+01
          kptrlen16    7.74972445E+01
          kptrlen17    7.74581833E+01
          kptrlen18    7.74191222E+01
          kptrlen19    7.73800611E+01
          kptrlen20    7.73410000E+01
P           mkmem           2
            natom           9
            nband          42
           ndtset          20
            ngfft          60      60      60
          ngfftdg1         96      96      96
          ngfftdg2         96      96      96
          ngfftdg3         96      96      96
          ngfftdg4         96      96      96
          ngfftdg5         96      96      96
          ngfftdg6         96      96      96
          ngfftdg7         96      96      96
          ngfftdg8         96      96      96
          ngfftdg9         96      96      96
          ngfftdg10        90      90      90
          ngfftdg11        90      90      90
          ngfftdg12        90      90      90
          ngfftdg13        90      90      90
          ngfftdg14        90      90      90
          ngfftdg15        90      90      90
          ngfftdg16        90      90      90
          ngfftdg17        90      90      90
          ngfftdg18        90      90      90
          ngfftdg19        90      90      90
          ngfftdg20        90      90      90
             nkpt          10
            nstep        2500
             nsym          48
            ntime        1000
           ntypat           3
              occ      2.000000  2.000000  2.000000  2.000000  2.000000  2.000000
                       2.000000  2.000000  2.000000  2.000000  2.000000  2.000000
                       2.000000  2.000000  2.000000  2.000000  2.000000  2.000000
                       2.000000  2.000000  2.000000  2.000000  2.000000  2.000000
                       2.000000  2.000000  2.000000  2.000000  2.000000  2.000000
                       2.000000  2.000000  2.000000  2.000000  2.000000  2.000000
                       0.000000  0.000000  0.000000  0.000000  0.000000  0.000000
          optcell           3
        optforces           1
        pawecutdg      4.00000000E+01 Hartree
            prtwf           0
            rprim      0.0000000000E+00  7.0710678119E-01  7.0710678119E-01
                       7.0710678119E-01  0.0000000000E+00  7.0710678119E-01
                       7.0710678119E-01  7.0710678119E-01  0.0000000000E+00
           shiftk      5.00000000E-01  5.00000000E-01  5.00000000E-01
          spgroup         225
           symrel      1  0  0   0  1  0   0  0  1      -1  0  0   0 -1  0   0  0 -1
                       0 -1  1   0 -1  0   1 -1  0       0  1 -1   0  1  0  -1  1  0
                      -1  0  0  -1  0  1  -1  1  0       1  0  0   1  0 -1   1 -1  0
                       0  1 -1   1  0 -1   0  0 -1       0 -1  1  -1  0  1   0  0  1
                      -1  0  0  -1  1  0  -1  0  1       1  0  0   1 -1  0   1  0 -1
                       0 -1  1   1 -1  0   0 -1  0       0  1 -1  -1  1  0   0  1  0
                       1  0  0   0  0  1   0  1  0      -1  0  0   0  0 -1   0 -1  0
                       0  1 -1   0  0 -1   1  0 -1       0 -1  1   0  0  1  -1  0  1
                      -1  0  1  -1  1  0  -1  0  0       1  0 -1   1 -1  0   1  0  0
                       0 -1  0   1 -1  0   0 -1  1       0  1  0  -1  1  0   0  1 -1
                       1  0 -1   0  0 -1   0  1 -1      -1  0  1   0  0  1   0 -1  1
                       0  1  0   0  0  1   1  0  0       0 -1  0   0  0 -1  -1  0  0
                       1  0 -1   0  1 -1   0  0 -1      -1  0  1   0 -1  1   0  0  1
                       0 -1  0   0 -1  1   1 -1  0       0  1  0   0  1 -1  -1  1  0
                      -1  0  1  -1  0  0  -1  1  0       1  0 -1   1  0  0   1 -1  0
                       0  1  0   1  0  0   0  0  1       0 -1  0  -1  0  0   0  0 -1
                       0  0 -1   0  1 -1   1  0 -1       0  0  1   0 -1  1  -1  0  1
                       1 -1  0   0 -1  1   0 -1  0      -1  1  0   0  1 -1   0  1  0
                       0  0  1   1  0  0   0  1  0       0  0 -1  -1  0  0   0 -1  0
                      -1  1  0  -1  0  0  -1  0  1       1 -1  0   1  0  0   1  0 -1
                       0  0  1   0  1  0   1  0  0       0  0 -1   0 -1  0  -1  0  0
                       1 -1  0   0 -1  0   0 -1  1      -1  1  0   0  1  0   0  1 -1
                       0  0 -1   1  0 -1   0  1 -1       0  0  1  -1  0  1   0 -1  1
                      -1  1  0  -1  0  1  -1  0  0       1 -1  0   1  0 -1   1  0  0
           toldff      1.00000000E-08
           tolmxf      1.00000000E-05
            typat      1  1  2  2  2  2  2  2  3
           useylm           1
              wtk        0.09375    0.09375    0.09375    0.18750    0.09375    0.09375
                         0.09375    0.18750    0.03125    0.03125
           xangst1     2.5824893274E+00  2.5824893274E+00  2.5824893274E+00
                       7.7474679823E+00  7.7474679823E+00  7.7474679823E+00
                       5.1649786549E+00  5.1649786549E+00  2.6069206575E+00
                       5.1649786549E+00  5.1649786549E+00  7.7230366522E+00
                       7.7230366522E+00  5.1649786549E+00  5.1649786549E+00
                       5.1649786549E+00  7.7230366522E+00  5.1649786549E+00
                       5.1649786549E+00  2.6069206575E+00  5.1649786549E+00
                       2.6069206575E+00  5.1649786549E+00  5.1649786549E+00
                       4.8449976502E-20  3.7727753374E-20 -5.2315744537E-20
           xangst2     2.5811974368E+00  2.5811974368E+00  2.5811974368E+00
                       7.7435923105E+00  7.7435923105E+00  7.7435923105E+00
                       5.1623948736E+00  5.1623948736E+00  2.6056165451E+00
                       5.1623948736E+00  5.1623948736E+00  7.7191732022E+00
                       7.7191732022E+00  5.1623948736E+00  5.1623948736E+00
                       5.1623948736E+00  7.7191732022E+00  5.1623948736E+00
                       5.1623948736E+00  2.6056165451E+00  5.1623948736E+00
                       2.6056165451E+00  5.1623948736E+00  5.1623948736E+00
                       4.8425739395E-20  3.7708880061E-20 -5.2289573579E-20
           xangst3     2.5799055462E+00  2.5799055462E+00  2.5799055462E+00
                       7.7397166386E+00  7.7397166386E+00  7.7397166386E+00
                       5.1598110924E+00  5.1598110924E+00  2.6043124327E+00
                       5.1598110924E+00  5.1598110924E+00  7.7153097521E+00
                       7.7153097521E+00  5.1598110924E+00  5.1598110924E+00
                       5.1598110924E+00  7.7153097521E+00  5.1598110924E+00
                       5.1598110924E+00  2.6043124327E+00  5.1598110924E+00
                       2.6043124327E+00  5.1598110924E+00  5.1598110924E+00
                       4.8401502288E-20  3.7690006747E-20 -5.2263402622E-20
           xangst4     2.5786136556E+00  2.5786136556E+00  2.5786136556E+00
                       7.7358409668E+00  7.7358409668E+00  7.7358409668E+00
                       5.1572273112E+00  5.1572273112E+00  2.6030083203E+00
                       5.1572273112E+00  5.1572273112E+00  7.7114463021E+00
                       7.7114463021E+00  5.1572273112E+00  5.1572273112E+00
                       5.1572273112E+00  7.7114463021E+00  5.1572273112E+00
                       5.1572273112E+00  2.6030083203E+00  5.1572273112E+00
                       2.6030083203E+00  5.1572273112E+00  5.1572273112E+00
                       4.8377265181E-20  3.7671133434E-20 -5.2237231664E-20
           xangst5     2.5773217650E+00  2.5773217650E+00  2.5773217650E+00
                       7.7319652950E+00  7.7319652950E+00  7.7319652950E+00
                       5.1546435300E+00  5.1546435300E+00  2.6017042080E+00
                       5.1546435300E+00  5.1546435300E+00  7.7075828520E+00
                       7.7075828520E+00  5.1546435300E+00  5.1546435300E+00
                       5.1546435300E+00  7.7075828520E+00  5.1546435300E+00
                       5.1546435300E+00  2.6017042080E+00  5.1546435300E+00
                       2.6017042080E+00  5.1546435300E+00  5.1546435300E+00
                       4.8353028075E-20  3.7652260121E-20 -5.2211060706E-20
           xangst6     2.5760298744E+00  2.5760298744E+00  2.5760298744E+00
                       7.7280896231E+00  7.7280896231E+00  7.7280896231E+00
                       5.1520597488E+00  5.1520597488E+00  2.6004000956E+00
                       5.1520597488E+00  5.1520597488E+00  7.7037194020E+00
                       7.7037194020E+00  5.1520597488E+00  5.1520597488E+00
                       5.1520597488E+00  7.7037194020E+00  5.1520597488E+00
                       5.1520597488E+00  2.6004000956E+00  5.1520597488E+00
                       2.6004000956E+00  5.1520597488E+00  5.1520597488E+00
                       4.8328790968E-20  3.7633386807E-20 -5.2184889748E-20
           xangst7     2.5747379838E+00  2.5747379838E+00  2.5747379838E+00
                       7.7242139513E+00  7.7242139513E+00  7.7242139513E+00
                       5.1494759675E+00  5.1494759675E+00  2.5990959832E+00
                       5.1494759675E+00  5.1494759675E+00  7.6998559519E+00
                       7.6998559519E+00  5.1494759675E+00  5.1494759675E+00
                       5.1494759675E+00  7.6998559519E+00  5.1494759675E+00
                       5.1494759675E+00  2.5990959832E+00  5.1494759675E+00
                       2.5990959832E+00  5.1494759675E+00  5.1494759675E+00
                       4.8304553861E-20  3.7614513494E-20 -5.2158718791E-20
           xangst8     2.5734460932E+00  2.5734460932E+00  2.5734460932E+00
                       7.7203382795E+00  7.7203382795E+00  7.7203382795E+00
                       5.1468921863E+00  5.1468921863E+00  2.5977918708E+00
                       5.1468921863E+00  5.1468921863E+00  7.6959925018E+00
                       7.6959925018E+00  5.1468921863E+00  5.1468921863E+00
                       5.1468921863E+00  7.6959925018E+00  5.1468921863E+00
                       5.1468921863E+00  2.5977918708E+00  5.1468921863E+00
                       2.5977918708E+00  5.1468921863E+00  5.1468921863E+00
                       4.8280316754E-20  3.7595640181E-20 -5.2132547833E-20
           xangst9     2.5721542026E+00  2.5721542026E+00  2.5721542026E+00
                       7.7164626077E+00  7.7164626077E+00  7.7164626077E+00
                       5.1443084051E+00  5.1443084051E+00  2.5964877584E+00
                       5.1443084051E+00  5.1443084051E+00  7.6921290518E+00
                       7.6921290518E+00  5.1443084051E+00  5.1443084051E+00
                       5.1443084051E+00  7.6921290518E+00  5.1443084051E+00
                       5.1443084051E+00  2.5964877584E+00  5.1443084051E+00
                       2.5964877584E+00  5.1443084051E+00  5.1443084051E+00
                       4.8256079647E-20  3.7576766867E-20 -5.2106376875E-20
           xangst10    2.5708623119E+00  2.5708623119E+00  2.5708623119E+00
                       7.7125869358E+00  7.7125869358E+00  7.7125869358E+00
                       5.1417246239E+00  5.1417246239E+00  2.5951836460E+00
                       5.1417246239E+00  5.1417246239E+00  7.6882656017E+00
                       7.6882656017E+00  5.1417246239E+00  5.1417246239E+00
                       5.1417246239E+00  7.6882656017E+00  5.1417246239E+00
                       5.1417246239E+00  2.5951836460E+00  5.1417246239E+00
                       2.5951836460E+00  5.1417246239E+00  5.1417246239E+00
                       4.8231842541E-20  3.7557893554E-20 -5.2080205917E-20
           xangst11    2.5695704213E+00  2.5695704213E+00  2.5695704213E+00
                       7.7087112640E+00  7.7087112640E+00  7.7087112640E+00
                       5.1391408427E+00  5.1391408427E+00  2.5938795337E+00
                       5.1391408427E+00  5.1391408427E+00  7.6844021517E+00
                       7.6844021517E+00  5.1391408427E+00  5.1391408427E+00
                       5.1391408427E+00  7.6844021517E+00  5.1391408427E+00
                       5.1391408427E+00  2.5938795337E+00  5.1391408427E+00
                       2.5938795337E+00  5.1391408427E+00  5.1391408427E+00
                       4.8207605434E-20  3.7539020240E-20 -5.2054034960E-20
           xangst12    2.5682785307E+00  2.5682785307E+00  2.5682785307E+00
                       7.7048355922E+00  7.7048355922E+00  7.7048355922E+00
                       5.1365570615E+00  5.1365570615E+00  2.5925754213E+00
                       5.1365570615E+00  5.1365570615E+00  7.6805387016E+00
                       7.6805387016E+00  5.1365570615E+00  5.1365570615E+00
                       5.1365570615E+00  7.6805387016E+00  5.1365570615E+00
                       5.1365570615E+00  2.5925754213E+00  5.1365570615E+00
                       2.5925754213E+00  5.1365570615E+00  5.1365570615E+00
                       4.8183368327E-20  3.7520146927E-20 -5.2027864002E-20
           xangst13    2.5669866401E+00  2.5669866401E+00  2.5669866401E+00
                       7.7009599204E+00  7.7009599204E+00  7.7009599204E+00
                       5.1339732802E+00  5.1339732802E+00  2.5912713089E+00
                       5.1339732802E+00  5.1339732802E+00  7.6766752516E+00
                       7.6766752516E+00  5.1339732802E+00  5.1339732802E+00
                       5.1339732802E+00  7.6766752516E+00  5.1339732802E+00
                       5.1339732802E+00  2.5912713089E+00  5.1339732802E+00
                       2.5912713089E+00  5.1339732802E+00  5.1339732802E+00
                       4.8159131220E-20  3.7501273614E-20 -5.2001693044E-20
           xangst14    2.5656947495E+00  2.5656947495E+00  2.5656947495E+00
                       7.6970842485E+00  7.6970842485E+00  7.6970842485E+00
                       5.1313894990E+00  5.1313894990E+00  2.5899671965E+00
                       5.1313894990E+00  5.1313894990E+00  7.6728118015E+00
                       7.6728118015E+00  5.1313894990E+00  5.1313894990E+00
                       5.1313894990E+00  7.6728118015E+00  5.1313894990E+00
                       5.1313894990E+00  2.5899671965E+00  5.1313894990E+00
                       2.5899671965E+00  5.1313894990E+00  5.1313894990E+00
                       4.8134894113E-20  3.7482400300E-20 -5.1975522086E-20
           xangst15    2.5644028589E+00  2.5644028589E+00  2.5644028589E+00
                       7.6932085767E+00  7.6932085767E+00  7.6932085767E+00
                       5.1288057178E+00  5.1288057178E+00  2.5886630841E+00
                       5.1288057178E+00  5.1288057178E+00  7.6689483515E+00
                       7.6689483515E+00  5.1288057178E+00  5.1288057178E+00
                       5.1288057178E+00  7.6689483515E+00  5.1288057178E+00
                       5.1288057178E+00  2.5886630841E+00  5.1288057178E+00
                       2.5886630841E+00  5.1288057178E+00  5.1288057178E+00
                       4.8110657007E-20  3.7463526987E-20 -5.1949351129E-20
           xangst16    2.5631109683E+00  2.5631109683E+00  2.5631109683E+00
                       7.6893329049E+00  7.6893329049E+00  7.6893329049E+00
                       5.1262219366E+00  5.1262219366E+00  2.5873589717E+00
                       5.1262219366E+00  5.1262219366E+00  7.6650849014E+00
                       7.6650849014E+00  5.1262219366E+00  5.1262219366E+00
                       5.1262219366E+00  7.6650849014E+00  5.1262219366E+00
                       5.1262219366E+00  2.5873589717E+00  5.1262219366E+00
                       2.5873589717E+00  5.1262219366E+00  5.1262219366E+00
                       4.8086419900E-20  3.7444653674E-20 -5.1923180171E-20
           xangst17    2.5618190777E+00  2.5618190777E+00  2.5618190777E+00
                       7.6854572330E+00  7.6854572330E+00  7.6854572330E+00
                       5.1236381554E+00  5.1236381554E+00  2.5860548593E+00
                       5.1236381554E+00  5.1236381554E+00  7.6612214514E+00
                       7.6612214514E+00  5.1236381554E+00  5.1236381554E+00
                       5.1236381554E+00  7.6612214514E+00  5.1236381554E+00
                       5.1236381554E+00  2.5860548593E+00  5.1236381554E+00
                       2.5860548593E+00  5.1236381554E+00  5.1236381554E+00
                       4.8062182793E-20  3.7425780360E-20 -5.1897009213E-20
           xangst18    2.5605271871E+00  2.5605271871E+00  2.5605271871E+00
                       7.6815815612E+00  7.6815815612E+00  7.6815815612E+00
                       5.1210543741E+00  5.1210543741E+00  2.5847507470E+00
                       5.1210543741E+00  5.1210543741E+00  7.6573580013E+00
                       7.6573580013E+00  5.1210543741E+00  5.1210543741E+00
                       5.1210543741E+00  7.6573580013E+00  5.1210543741E+00
                       5.1210543741E+00  2.5847507470E+00  5.1210543741E+00
                       2.5847507470E+00  5.1210543741E+00  5.1210543741E+00
                       4.8037945686E-20  3.7406907047E-20 -5.1870838255E-20
           xangst19    2.5592352965E+00  2.5592352965E+00  2.5592352965E+00
                       7.6777058894E+00  7.6777058894E+00  7.6777058894E+00
                       5.1184705929E+00  5.1184705929E+00  2.5834466346E+00
                       5.1184705929E+00  5.1184705929E+00  7.6534945513E+00
                       7.6534945513E+00  5.1184705929E+00  5.1184705929E+00
                       5.1184705929E+00  7.6534945513E+00  5.1184705929E+00
                       5.1184705929E+00  2.5834466346E+00  5.1184705929E+00
                       2.5834466346E+00  5.1184705929E+00  5.1184705929E+00
                       4.8013708579E-20  3.7388033734E-20 -5.1844667298E-20
           xangst20    2.5579434059E+00  2.5579434059E+00  2.5579434059E+00
                       7.6738302176E+00  7.6738302176E+00  7.6738302176E+00
                       5.1158868117E+00  5.1158868117E+00  2.5821425222E+00
                       5.1158868117E+00  5.1158868117E+00  7.6496311012E+00
                       7.6496311012E+00  5.1158868117E+00  5.1158868117E+00
                       5.1158868117E+00  7.6496311012E+00  5.1158868117E+00
                       5.1158868117E+00  2.5821425222E+00  5.1158868117E+00
                       2.5821425222E+00  5.1158868117E+00  5.1158868117E+00
                       4.7989471473E-20  3.7369160420E-20 -5.1818496340E-20
            xcart1     4.8801975699E+00  4.8801975699E+00  4.8801975699E+00
                       1.4640592710E+01  1.4640592710E+01  1.4640592710E+01
                       9.7603951399E+00  9.7603951399E+00  4.9263660928E+00
                       9.7603951399E+00  9.7603951399E+00  1.4594424187E+01
                       1.4594424187E+01  9.7603951399E+00  9.7603951399E+00
                       9.7603951399E+00  1.4594424187E+01  9.7603951399E+00
                       9.7603951399E+00  4.9263660928E+00  9.7603951399E+00
                       4.9263660928E+00  9.7603951399E+00  9.7603951399E+00
                       9.1557186733E-20  7.1295121486E-20 -9.8862429613E-20
            xcart2     4.8777562505E+00  4.8777562505E+00  4.8777562505E+00
                       1.4633268751E+01  1.4633268751E+01  1.4633268751E+01
                       9.7555125010E+00  9.7555125010E+00  4.9239016776E+00
                       9.7555125010E+00  9.7555125010E+00  1.4587123324E+01
                       1.4587123324E+01  9.7555125010E+00  9.7555125010E+00
                       9.7555125010E+00  1.4587123324E+01  9.7555125010E+00
                       9.7555125010E+00  4.9239016776E+00  9.7555125010E+00
                       4.9239016776E+00  9.7555125010E+00  9.7555125010E+00
                       9.1511385239E-20  7.1259456092E-20 -9.8812973670E-20
            xcart3     4.8753149310E+00  4.8753149310E+00  4.8753149310E+00
                       1.4625944793E+01  1.4625944793E+01  1.4625944793E+01
                       9.7506298621E+00  9.7506298621E+00  4.9214372623E+00
                       9.7506298621E+00  9.7506298621E+00  1.4579822462E+01
                       1.4579822462E+01  9.7506298621E+00  9.7506298621E+00
                       9.7506298621E+00  1.4579822462E+01  9.7506298621E+00
                       9.7506298621E+00  4.9214372623E+00  9.7506298621E+00
                       4.9214372623E+00  9.7506298621E+00  9.7506298621E+00
                       9.1465583745E-20  7.1223790699E-20 -9.8763517728E-20
            xcart4     4.8728736116E+00  4.8728736116E+00  4.8728736116E+00
                       1.4618620835E+01  1.4618620835E+01  1.4618620835E+01
                       9.7457472232E+00  9.7457472232E+00  4.9189728471E+00
                       9.7457472232E+00  9.7457472232E+00  1.4572521599E+01
                       1.4572521599E+01  9.7457472232E+00  9.7457472232E+00
                       9.7457472232E+00  1.4572521599E+01  9.7457472232E+00
                       9.7457472232E+00  4.9189728471E+00  9.7457472232E+00
                       4.9189728471E+00  9.7457472232E+00  9.7457472232E+00
                       9.1419782251E-20  7.1188125305E-20 -9.8714061785E-20
            xcart5     4.8704322922E+00  4.8704322922E+00  4.8704322922E+00
                       1.4611296876E+01  1.4611296876E+01  1.4611296876E+01
                       9.7408645843E+00  9.7408645843E+00  4.9165084318E+00
                       9.7408645843E+00  9.7408645843E+00  1.4565220737E+01
                       1.4565220737E+01  9.7408645843E+00  9.7408645843E+00
                       9.7408645843E+00  1.4565220737E+01  9.7408645843E+00
                       9.7408645843E+00  4.9165084318E+00  9.7408645843E+00
                       4.9165084318E+00  9.7408645843E+00  9.7408645843E+00
                       9.1373980757E-20  7.1152459912E-20 -9.8664605842E-20
            xcart6     4.8679909727E+00  4.8679909727E+00  4.8679909727E+00
                       1.4603972918E+01  1.4603972918E+01  1.4603972918E+01
                       9.7359819454E+00  9.7359819454E+00  4.9140440166E+00
                       9.7359819454E+00  9.7359819454E+00  1.4557919874E+01
                       1.4557919874E+01  9.7359819454E+00  9.7359819454E+00
                       9.7359819454E+00  1.4557919874E+01  9.7359819454E+00
                       9.7359819454E+00  4.9140440166E+00  9.7359819454E+00
                       4.9140440166E+00  9.7359819454E+00  9.7359819454E+00
                       9.1328179263E-20  7.1116794519E-20 -9.8615149899E-20
            xcart7     4.8655496533E+00  4.8655496533E+00  4.8655496533E+00
                       1.4596648960E+01  1.4596648960E+01  1.4596648960E+01
                       9.7310993065E+00  9.7310993065E+00  4.9115796013E+00
                       9.7310993065E+00  9.7310993065E+00  1.4550619012E+01
                       1.4550619012E+01  9.7310993065E+00  9.7310993065E+00
                       9.7310993065E+00  1.4550619012E+01  9.7310993065E+00
                       9.7310993065E+00  4.9115796013E+00  9.7310993065E+00
                       4.9115796013E+00  9.7310993065E+00  9.7310993065E+00
                       9.1282377769E-20  7.1081129125E-20 -9.8565693957E-20
            xcart8     4.8631083338E+00  4.8631083338E+00  4.8631083338E+00
                       1.4589325001E+01  1.4589325001E+01  1.4589325001E+01
                       9.7262166676E+00  9.7262166676E+00  4.9091151861E+00
                       9.7262166676E+00  9.7262166676E+00  1.4543318149E+01
                       1.4543318149E+01  9.7262166676E+00  9.7262166676E+00
                       9.7262166676E+00  1.4543318149E+01  9.7262166676E+00
                       9.7262166676E+00  4.9091151861E+00  9.7262166676E+00
                       4.9091151861E+00  9.7262166676E+00  9.7262166676E+00
                       9.1236576274E-20  7.1045463732E-20 -9.8516238014E-20
            xcart9     4.8606670144E+00  4.8606670144E+00  4.8606670144E+00
                       1.4582001043E+01  1.4582001043E+01  1.4582001043E+01
                       9.7213340288E+00  9.7213340288E+00  4.9066507708E+00
                       9.7213340288E+00  9.7213340288E+00  1.4536017287E+01
                       1.4536017287E+01  9.7213340288E+00  9.7213340288E+00
                       9.7213340288E+00  1.4536017287E+01  9.7213340288E+00
                       9.7213340288E+00  4.9066507708E+00  9.7213340288E+00
                       4.9066507708E+00  9.7213340288E+00  9.7213340288E+00
                       9.1190774780E-20  7.1009798338E-20 -9.8466782071E-20
            xcart10    4.8582256949E+00  4.8582256949E+00  4.8582256949E+00
                       1.4574677085E+01  1.4574677085E+01  1.4574677085E+01
                       9.7164513899E+00  9.7164513899E+00  4.9041863556E+00
                       9.7164513899E+00  9.7164513899E+00  1.4528716424E+01
                       1.4528716424E+01  9.7164513899E+00  9.7164513899E+00
                       9.7164513899E+00  1.4528716424E+01  9.7164513899E+00
                       9.7164513899E+00  4.9041863556E+00  9.7164513899E+00
                       4.9041863556E+00  9.7164513899E+00  9.7164513899E+00
                       9.1144973286E-20  7.0974132945E-20 -9.8417326128E-20
            xcart11    4.8557843755E+00  4.8557843755E+00  4.8557843755E+00
                       1.4567353126E+01  1.4567353126E+01  1.4567353126E+01
                       9.7115687510E+00  9.7115687510E+00  4.9017219403E+00
                       9.7115687510E+00  9.7115687510E+00  1.4521415562E+01
                       1.4521415562E+01  9.7115687510E+00  9.7115687510E+00
                       9.7115687510E+00  1.4521415562E+01  9.7115687510E+00
                       9.7115687510E+00  4.9017219403E+00  9.7115687510E+00
                       4.9017219403E+00  9.7115687510E+00  9.7115687510E+00
                       9.1099171792E-20  7.0938467551E-20 -9.8367870185E-20
            xcart12    4.8533430560E+00  4.8533430560E+00  4.8533430560E+00
                       1.4560029168E+01  1.4560029168E+01  1.4560029168E+01
                       9.7066861121E+00  9.7066861121E+00  4.8992575250E+00
                       9.7066861121E+00  9.7066861121E+00  1.4514114699E+01
                       1.4514114699E+01  9.7066861121E+00  9.7066861121E+00
                       9.7066861121E+00  1.4514114699E+01  9.7066861121E+00
                       9.7066861121E+00  4.8992575250E+00  9.7066861121E+00
                       4.8992575250E+00  9.7066861121E+00  9.7066861121E+00
                       9.1053370298E-20  7.0902802158E-20 -9.8318414243E-20
            xcart13    4.8509017366E+00  4.8509017366E+00  4.8509017366E+00
                       1.4552705210E+01  1.4552705210E+01  1.4552705210E+01
                       9.7018034732E+00  9.7018034732E+00  4.8967931098E+00
                       9.7018034732E+00  9.7018034732E+00  1.4506813837E+01
                       1.4506813837E+01  9.7018034732E+00  9.7018034732E+00
                       9.7018034732E+00  1.4506813837E+01  9.7018034732E+00
                       9.7018034732E+00  4.8967931098E+00  9.7018034732E+00
                       4.8967931098E+00  9.7018034732E+00  9.7018034732E+00
                       9.1007568804E-20  7.0867136765E-20 -9.8268958300E-20
            xcart14    4.8484604172E+00  4.8484604172E+00  4.8484604172E+00
                       1.4545381251E+01  1.4545381251E+01  1.4545381251E+01
                       9.6969208343E+00  9.6969208343E+00  4.8943286945E+00
                       9.6969208343E+00  9.6969208343E+00  1.4499512974E+01
                       1.4499512974E+01  9.6969208343E+00  9.6969208343E+00
                       9.6969208343E+00  1.4499512974E+01  9.6969208343E+00
                       9.6969208343E+00  4.8943286945E+00  9.6969208343E+00
                       4.8943286945E+00  9.6969208343E+00  9.6969208343E+00
                       9.0961767310E-20  7.0831471371E-20 -9.8219502357E-20
            xcart15    4.8460190977E+00  4.8460190977E+00  4.8460190977E+00
                       1.4538057293E+01  1.4538057293E+01  1.4538057293E+01
                       9.6920381954E+00  9.6920381954E+00  4.8918642793E+00
                       9.6920381954E+00  9.6920381954E+00  1.4492212112E+01
                       1.4492212112E+01  9.6920381954E+00  9.6920381954E+00
                       9.6920381954E+00  1.4492212112E+01  9.6920381954E+00
                       9.6920381954E+00  4.8918642793E+00  9.6920381954E+00
                       4.8918642793E+00  9.6920381954E+00  9.6920381954E+00
                       9.0915965816E-20  7.0795805978E-20 -9.8170046414E-20
            xcart16    4.8435777783E+00  4.8435777783E+00  4.8435777783E+00
                       1.4530733335E+01  1.4530733335E+01  1.4530733335E+01
                       9.6871555565E+00  9.6871555565E+00  4.8893998640E+00
                       9.6871555565E+00  9.6871555565E+00  1.4484911249E+01
                       1.4484911249E+01  9.6871555565E+00  9.6871555565E+00
                       9.6871555565E+00  1.4484911249E+01  9.6871555565E+00
                       9.6871555565E+00  4.8893998640E+00  9.6871555565E+00
                       4.8893998640E+00  9.6871555565E+00  9.6871555565E+00
                       9.0870164322E-20  7.0760140584E-20 -9.8120590472E-20
            xcart17    4.8411364588E+00  4.8411364588E+00  4.8411364588E+00
                       1.4523409376E+01  1.4523409376E+01  1.4523409376E+01
                       9.6822729176E+00  9.6822729176E+00  4.8869354488E+00
                       9.6822729176E+00  9.6822729176E+00  1.4477610387E+01
                       1.4477610387E+01  9.6822729176E+00  9.6822729176E+00
                       9.6822729176E+00  1.4477610387E+01  9.6822729176E+00
                       9.6822729176E+00  4.8869354488E+00  9.6822729176E+00
                       4.8869354488E+00  9.6822729176E+00  9.6822729176E+00
                       9.0824362827E-20  7.0724475191E-20 -9.8071134529E-20
            xcart18    4.8386951394E+00  4.8386951394E+00  4.8386951394E+00
                       1.4516085418E+01  1.4516085418E+01  1.4516085418E+01
                       9.6773902788E+00  9.6773902788E+00  4.8844710335E+00
                       9.6773902788E+00  9.6773902788E+00  1.4470309524E+01
                       1.4470309524E+01  9.6773902788E+00  9.6773902788E+00
                       9.6773902788E+00  1.4470309524E+01  9.6773902788E+00
                       9.6773902788E+00  4.8844710335E+00  9.6773902788E+00
                       4.8844710335E+00  9.6773902788E+00  9.6773902788E+00
                       9.0778561333E-20  7.0688809797E-20 -9.8021678586E-20
            xcart19    4.8362538199E+00  4.8362538199E+00  4.8362538199E+00
                       1.4508761460E+01  1.4508761460E+01  1.4508761460E+01
                       9.6725076399E+00  9.6725076399E+00  4.8820066183E+00
                       9.6725076399E+00  9.6725076399E+00  1.4463008661E+01
                       1.4463008661E+01  9.6725076399E+00  9.6725076399E+00
                       9.6725076399E+00  1.4463008661E+01  9.6725076399E+00
                       9.6725076399E+00  4.8820066183E+00  9.6725076399E+00
                       4.8820066183E+00  9.6725076399E+00  9.6725076399E+00
                       9.0732759839E-20  7.0653144404E-20 -9.7972222643E-20
            xcart20    4.8338125005E+00  4.8338125005E+00  4.8338125005E+00
                       1.4501437501E+01  1.4501437501E+01  1.4501437501E+01
                       9.6676250010E+00  9.6676250010E+00  4.8795422030E+00
                       9.6676250010E+00  9.6676250010E+00  1.4455707799E+01
                       1.4455707799E+01  9.6676250010E+00  9.6676250010E+00
                       9.6676250010E+00  1.4455707799E+01  9.6676250010E+00
                       9.6676250010E+00  4.8795422030E+00  9.6676250010E+00
                       4.8795422030E+00  9.6676250010E+00  9.6676250010E+00
                       9.0686958345E-20  7.0617479010E-20 -9.7922766700E-20
             xred      2.5000000000E-01  2.5000000000E-01  2.5000000000E-01
                       7.5000000000E-01  7.5000000000E-01  7.5000000000E-01
                       2.5236509497E-01  2.5236509497E-01  7.4763490503E-01
                       7.4763490503E-01  7.4763490503E-01  2.5236509497E-01
                       2.5236509497E-01  7.4763490503E-01  7.4763490503E-01
                       7.4763490503E-01  2.5236509497E-01  7.4763490503E-01
                       2.5236509497E-01  7.4763490503E-01  2.5236509497E-01
                       7.4763490503E-01  2.5236509497E-01  2.5236509497E-01
                      -6.1024422246E-21 -4.0264949953E-21  1.3406974517E-20
            znucl       55.00000   35.00000   40.00000

================================================================================

 chkinp: Checking input parameters for consistency, jdtset=   1.

 chkinp: Checking input parameters for consistency, jdtset=   2.

 chkinp: Checking input parameters for consistency, jdtset=   3.

 chkinp: Checking input parameters for consistency, jdtset=   4.

 chkinp: Checking input parameters for consistency, jdtset=   5.

 chkinp: Checking input parameters for consistency, jdtset=   6.

 chkinp: Checking input parameters for consistency, jdtset=   7.

 chkinp: Checking input parameters for consistency, jdtset=   8.

 chkinp: Checking input parameters for consistency, jdtset=   9.

 chkinp: Checking input parameters for consistency, jdtset=  10.

 chkinp: Checking input parameters for consistency, jdtset=  11.

 chkinp: Checking input parameters for consistency, jdtset=  12.

 chkinp: Checking input parameters for consistency, jdtset=  13.

 chkinp: Checking input parameters for consistency, jdtset=  14.

 chkinp: Checking input parameters for consistency, jdtset=  15.

 chkinp: Checking input parameters for consistency, jdtset=  16.

 chkinp: Checking input parameters for consistency, jdtset=  17.

 chkinp: Checking input parameters for consistency, jdtset=  18.

 chkinp: Checking input parameters for consistency, jdtset=  19.

 chkinp: Checking input parameters for consistency, jdtset=  20.

================================================================================
== DATASET  1 ==================================================================
-   mpi_nproc: 6, omp_nthreads: -1 (-1 if OMP is not activated)


--- !DatasetInfo
iteration_state: {dtset: 1, }
dimensions: {natom: 9, nkpt: 10, mband: 42, nsppol: 1, nspinor: 1, nspden: 1, mpw: 8656, }
cutoff_energies: {ecut:  16.0, pawecutdg:  40.0, }
electrons: {nelect:   7.20000000E+01, charge:   0.00000000E+00, occopt:   1.00000000E+00, tsmear:   1.00000000E-02, }
meta: {optdriver: 0, ionmov: 2, optcell: 3, iscf: 17, paral_kgb: 0, }
...

 Real(R)+Recip(G) space primitive vectors, cartesian coordinates (Bohr,Bohr^-1):
 R(1)=  0.0000000  9.7603951  9.7603951  G(1)= -0.0512274  0.0512274  0.0512274
 R(2)=  9.7603951  0.0000000  9.7603951  G(2)=  0.0512274 -0.0512274  0.0512274
 R(3)=  9.7603951  9.7603951  0.0000000  G(3)=  0.0512274  0.0512274 -0.0512274
 Unit cell volume ucvol=  1.8596542E+03 bohr^3
 Angles (23,13,12)=  6.00000000E+01  6.00000000E+01  6.00000000E+01 degrees

 Coarse grid specifications (used for wave-functions):

 getcut: wavevector=  0.0000  0.0000  0.0000  ngfft=  60  60  60
         ecut(hartree)=     21.160   => boxcut(ratio)=   2.09916

 Fine grid specifications (used for densities):

 getcut: wavevector=  0.0000  0.0000  0.0000  ngfft=  96  96  96
         ecut(hartree)=     52.900   => boxcut(ratio)=   2.12420

--- Pseudopotential description ------------------------------------------------
- pspini: atom type   1  psp file is ../../../Psps_for_tests/ATOMICDATA/Cs.GGA_PBE-JTH.xml
- pspatm: opening atomic psp file    ../../../Psps_for_tests/ATOMICDATA/Cs.GGA_PBE-JTH.xml
- pspatm : Reading pseudopotential header in XML form from ../../../Psps_for_tests/ATOMICDATA/Cs.GGA_PBE-JTH.xml
 Pseudopotential format is: paw10
 basis_size (lnmax)=  6 (lmn_size= 18), orbitals=   0   0   1   1   2   2
 Spheres core radius: rc_sph= 2.20660278
 1 radial meshes are used:
  - mesh 1: r(i)=AA*[exp(BB*(i-1))-1], size=1500 , AA= 0.15922E-03 BB= 0.87573E-02
 Shapefunction is SIN type: shapef(r)=[sin(pi*r/rshp)/(pi*r/rshp)]**2
 Radius for shape functions =  2.00394208
 mmax= 1500
 Radial grid used for partial waves is grid 1
 Radial grid used for projectors is grid 1
 Radial grid used for (t)core density is grid 1
 Radial grid used for Vloc is grid 1
 Radial grid used for pseudo valence density is grid 1
 Mesh size for Vloc has been set to 1341 to avoid numerical noise.
 Compensation charge density is not taken into account in XC energy/potential
 pspatm: atomic psp has been read  and splines computed

- pspini: atom type   2  psp file is ../../../Psps_for_tests/ATOMICDATA/Br.GGA_PBE-JTH.xml
- pspatm: opening atomic psp file    ../../../Psps_for_tests/ATOMICDATA/Br.GGA_PBE-JTH.xml
- pspatm : Reading pseudopotential header in XML form from ../../../Psps_for_tests/ATOMICDATA/Br.GGA_PBE-JTH.xml
 Pseudopotential format is: paw10
 basis_size (lnmax)=  4 (lmn_size=  8), orbitals=   0   0   1   1
 Spheres core radius: rc_sph= 2.20000000
 1 radial meshes are used:
  - mesh 1: r(i)=AA*[exp(BB*(i-1))-1], size= 927 , AA= 0.40483E-03 BB= 0.14169E-01
 Shapefunction is BESSEL type: shapef(r,l)=aa(1,l)*jl(q(1,l)*r)+aa(2,l)*jl(q(2,l)*r)
 Radius for shape functions =  2.02066386
 mmax=  927
 Radial grid used for partial waves is grid 1
 Radial grid used for projectors is grid 1
 Radial grid used for (t)core density is grid 1
 Radial grid used for Vloc is grid 1
 Radial grid used for pseudo valence density is grid 1
 Mesh size for Vloc has been set to  763 to avoid numerical noise.
 Compensation charge density is not taken into account in XC energy/potential
 pspatm: atomic psp has been read  and splines computed

- pspini: atom type   3  psp file is ../../../Psps_for_tests/ATOMICDATA/Zr.GGA_PBE-JTH.xml
- pspatm: opening atomic psp file    ../../../Psps_for_tests/ATOMICDATA/Zr.GGA_PBE-JTH.xml
- pspatm : Reading pseudopotential header in XML form from ../../../Psps_for_tests/ATOMICDATA/Zr.GGA_PBE-JTH.xml
 Pseudopotential format is: paw10
 basis_size (lnmax)=  6 (lmn_size= 18), orbitals=   0   0   1   1   2   2
 Spheres core radius: rc_sph= 2.21000000
 1 radial meshes are used:
  - mesh 1: r(i)=AA*[exp(BB*(i-1))-1], size= 941 , AA= 0.35256E-03 BB= 0.14102E-01
 Shapefunction is BESSEL type: shapef(r,l)=aa(1,l)*jl(q(1,l)*r)+aa(2,l)*jl(q(2,l)*r)
 Radius for shape functions =  2.21000000
 mmax=  941
 Radial grid used for partial waves is grid 1
 Radial grid used for projectors is grid 1
 Radial grid used for (t)core density is grid 1
 Radial grid used for Vloc is grid 1
 Radial grid used for pseudo valence density is grid 1
 Mesh size for Vloc has been set to  777 to avoid numerical noise.
 Compensation charge density is not taken into account in XC energy/potential
 pspatm: atomic psp has been read  and splines computed

   2.16235664E+04                                ecore*ucvol(ha*bohr**3)
--------------------------------------------------------------------------------

_setup2: Arith. and geom. avg. npw (full set) are    8644.563    8644.559

================================================================================

=== [ionmov= 2] Broyden-Fletcher-Goldfard-Shanno method (forces)            
================================================================================

--- Iteration: (   1/1000) Internal Cycle: (1/1)
--------------------------------------------------------------------------------

---SELF-CONSISTENT-FIELD CONVERGENCE--------------------------------------------

--- !BeginCycle
iteration_state: {dtset: 1, itime: 1, icycle: 1, }
solver: {iscf: 17, nstep: 2500, nline: 4, wfoptalg: 10, }
tolerances: {toldff: 1.00E-08, }
...

     iter   Etot(hartree)      deltaE(h)  residm     nres2    diffor    maxfor
 ETOT  1  -170.37388187664    -1.704E+02 2.160E-01 2.754E+01 6.241E-02 6.241E-02
 ETOT  2  -170.55272896014    -1.788E-01 9.458E-03 6.369E+00 1.416E-01 7.919E-02
 ETOT  3  -170.55031407018     2.415E-03 1.432E-03 1.394E+00 6.398E-02 1.520E-02
 ETOT  4  -170.55089978685    -5.857E-04 1.280E-03 4.985E-02 3.678E-04 1.484E-02
 ETOT  5  -170.55076532109     1.345E-04 2.989E-04 6.725E-03 1.373E-02 1.109E-03
 ETOT  6  -170.55079715383    -3.183E-05 2.500E-04 2.964E-04 6.839E-04 4.248E-04
 ETOT  7  -170.55079805551    -9.017E-07 1.200E-04 7.605E-05 5.150E-04 9.015E-05
 ETOT  8  -170.55079917828    -1.123E-06 2.344E-04 1.320E-05 2.320E-04 3.222E-04
 ETOT  9  -170.55079920454    -2.626E-08 7.358E-05 1.564E-06 1.169E-04 2.052E-04
 ETOT 10  -170.55079922039    -1.585E-08 1.119E-04 1.652E-07 3.344E-05 2.387E-04
 ETOT 11  -170.55079922150    -1.106E-09 3.614E-05 3.800E-08 7.533E-06 2.311E-04
 ETOT 12  -170.55079922184    -3.432E-10 4.942E-05 3.672E-09 2.126E-07 2.309E-04
 ETOT 13  -170.55079922188    -4.209E-11 1.711E-05 2.200E-10 1.808E-06 2.291E-04
 ETOT 14  -170.55079922187     1.054E-11 2.185E-05 1.499E-11 4.482E-07 2.296E-04
 ETOT 15  -170.55079922186     8.072E-12 8.776E-06 2.693E-12 1.272E-08 2.296E-04
 ETOT 16  -170.55079922187    -6.310E-12 1.217E-05 2.171E-13 3.225E-08 2.295E-04
 ETOT 17  -170.55079922186     1.148E-11 4.895E-06 3.374E-14 2.301E-08 2.296E-04
 ETOT 18  -170.55079922186    -4.491E-12 7.201E-06 2.226E-15 1.844E-10 2.296E-04
 ETOT 19  -170.55079922186     1.421E-12 3.948E-06 5.507E-16 2.014E-09 2.296E-04

 At SCF step   19, forces are converged : 
  for the second time, max diff in force=  2.014E-09 < toldff=  1.000E-08

 Cartesian components of stress tensor (hartree/bohr^3)
  sigma(1 1)= -1.57611396E-04  sigma(3 2)=  0.00000000E+00
  sigma(2 2)= -1.57611396E-04  sigma(3 1)=  0.00000000E+00
  sigma(3 3)= -1.57611396E-04  sigma(2 1)=  0.00000000E+00


--- !ResultsGS
iteration_state: {dtset: 1, itime: 1, icycle: 1, }
comment   : Summary of ground state results
lattice_vectors:
- [  0.0000000,   9.7603951,   9.7603951, ]
- [  9.7603951,   0.0000000,   9.7603951, ]
- [  9.7603951,   9.7603951,   0.0000000, ]
lattice_lengths: [  13.80328,   13.80328,   13.80328, ]
lattice_angles: [ 60.000,  60.000,  60.000, ] # degrees, (23, 13, 12)
lattice_volume:   1.8596542E+03
convergence: {deltae:  1.421E-12, res2:  5.507E-16, residm:  3.948E-06, diffor:  2.014E-09, }
etotal    :  -1.70550799E+02
entropy   :   0.00000000E+00
fermie    :   2.34395457E-03
cartesian_stress_tensor: # hartree/bohr^3
- [ -1.57611396E-04,   0.00000000E+00,   0.00000000E+00, ]
- [  0.00000000E+00,  -1.57611396E-04,   0.00000000E+00, ]
- [  0.00000000E+00,   0.00000000E+00,  -1.57611396E-04, ]
pressure_GPa:   4.6371E+00
xred      :
- [  2.5000E-01,   2.5000E-01,   2.5000E-01, Cs]
- [  7.5000E-01,   7.5000E-01,   7.5000E-01, Cs]
- [  2.5237E-01,   2.5237E-01,   7.4763E-01, Br]
- [  7.4763E-01,   7.4763E-01,   2.5237E-01, Br]
- [  2.5237E-01,   7.4763E-01,   7.4763E-01, Br]
- [  7.4763E-01,   2.5237E-01,   7.4763E-01, Br]
- [  2.5237E-01,   7.4763E-01,   2.5237E-01, Br]
- [  7.4763E-01,   2.5237E-01,   2.5237E-01, Br]
- [ -6.1024E-21,  -4.0265E-21,   1.3407E-20, Zr]
cartesian_forces: # hartree/bohr
- [  3.01167270E-21,  -2.43733259E-21,  -9.03501810E-21, ]
- [  3.01167270E-21,  -2.43733259E-21,  -9.03501810E-21, ]
- [  8.64357452E-21,  -7.14355281E-21,   2.29556440E-04, ]
- [ -1.99478912E-20,   1.95965497E-20,  -2.29556440E-04, ]
- [ -2.29556440E-04,   2.73172843E-21,  -1.42040791E-20, ]
- [  2.17332609E-20,  -2.29556440E-04,  -2.77566063E-20, ]
- [ -1.57099155E-20,   2.29556440E-04,   9.68657007E-21, ]
- [  2.29556440E-04,  -7.60639361E-21,  -3.86595708E-21, ]
- [  3.01167270E-21,  -2.43733259E-21,  -9.03501810E-21, ]
force_length_stats: {min:   9.83068231E-21, max:   2.29556440E-04, mean:   1.53037626E-04, }
...

 Integrated electronic density in atomic spheres:
 ------------------------------------------------
 Atom  Sphere_radius  Integrated_density
    1        2.20660          5.38335398
    2        2.20660          5.38335398
    3        2.20000          4.95405819
    4        2.20000          4.95405819
    5        2.20000          4.95405819
    6        2.20000          4.95405819
    7        2.20000          4.95405819
    8        2.20000          4.95405819
    9        2.21000          8.86544632

 PAW TEST:
 ==== Compensation charge inside spheres ============
 The following values must be close to each other ...
 Compensation charge over spherical meshes =     -4.897311747266598
 Compensation charge over fine fft grid    =     -4.897313270900437

 ==== Results concerning PAW augmentation regions ====

 Total pseudopotential strength Dij (hartree):
 Atom #  1
   0.40770  -0.13519   0.00000   0.00000   0.00000   0.00000   0.00000   0.00000   0.00000   0.00000   0.00000   0.00000 ...
  -0.13519   0.04050   0.00000   0.00000   0.00000   0.00000   0.00000   0.00000   0.00000   0.00000   0.00000   0.00000 ...
   0.00000   0.00000  -0.08956   0.00000   0.00000  -0.16899   0.00000   0.00000   0.00000   0.00000   0.00000  -0.00000 ...
   0.00000   0.00000   0.00000  -0.08956   0.00000   0.00000  -0.16899   0.00000  -0.00000   0.00000   0.00000   0.00000 ...
   0.00000   0.00000   0.00000   0.00000  -0.08956   0.00000   0.00000  -0.16899   0.00000  -0.00000   0.00000   0.00000 ...
   0.00000   0.00000  -0.16899   0.00000   0.00000   0.39421   0.00000   0.00000   0.00000   0.00000   0.00000   0.00000 ...
   0.00000   0.00000   0.00000  -0.16899   0.00000   0.00000   0.39421   0.00000   0.00000   0.00000   0.00000   0.00000 ...
   0.00000   0.00000   0.00000   0.00000  -0.16899   0.00000   0.00000   0.39421   0.00000   0.00000   0.00000   0.00000 ...
   0.00000   0.00000   0.00000  -0.00000   0.00000   0.00000   0.00000   0.00000   0.00579   0.00000   0.00000   0.00000 ...
   0.00000   0.00000   0.00000   0.00000  -0.00000   0.00000   0.00000   0.00000   0.00000   0.00579   0.00000   0.00000 ...
   0.00000   0.00000   0.00000   0.00000   0.00000   0.00000   0.00000   0.00000   0.00000   0.00000   0.00579   0.00000 ...
   0.00000   0.00000  -0.00000   0.00000   0.00000   0.00000   0.00000   0.00000   0.00000   0.00000   0.00000   0.00579 ...
   ...  only 12  components have been written...
 Atom #  9
   3.03996  -0.88470   0.00000   0.00000   0.00000   0.00000   0.00000   0.00000   0.00000   0.00000   0.00000   0.00000 ...
  -0.88470   0.26419   0.00000   0.00000   0.00000   0.00000   0.00000   0.00000   0.00000   0.00000   0.00000   0.00000 ...
   0.00000   0.00000   0.28137   0.00000   0.00000  -0.05767   0.00000   0.00000   0.00000   0.00000   0.00000   0.00000 ...
   0.00000   0.00000   0.00000   0.28137   0.00000   0.00000  -0.05767   0.00000   0.00000   0.00000   0.00000   0.00000 ...
   0.00000   0.00000   0.00000   0.00000   0.28137   0.00000   0.00000  -0.05767   0.00000   0.00000   0.00000   0.00000 ...
   0.00000   0.00000  -0.05767   0.00000   0.00000   0.01566   0.00000   0.00000   0.00000   0.00000   0.00000   0.00000 ...
   0.00000   0.00000   0.00000  -0.05767   0.00000   0.00000   0.01566   0.00000   0.00000   0.00000   0.00000   0.00000 ...
   0.00000   0.00000   0.00000   0.00000  -0.05767   0.00000   0.00000   0.01566   0.00000   0.00000   0.00000   0.00000 ...
   0.00000   0.00000   0.00000   0.00000   0.00000   0.00000   0.00000   0.00000  -0.00034   0.00000   0.00000   0.00000 ...
   0.00000   0.00000   0.00000   0.00000   0.00000   0.00000   0.00000   0.00000   0.00000  -0.00034   0.00000   0.00000 ...
   0.00000   0.00000   0.00000   0.00000   0.00000   0.00000   0.00000   0.00000   0.00000   0.00000  -0.00026   0.00000 ...
   0.00000   0.00000   0.00000   0.00000   0.00000   0.00000   0.00000   0.00000   0.00000   0.00000   0.00000  -0.00034 ...
   ...  only 12  components have been written...


 Augmentation waves occupancies Rhoij:
 Atom #  1
   1.99971  -0.01020   0.00000   0.00000   0.00000   0.00000   0.00000   0.00000   0.00000   0.00000   0.00000   0.00000 ...
  -0.01020   0.21195   0.00000   0.00000   0.00000   0.00000   0.00000   0.00000   0.00000   0.00000   0.00000   0.00000 ...
   0.00000   0.00000   2.00992   0.00000   0.00000  -0.00487   0.00000   0.00000   0.00000   0.00000   0.00000  -0.00210 ...
   0.00000   0.00000   0.00000   2.00992   0.00000   0.00000  -0.00487   0.00000  -0.00210   0.00000   0.00000   0.00000 ...
   0.00000   0.00000   0.00000   0.00000   2.00992   0.00000   0.00000  -0.00487   0.00000  -0.00210   0.00000   0.00000 ...
   0.00000   0.00000  -0.00487   0.00000   0.00000   0.00017   0.00000   0.00000   0.00000   0.00000   0.00000  -0.00002 ...
   0.00000   0.00000   0.00000  -0.00487   0.00000   0.00000   0.00017   0.00000  -0.00002   0.00000   0.00000   0.00000 ...
[...]
                       9.6725076399E+00  4.9134245439E+00  9.6725076399E+00
                       4.9134245439E+00  9.6725076399E+00  9.6725076399E+00
                       9.0732759839E-20  7.0653144404E-20 -9.7972222643E-20
            xcart20    4.8338125005E+00  4.8338125005E+00  4.8338125005E+00
                       1.4501437501E+01  1.4501437501E+01  1.4501437501E+01
                       9.6676250010E+00  9.6676250010E+00  4.9125342719E+00
                       9.6676250010E+00  9.6676250010E+00  1.4422715730E+01
                       1.4422715730E+01  9.6676250010E+00  9.6676250010E+00
                       9.6676250010E+00  1.4422715730E+01  9.6676250010E+00
                       9.6676250010E+00  4.9125342719E+00  9.6676250010E+00
                       4.9125342719E+00  9.6676250010E+00  9.6676250010E+00
                       1.2035275470E-19  5.6402313986E-20 -9.5052551237E-20
             xred1     2.5000000000E-01  2.5000000000E-01  2.5000000000E-01
                       7.5000000000E-01  7.5000000000E-01  7.5000000000E-01
                       2.5245083124E-01  2.5245083124E-01  7.4754916876E-01
                       7.4754916876E-01  7.4754916876E-01  2.5245083124E-01
                       2.5245083124E-01  7.4754916876E-01  7.4754916876E-01
                       7.4754916876E-01  2.5245083124E-01  7.4754916876E-01
                       2.5245083124E-01  7.4754916876E-01  2.5245083124E-01
                       7.4754916876E-01  2.5245083124E-01  2.5245083124E-01
                      -2.7515283419E-21 -9.0970782101E-21  1.3613299183E-20
             xred2     2.5000000000E-01  2.5000000000E-01  2.5000000000E-01
                       7.5000000000E-01  7.5000000000E-01  7.5000000000E-01
                       2.5253865295E-01  2.5253865295E-01  7.4746134705E-01
                       7.4746134705E-01  7.4746134705E-01  2.5253865295E-01
                       2.5253865295E-01  7.4746134705E-01  7.4746134705E-01
                       7.4746134705E-01  2.5253865295E-01  7.4746134705E-01
                       2.5253865295E-01  7.4746134705E-01  2.5253865295E-01
                       7.4746134705E-01  2.5253865295E-01  2.5253865295E-01
                      -1.8930389140E-21 -9.0289811601E-21  1.2245440554E-20
             xred3     2.5000000000E-01  2.5000000000E-01  2.5000000000E-01
                       7.5000000000E-01  7.5000000000E-01  7.5000000000E-01
                       2.5263190628E-01  2.5263190628E-01  7.4736809372E-01
                       7.4736809372E-01  7.4736809372E-01  2.5263190628E-01
                       2.5263190628E-01  7.4736809372E-01  7.4736809372E-01
                       7.4736809372E-01  2.5263190628E-01  7.4736809372E-01
                       2.5263190628E-01  7.4736809372E-01  2.5263190628E-01
                       7.4736809372E-01  2.5263190628E-01  2.5263190628E-01
                      -6.1024422246E-21 -4.0264949953E-21  1.3406974517E-20
             xred4     2.5000000000E-01  2.5000000000E-01  2.5000000000E-01
                       7.5000000000E-01  7.5000000000E-01  7.5000000000E-01
                       2.5271618871E-01  2.5271618871E-01  7.4728381129E-01
                       7.4728381129E-01  7.4728381129E-01  2.5271618871E-01
                       2.5271618871E-01  7.4728381129E-01  7.4728381129E-01
                       7.4728381129E-01  2.5271618871E-01  7.4728381129E-01
                       2.5271618871E-01  7.4728381129E-01  2.5271618871E-01
                       7.4728381129E-01  2.5271618871E-01  2.5271618871E-01
                      -6.3151086079E-21 -2.7375205983E-21  1.0636060386E-20
             xred5     2.5000000000E-01  2.5000000000E-01  2.5000000000E-01
                       7.5000000000E-01  7.5000000000E-01  7.5000000000E-01
                       2.5280323622E-01  2.5280323622E-01  7.4719676378E-01
                       7.4719676378E-01  7.4719676378E-01  2.5280323622E-01
                       2.5280323622E-01  7.4719676378E-01  7.4719676378E-01
                       7.4719676378E-01  2.5280323622E-01  7.4719676378E-01
                       2.5280323622E-01  7.4719676378E-01  2.5280323622E-01
                       7.4719676378E-01  2.5280323622E-01  2.5280323622E-01
                       1.3801901634E-21 -1.0041364450E-20  1.0279238747E-20
             xred6     2.5000000000E-01  2.5000000000E-01  2.5000000000E-01
                       7.5000000000E-01  7.5000000000E-01  7.5000000000E-01
                       2.5288757107E-01  2.5288757107E-01  7.4711242893E-01
                       7.4711242893E-01  7.4711242893E-01  2.5288757107E-01
                       2.5288757107E-01  7.4711242893E-01  7.4711242893E-01
                       7.4711242893E-01  2.5288757107E-01  7.4711242893E-01
                       2.5288757107E-01  7.4711242893E-01  2.5288757107E-01
                       7.4711242893E-01  2.5288757107E-01  2.5288757107E-01
                       1.5727523886E-21 -1.0241167123E-20  1.0486281870E-20
             xred7     2.5000000000E-01  2.5000000000E-01  2.5000000000E-01
                       7.5000000000E-01  7.5000000000E-01  7.5000000000E-01
                       2.5297407918E-01  2.5297407918E-01  7.4702592082E-01
                       7.4702592082E-01  7.4702592082E-01  2.5297407918E-01
                       2.5297407918E-01  7.4702592082E-01  7.4702592082E-01
                       7.4702592082E-01  2.5297407918E-01  7.4702592082E-01
                       2.5297407918E-01  7.4702592082E-01  2.5297407918E-01
                       7.4702592082E-01  2.5297407918E-01  2.5297407918E-01
                      -6.1024422246E-21 -4.0264949953E-21  1.3406974517E-20
             xred8     2.5000000000E-01  2.5000000000E-01  2.5000000000E-01
                       7.5000000000E-01  7.5000000000E-01  7.5000000000E-01
                       2.5306055728E-01  2.5306055728E-01  7.4693944272E-01
                       7.4693944272E-01  7.4693944272E-01  2.5306055728E-01
                       2.5306055728E-01  7.4693944272E-01  7.4693944272E-01
                       7.4693944272E-01  2.5306055728E-01  7.4693944272E-01
                       2.5306055728E-01  7.4693944272E-01  2.5306055728E-01
                       7.4693944272E-01  2.5306055728E-01  2.5306055728E-01
                      -9.5706507907E-21 -5.8495168502E-21  1.4467797993E-20
             xred9     2.5000000000E-01  2.5000000000E-01  2.5000000000E-01
                       7.5000000000E-01  7.5000000000E-01  7.5000000000E-01
                       2.5314691969E-01  2.5314691969E-01  7.4685308031E-01
                       7.4685308031E-01  7.4685308031E-01  2.5314691969E-01
                       2.5314691969E-01  7.4685308031E-01  7.4685308031E-01
                       7.4685308031E-01  2.5314691969E-01  7.4685308031E-01
                       2.5314691969E-01  7.4685308031E-01  2.5314691969E-01
                       7.4685308031E-01  2.5314691969E-01  2.5314691969E-01
                      -1.3766052800E-20 -3.5519749478E-21  1.4355274894E-20
             xred10    2.5000000000E-01  2.5000000000E-01  2.5000000000E-01
                       7.5000000000E-01  7.5000000000E-01  7.5000000000E-01
                       2.5323022619E-01  2.5323022619E-01  7.4676977381E-01
                       7.4676977381E-01  7.4676977381E-01  2.5323022619E-01
                       2.5323022619E-01  7.4676977381E-01  7.4676977381E-01
                       7.4676977381E-01  2.5323022619E-01  7.4676977381E-01
                       2.5323022619E-01  7.4676977381E-01  2.5323022619E-01
                       7.4676977381E-01  2.5323022619E-01  2.5323022619E-01
                      -6.1024422246E-21 -4.0264949953E-21  1.3406974517E-20
             xred11    2.5000000000E-01  2.5000000000E-01  2.5000000000E-01
                       7.5000000000E-01  7.5000000000E-01  7.5000000000E-01
                       2.5331088565E-01  2.5331088565E-01  7.4668911435E-01
                       7.4668911435E-01  7.4668911435E-01  2.5331088565E-01
                       2.5331088565E-01  7.4668911435E-01  7.4668911435E-01
                       7.4668911435E-01  2.5331088565E-01  7.4668911435E-01
                       2.5331088565E-01  7.4668911435E-01  2.5331088565E-01
                       7.4668911435E-01  2.5331088565E-01  2.5331088565E-01
                      -8.5106103347E-21 -3.8762741044E-21  1.6411413839E-20
             xred12    2.5000000000E-01  2.5000000000E-01  2.5000000000E-01
                       7.5000000000E-01  7.5000000000E-01  7.5000000000E-01
                       2.5339680518E-01  2.5339680518E-01  7.4660319482E-01
                       7.4660319482E-01  7.4660319482E-01  2.5339680518E-01
                       2.5339680518E-01  7.4660319482E-01  7.4660319482E-01
                       7.4660319482E-01  2.5339680518E-01  7.4660319482E-01
                       2.5339680518E-01  7.4660319482E-01  2.5339680518E-01
                       7.4660319482E-01  2.5339680518E-01  2.5339680518E-01
                      -6.8504685253E-21 -9.0127261350E-22  1.2368794387E-20
             xred13    2.5000000000E-01  2.5000000000E-01  2.5000000000E-01
                       7.5000000000E-01  7.5000000000E-01  7.5000000000E-01
                       2.5348669300E-01  2.5348669300E-01  7.4651330700E-01
                       7.4651330700E-01  7.4651330700E-01  2.5348669300E-01
                       2.5348669300E-01  7.4651330700E-01  7.4651330700E-01
                       7.4651330700E-01  2.5348669300E-01  7.4651330700E-01
                       2.5348669300E-01  7.4651330700E-01  2.5348669300E-01
                       7.4651330700E-01  2.5348669300E-01  2.5348669300E-01
                      -9.1096848247E-21  2.5958302193E-21  8.0392571810E-21
             xred14    2.5000000000E-01  2.5000000000E-01  2.5000000000E-01
                       7.5000000000E-01  7.5000000000E-01  7.5000000000E-01
                       2.5357059396E-01  2.5357059396E-01  7.4642940604E-01
                       7.4642940604E-01  7.4642940604E-01  2.5357059396E-01
                       2.5357059396E-01  7.4642940604E-01  7.4642940604E-01
                       7.4642940604E-01  2.5357059396E-01  7.4642940604E-01
                       2.5357059396E-01  7.4642940604E-01  2.5357059396E-01
                       7.4642940604E-01  2.5357059396E-01  2.5357059396E-01
                      -6.1024422246E-21 -4.0264949953E-21  1.3406974517E-20
             xred15    2.5000000000E-01  2.5000000000E-01  2.5000000000E-01
                       7.5000000000E-01  7.5000000000E-01  7.5000000000E-01
                       2.5365472221E-01  2.5365472221E-01  7.4634527779E-01
                       7.4634527779E-01  7.4634527779E-01  2.5365472221E-01
                       2.5365472221E-01  7.4634527779E-01  7.4634527779E-01
                       7.4634527779E-01  2.5365472221E-01  7.4634527779E-01
                       2.5365472221E-01  7.4634527779E-01  2.5365472221E-01
                       7.4634527779E-01  2.5365472221E-01  2.5365472221E-01
                      -6.5006348077E-21 -4.0144566916E-21  1.0663161787E-20
             xred16    2.5000000000E-01  2.5000000000E-01  2.5000000000E-01
                       7.5000000000E-01  7.5000000000E-01  7.5000000000E-01
                       2.5373394695E-01  2.5373394695E-01  7.4626605305E-01
                       7.4626605305E-01  7.4626605305E-01  2.5373394695E-01
                       2.5373394695E-01  7.4626605305E-01  7.4626605305E-01
                       7.4626605305E-01  2.5373394695E-01  7.4626605305E-01
                       2.5373394695E-01  7.4626605305E-01  2.5373394695E-01
                       7.4626605305E-01  2.5373394695E-01  2.5373394695E-01
                      -8.1588596040E-21 -7.9197624974E-21  1.2650297557E-20
             xred17    2.5000000000E-01  2.5000000000E-01  2.5000000000E-01
                       7.5000000000E-01  7.5000000000E-01  7.5000000000E-01
                       2.5382113088E-01  2.5382113088E-01  7.4617886912E-01
                       7.4617886912E-01  7.4617886912E-01  2.5382113088E-01
                       2.5382113088E-01  7.4617886912E-01  7.4617886912E-01
                       7.4617886912E-01  2.5382113088E-01  7.4617886912E-01
                       2.5382113088E-01  7.4617886912E-01  2.5382113088E-01
                       7.4617886912E-01  2.5382113088E-01  2.5382113088E-01
                      -6.4316274779E-21 -4.1302139458E-21  9.7452352427E-21
             xred18    2.5000000000E-01  2.5000000000E-01  2.5000000000E-01
                       7.5000000000E-01  7.5000000000E-01  7.5000000000E-01
                       2.5390614964E-01  2.5390614964E-01  7.4609385036E-01
                       7.4609385036E-01  7.4609385036E-01  2.5390614964E-01
                       2.5390614964E-01  7.4609385036E-01  7.4609385036E-01
                       7.4609385036E-01  2.5390614964E-01  7.4609385036E-01
                       2.5390614964E-01  7.4609385036E-01  2.5390614964E-01
                       7.4609385036E-01  2.5390614964E-01  2.5390614964E-01
                      -5.6458805418E-22 -3.2038855053E-21  4.4079742388E-21
             xred19    2.5000000000E-01  2.5000000000E-01  2.5000000000E-01
                       7.5000000000E-01  7.5000000000E-01  7.5000000000E-01
                       2.5398917875E-01  2.5398917875E-01  7.4601082125E-01
                       7.4601082125E-01  7.4601082125E-01  2.5398917875E-01
                       2.5398917875E-01  7.4601082125E-01  7.4601082125E-01
                       7.4601082125E-01  2.5398917875E-01  7.4601082125E-01
                       2.5398917875E-01  7.4601082125E-01  2.5398917875E-01
                       7.4601082125E-01  2.5398917875E-01  2.5398917875E-01
                      -6.1024422246E-21 -4.0264949953E-21  1.3406974517E-20
             xred20    2.5000000000E-01  2.5000000000E-01  2.5000000000E-01
                       7.5000000000E-01  7.5000000000E-01  7.5000000000E-01
                       2.5407141213E-01  2.5407141213E-01  7.4592858787E-01
                       7.4592858787E-01  7.4592858787E-01  2.5407141213E-01
                       2.5407141213E-01  7.4592858787E-01  7.4592858787E-01
                       7.4592858787E-01  2.5407141213E-01  7.4592858787E-01
                       2.5407141213E-01  7.4592858787E-01  2.5407141213E-01
                       7.4592858787E-01  2.5407141213E-01  2.5407141213E-01
                      -8.2234774276E-21 -1.6085703843E-21  1.4057621179E-20
            znucl       55.00000   35.00000   40.00000

================================================================================


- Timing analysis has been suppressed with timopt=0



================================================================================

 Suggested references for the acknowledgment of ABINIT usage.

 The users of ABINIT have little formal obligations with respect to the ABINIT group
 (those specified in the GNU General Public License, http://www.gnu.org/copyleft/gpl.txt).
 However, it is common practice in the scientific literature,
 to acknowledge the efforts of people that have made the research possible.
 In this spirit, please find below suggested citations of work written by ABINIT developers,
 corresponding to implementations inside of ABINIT that you have used in the present run.
 Note also that it will be of great value to readers of publications presenting these results,
 to read papers enabling them to understand the theoretical formalism and details
 of the ABINIT implementation.
 For information on why they are suggested, see also https://docs.abinit.org/theory/acknowledgments.
-
- [1] Implementation of the Projector Augmented-Wave Method in the ABINIT code.
- M. Torrent, F. Jollet, F. Bottin, G. Zerah, and X. Gonze Comput. Mat. Science 42, 337, (2008).
- Comment: PAW calculations. Strong suggestion to cite this paper.
- DOI and bibtex: see https://docs.abinit.org/theory/bibliography/#torrent2008
-
- [2] Libxc: A library of exchange and correlation functionals for density functional theory.
- M.A.L. Marques, M.J.T. Oliveira, T. Burnus, Computer Physics Communications 183, 2227 (2012).
- Comment: to be cited when LibXC is used (negative value of ixc)
- Strong suggestion to cite this paper.
- DOI and bibtex: see https://docs.abinit.org/theory/bibliography/#marques2012
-
- [3] The Abinit project: Impact, environment and recent developments.
- Computer Phys. Comm. 248, 107042 (2020).
- X.Gonze, B. Amadon, G. Antonius, F.Arnardi, L.Baguet, J.-M.Beuken,
- J.Bieder, F.Bottin, J.Bouchet, E.Bousquet, N.Brouwer, F.Bruneval,
- G.Brunin, T.Cavignac, J.-B. Charraud, Wei Chen, M.Cote, S.Cottenier,
- J.Denier, G.Geneste, Ph.Ghosez, M.Giantomassi, Y.Gillet, O.Gingras,
- D.R.Hamann, G.Hautier, Xu He, N.Helbig, N.Holzwarth, Y.Jia, F.Jollet,
- W.Lafargue-Dit-Hauret, K.Lejaeghere, M.A.L.Marques, A.Martin, C.Martins,
- H.P.C. Miranda, F.Naccarato, K. Persson, G.Petretto, V.Planes, Y.Pouillon,
- S.Prokhorenko, F.Ricci, G.-M.Rignanese, A.H.Romero, M.M.Schmitt, M.Torrent,
- M.J.van Setten, B.Van Troeye, M.J.Verstraete, G.Zerah and J.W.Zwanzig
- Comment: the fifth generic paper describing the ABINIT project.
- Note that a version of this paper, that is not formatted for Computer Phys. Comm. 
- is available at https://www.abinit.org/sites/default/files/ABINIT20.pdf .
- The licence allows the authors to put it on the Web.
- DOI and bibtex: see https://docs.abinit.org/theory/bibliography/#gonze2020
-
- [4] ABINIT: Overview, and focus on selected capabilities
- J. Chem. Phys. 152, 124102 (2020).
- A. Romero, D.C. Allan, B. Amadon, G. Antonius, T. Applencourt, L.Baguet,
- J.Bieder, F.Bottin, J.Bouchet, E.Bousquet, F.Bruneval,
- G.Brunin, D.Caliste, M.Cote,
- J.Denier, C. Dreyer, Ph.Ghosez, M.Giantomassi, Y.Gillet, O.Gingras,
- D.R.Hamann, G.Hautier, F.Jollet, G. Jomard,
- A.Martin, 
- H.P.C. Miranda, F.Naccarato, G.Petretto, N.A. Pike, V.Planes,
- S.Prokhorenko, T. Rangel, F.Ricci, G.-M.Rignanese, M.Royo, M.Stengel, M.Torrent,
- M.J.van Setten, B.Van Troeye, M.J.Verstraete, J.Wiktor, J.W.Zwanziger, and X.Gonze.
- Comment: a global overview of ABINIT, with focus on selected capabilities .
- Note that a version of this paper, that is not formatted for J. Chem. Phys 
- is available at https://www.abinit.org/sites/default/files/ABINIT20_JPC.pdf .
- The licence allows the authors to put it on the Web.
- DOI and bibtex: see https://docs.abinit.org/theory/bibliography/#romero2020
-
- [5] Recent developments in the ABINIT software package.
- Computer Phys. Comm. 205, 106 (2016).
- X.Gonze, F.Jollet, F.Abreu Araujo, D.Adams, B.Amadon, T.Applencourt,
- C.Audouze, J.-M.Beuken, J.Bieder, A.Bokhanchuk, E.Bousquet, F.Bruneval
- D.Caliste, M.Cote, F.Dahm, F.Da Pieve, M.Delaveau, M.Di Gennaro,
- B.Dorado, C.Espejo, G.Geneste, L.Genovese, A.Gerossier, M.Giantomassi,
- Y.Gillet, D.R.Hamann, L.He, G.Jomard, J.Laflamme Janssen, S.Le Roux,
- A.Levitt, A.Lherbier, F.Liu, I.Lukacevic, A.Martin, C.Martins,
- M.J.T.Oliveira, S.Ponce, Y.Pouillon, T.Rangel, G.-M.Rignanese,
- A.H.Romero, B.Rousseau, O.Rubel, A.A.Shukri, M.Stankovski, M.Torrent,
- M.J.Van Setten, B.Van Troeye, M.J.Verstraete, D.Waroquier, J.Wiktor,
- B.Xu, A.Zhou, J.W.Zwanziger.
- Comment: the fourth generic paper describing the ABINIT project.
- Note that a version of this paper, that is not formatted for Computer Phys. Comm. 
- is available at https://www.abinit.org/sites/default/files/ABINIT16.pdf .
- The licence allows the authors to put it on the Web.
- DOI and bibtex: see https://docs.abinit.org/theory/bibliography/#gonze2016
-
- Proc.   0 individual time (sec): cpu=       6170.0  wall=       6187.6

================================================================================

 Calculation completed.
.Delivered   0 WARNINGs and  60 COMMENTs to log file.
+Overall time at end (sec) : cpu=      37094.6  wall=      37125.6
