
.Version 9.2.2 of ABINIT 
.(MPI version, prepared for a x86_64_linux_gnu9.3 computer) 

.Copyright (C) 1998-2020 ABINIT group . 
 ABINIT comes with ABSOLUTELY NO WARRANTY.
 It is free software, and you are welcome to redistribute it
 under certain conditions (GNU General Public License,
 see ~abinit/COPYING or http://www.gnu.org/copyleft/gpl.txt).

 ABINIT is a project of the Universite Catholique de Louvain,
 Corning Inc. and other collaborators, see ~abinit/doc/developers/contributors.txt .
 Please read https://docs.abinit.org/theory/acknowledgments for suggested
 acknowledgments of the ABINIT effort.
 For more information, see https://www.abinit.org .

.Starting date : Mon 21 Nov 2022.
- ( at 09h41 )
  
- input  file    -> Cs2TiI6.in
- output file    -> Cs2TiI6.out
- root for input  files -> Cs2TiI6i
- root for output files -> Cs2TiI6o

- inpspheads : Reading pseudopotential header in XML form from 
-   ../../../Psps_for_tests/ATOMICDATA/Cs.GGA_PBE-JTH.xml
- inpspheads : Reading pseudopotential header in XML form from 
-   ../../../Psps_for_tests/ATOMICDATA/I.GGA_PBE-JTH.xml
- inpspheads : Reading pseudopotential header in XML form from 
-   ../../../Psps_for_tests/ATOMICDATA/Hf.GGA_PBE-JTH.xml
- inpspheads : Reading pseudopotential header in XML form from 
-   ../../../Psps_for_tests/ATOMICDATA/Cl.GGA_PBE-JTH.xml

 DATASET    1 : space group I4 m m (#107); Bravais tI (body-center tetrag.)
================================================================================
 Values of the parameters that define the memory need for DATASET  1.
     intxc =       0    ionmov =       2      iscf =      17    lmnmax =      18
     lnmax =       6     mgfft =      64  mpssoang =       3    mqgrid =    3989
     natom =       9  nloc_mem =       2    nspden =       1   nspinor =       1
    nsppol =       1      nsym =       8    n1xccc =       1    ntypat =       4
    occopt =       1   xclevel =       2
-    mband =          42        mffmem =           1         mkmem =           4
       mpw =       10956          nfft =      262144          nkpt =          20
Pmy_natom=         2
 PAW method is used; the additional fine FFT grid is defined by:
   mgfftf=       100    nfftf =   1000000
================================================================================
P This job should need less than                     331.339 Mbytes of memory.
  Rough estimation (10% accuracy) of disk space for files :
_ WF disk file :    140.429 Mbytes ; DEN or POT disk file :      7.631 Mbytes.
================================================================================


 DATASET    2 : space group I4 m m (#107); Bravais tI (body-center tetrag.)
================================================================================
 Values of the parameters that define the memory need for DATASET  2.
     intxc =       0    ionmov =       2      iscf =      17    lmnmax =      18
     lnmax =       6     mgfft =      64  mpssoang =       3    mqgrid =    3985
     natom =       9  nloc_mem =       2    nspden =       1   nspinor =       1
    nsppol =       1      nsym =       8    n1xccc =       1    ntypat =       4
    occopt =       1   xclevel =       2
-    mband =          42        mffmem =           1         mkmem =           4
       mpw =       10926          nfft =      262144          nkpt =          20
Pmy_natom=         2
 PAW method is used; the additional fine FFT grid is defined by:
   mgfftf=       100    nfftf =   1000000
================================================================================
P This job should need less than                     331.320 Mbytes of memory.
  Rough estimation (10% accuracy) of disk space for files :
_ WF disk file :    140.045 Mbytes ; DEN or POT disk file :      7.631 Mbytes.
================================================================================


 DATASET    3 : space group I4 m m (#107); Bravais tI (body-center tetrag.)
================================================================================
 Values of the parameters that define the memory need for DATASET  3.
     intxc =       0    ionmov =       2      iscf =      17    lmnmax =      18
     lnmax =       6     mgfft =      64  mpssoang =       3    mqgrid =    3981
     natom =       9  nloc_mem =       2    nspden =       1   nspinor =       1
    nsppol =       1      nsym =       8    n1xccc =       1    ntypat =       4
    occopt =       1   xclevel =       2
-    mband =          42        mffmem =           1         mkmem =           4
       mpw =       10884          nfft =      262144          nkpt =          20
Pmy_natom=         2
 PAW method is used; the additional fine FFT grid is defined by:
   mgfftf=       100    nfftf =   1000000
================================================================================
P This job should need less than                     331.266 Mbytes of memory.
  Rough estimation (10% accuracy) of disk space for files :
_ WF disk file :    139.506 Mbytes ; DEN or POT disk file :      7.631 Mbytes.
================================================================================


 DATASET    4 : space group I4 m m (#107); Bravais tI (body-center tetrag.)
================================================================================
 Values of the parameters that define the memory need for DATASET  4.
     intxc =       0    ionmov =       2      iscf =      17    lmnmax =      18
     lnmax =       6     mgfft =      64  mpssoang =       3    mqgrid =    3977
     natom =       9  nloc_mem =       2    nspden =       1   nspinor =       1
    nsppol =       1      nsym =       8    n1xccc =       1    ntypat =       4
    occopt =       1   xclevel =       2
-    mband =          42        mffmem =           1         mkmem =           4
       mpw =       10846          nfft =      262144          nkpt =          20
Pmy_natom=         2
 PAW method is used; the additional fine FFT grid is defined by:
   mgfftf=       100    nfftf =   1000000
================================================================================
P This job should need less than                     331.225 Mbytes of memory.
  Rough estimation (10% accuracy) of disk space for files :
_ WF disk file :    139.019 Mbytes ; DEN or POT disk file :      7.631 Mbytes.
================================================================================


 DATASET    5 : space group I4 m m (#107); Bravais tI (body-center tetrag.)
================================================================================
 Values of the parameters that define the memory need for DATASET  5.
     intxc =       0    ionmov =       2      iscf =      17    lmnmax =      18
     lnmax =       6     mgfft =      64  mpssoang =       3    mqgrid =    3973
     natom =       9  nloc_mem =       2    nspden =       1   nspinor =       1
    nsppol =       1      nsym =       8    n1xccc =       1    ntypat =       4
    occopt =       1   xclevel =       2
-    mband =          42        mffmem =           1         mkmem =           4
       mpw =       10809          nfft =      262144          nkpt =          20
Pmy_natom=         2
 PAW method is used; the additional fine FFT grid is defined by:
   mgfftf=       100    nfftf =   1000000
================================================================================
P This job should need less than                     331.186 Mbytes of memory.
  Rough estimation (10% accuracy) of disk space for files :
_ WF disk file :    138.545 Mbytes ; DEN or POT disk file :      7.631 Mbytes.
================================================================================


 DATASET    6 : space group I4 m m (#107); Bravais tI (body-center tetrag.)
================================================================================
 Values of the parameters that define the memory need for DATASET  6.
     intxc =       0    ionmov =       2      iscf =      17    lmnmax =      18
     lnmax =       6     mgfft =      64  mpssoang =       3    mqgrid =    3969
     natom =       9  nloc_mem =       2    nspden =       1   nspinor =       1
    nsppol =       1      nsym =       8    n1xccc =       1    ntypat =       4
    occopt =       1   xclevel =       2
-    mband =          42        mffmem =           1         mkmem =           4
       mpw =       10777          nfft =      262144          nkpt =          20
Pmy_natom=         2
 PAW method is used; the additional fine FFT grid is defined by:
   mgfftf=       100    nfftf =   1000000
================================================================================
P This job should need less than                     331.162 Mbytes of memory.
  Rough estimation (10% accuracy) of disk space for files :
_ WF disk file :    138.135 Mbytes ; DEN or POT disk file :      7.631 Mbytes.
================================================================================


 DATASET    7 : space group I4 m m (#107); Bravais tI (body-center tetrag.)
================================================================================
 Values of the parameters that define the memory need for DATASET  7.
     intxc =       0    ionmov =       2      iscf =      17    lmnmax =      18
     lnmax =       6     mgfft =      64  mpssoang =       3    mqgrid =    3965
     natom =       9  nloc_mem =       2    nspden =       1   nspinor =       1
    nsppol =       1      nsym =       8    n1xccc =       1    ntypat =       4
    occopt =       1   xclevel =       2
-    mband =          42        mffmem =           1         mkmem =           4
       mpw =       10747          nfft =      262144          nkpt =          20
Pmy_natom=         2
 PAW method is used; the additional fine FFT grid is defined by:
   mgfftf=       100    nfftf =   1000000
================================================================================
P This job should need less than                     331.144 Mbytes of memory.
  Rough estimation (10% accuracy) of disk space for files :
_ WF disk file :    137.750 Mbytes ; DEN or POT disk file :      7.631 Mbytes.
================================================================================


 DATASET    8 : space group I4 m m (#107); Bravais tI (body-center tetrag.)
================================================================================
 Values of the parameters that define the memory need for DATASET  8.
     intxc =       0    ionmov =       2      iscf =      17    lmnmax =      18
     lnmax =       6     mgfft =      64  mpssoang =       3    mqgrid =    3961
     natom =       9  nloc_mem =       2    nspden =       1   nspinor =       1
    nsppol =       1      nsym =       8    n1xccc =       1    ntypat =       4
    occopt =       1   xclevel =       2
-    mband =          42        mffmem =           1         mkmem =           4
       mpw =       10718          nfft =      262144          nkpt =          20
Pmy_natom=         2
 PAW method is used; the additional fine FFT grid is defined by:
   mgfftf=       100    nfftf =   1000000
================================================================================
P This job should need less than                     331.131 Mbytes of memory.
  Rough estimation (10% accuracy) of disk space for files :
_ WF disk file :    137.379 Mbytes ; DEN or POT disk file :      7.631 Mbytes.
================================================================================


 DATASET    9 : space group I4 m m (#107); Bravais tI (body-center tetrag.)
================================================================================
 Values of the parameters that define the memory need for DATASET  9.
     intxc =       0    ionmov =       2      iscf =      17    lmnmax =      18
     lnmax =       6     mgfft =      64  mpssoang =       3    mqgrid =    3957
     natom =       9  nloc_mem =       2    nspden =       1   nspinor =       1
    nsppol =       1      nsym =       8    n1xccc =       1    ntypat =       4
    occopt =       1   xclevel =       2
-    mband =          42        mffmem =           1         mkmem =           4
       mpw =       10686          nfft =      262144          nkpt =          20
Pmy_natom=         2
 PAW method is used; the additional fine FFT grid is defined by:
   mgfftf=       100    nfftf =   1000000
================================================================================
P This job should need less than                     331.107 Mbytes of memory.
  Rough estimation (10% accuracy) of disk space for files :
_ WF disk file :    136.969 Mbytes ; DEN or POT disk file :      7.631 Mbytes.
================================================================================


 DATASET   10 : space group I4 m m (#107); Bravais tI (body-center tetrag.)
================================================================================
 Values of the parameters that define the memory need for DATASET 10.
     intxc =       0    ionmov =       2      iscf =      17    lmnmax =      18
     lnmax =       6     mgfft =      64  mpssoang =       3    mqgrid =    3953
     natom =       9  nloc_mem =       2    nspden =       1   nspinor =       1
    nsppol =       1      nsym =       8    n1xccc =       1    ntypat =       4
    occopt =       1   xclevel =       2
-    mband =          42        mffmem =           1         mkmem =           4
       mpw =       10651          nfft =      262144          nkpt =          20
Pmy_natom=         2
 PAW method is used; the additional fine FFT grid is defined by:
   mgfftf=       100    nfftf =   1000000
================================================================================
P This job should need less than                     331.077 Mbytes of memory.
  Rough estimation (10% accuracy) of disk space for files :
_ WF disk file :    136.520 Mbytes ; DEN or POT disk file :      7.631 Mbytes.
================================================================================

--------------------------------------------------------------------------------
------------- Echo of variables that govern the present computation ------------
--------------------------------------------------------------------------------
-
- outvars: echo of selected default values                                      
-   iomode0 =  0 , fftalg0 =112 , wfoptalg0 = 10
-
- outvars: echo of global parameters not present in the input file              
-  max_nthreads =    0
-
 -outvars: echo values of preprocessed input variables --------
            acell1     1.4854218532E+01  1.5063980767E+01  1.4854218532E+01 Bohr
            acell2     1.4839349445E+01  1.5048901707E+01  1.4839349445E+01 Bohr
            acell3     1.4824480357E+01  1.5033822648E+01  1.4824480357E+01 Bohr
            acell4     1.4809611270E+01  1.5018743588E+01  1.4809611270E+01 Bohr
            acell5     1.4794742182E+01  1.5003664528E+01  1.4794742182E+01 Bohr
            acell6     1.4779873094E+01  1.4988585468E+01  1.4779873094E+01 Bohr
            acell7     1.4765004007E+01  1.4973506408E+01  1.4765004007E+01 Bohr
            acell8     1.4750134919E+01  1.4958427348E+01  1.4750134919E+01 Bohr
            acell9     1.4735265831E+01  1.4943348289E+01  1.4735265831E+01 Bohr
            acell10    1.4720396744E+01  1.4928269229E+01  1.4720396744E+01 Bohr
              amu      1.32905430E+02  1.26904470E+02  1.78490000E+02
                       3.54527000E+01
           diemac      1.20000000E+01
          dilatmx      1.15000000E+00
             ecut      1.60000000E+01 Hartree
           ecutsm      5.00000000E-01 Hartree
-          fftalg         112
          getxred1          0
          getxred2         -1
          getxred3         -1
          getxred4         -1
          getxred5         -1
          getxred6         -1
          getxred7         -1
          getxred8         -1
          getxred9         -1
          getxred10        -1
           ionmov           2
              ixc     -101130
           jdtset        1    2    3    4    5    6    7    8    9   10
              kpt      0.00000000E+00 -1.25000000E-01  0.00000000E+00
                       0.00000000E+00 -3.75000000E-01  0.00000000E+00
                       1.25000000E-01 -2.50000000E-01  0.00000000E+00
                       1.25000000E-01 -1.25000000E-01  1.25000000E-01
                       1.25000000E-01  5.00000000E-01  0.00000000E+00
                       2.50000000E-01 -3.75000000E-01  0.00000000E+00
                       1.25000000E-01 -3.75000000E-01  1.25000000E-01
                       2.50000000E-01 -2.50000000E-01  1.25000000E-01
                       2.50000000E-01 -1.25000000E-01  2.50000000E-01
                       1.25000000E-01  2.50000000E-01  0.00000000E+00
                       2.50000000E-01  3.75000000E-01  0.00000000E+00
                       3.75000000E-01  5.00000000E-01  0.00000000E+00
                       1.25000000E-01  3.75000000E-01  1.25000000E-01
                       2.50000000E-01  5.00000000E-01  1.25000000E-01
                       3.75000000E-01 -3.75000000E-01  1.25000000E-01
                       2.50000000E-01 -3.75000000E-01  2.50000000E-01
                       3.75000000E-01 -2.50000000E-01  2.50000000E-01
                       3.75000000E-01 -1.25000000E-01  3.75000000E-01
                       5.00000000E-01  2.50000000E-01  1.25000000E-01
                      -3.75000000E-01  3.75000000E-01  1.25000000E-01
         kptrlatt        4    4   -4     -4    4    4      4   -4    4
          kptrlen1     8.28245567E+01
          kptrlen2     8.27416493E+01
          kptrlen3     8.26587418E+01
          kptrlen4     8.25758343E+01
          kptrlen5     8.24929269E+01
          kptrlen6     8.24100194E+01
          kptrlen7     8.23271119E+01
          kptrlen8     8.22442045E+01
          kptrlen9     8.21612970E+01
          kptrlen10    8.20783895E+01
P           mkmem           4
            natom           9
            nband          42
           ndtset          10
            ngfft          64      64      64
          ngfftdg         100     100     100
             nkpt          20
            nstep          50
             nsym           8
            ntime        1000
           ntypat           4
              occ      2.000000  2.000000  2.000000  2.000000  2.000000  2.000000
                       2.000000  2.000000  2.000000  2.000000  2.000000  2.000000
                       2.000000  2.000000  2.000000  2.000000  2.000000  2.000000
                       2.000000  2.000000  2.000000  2.000000  2.000000  2.000000
                       2.000000  2.000000  2.000000  2.000000  2.000000  2.000000
                       2.000000  2.000000  2.000000  2.000000  2.000000  2.000000
                       0.000000  0.000000  0.000000  0.000000  0.000000  0.000000
          optcell           3
        optforces           1
        pawecutdg      4.00000000E+01 Hartree
            prtwf           0
            rprim      0.0000000000E+00  6.9697840831E-01  7.1709211288E-01
                       7.0710678119E-01  0.0000000000E+00  7.0710678119E-01
                       7.1709211288E-01  6.9697840831E-01  0.0000000000E+00
           shiftk     -5.00000000E-01  5.00000000E-01  5.00000000E-01
          spgroup         107
           symrel      1  0  0   0  1  0   0  0  1       0  0  1   0  1  0   1  0  0
                       0 -1  1   0 -1  0   1 -1  0       1 -1  0   0 -1  0   0 -1  1
                       0 -1  1  -1  0  1   0  0  1       0  0  1  -1  0  1   0 -1  1
                       1  0  0   1  0 -1   1 -1  0       1 -1  0   1  0 -1   1  0  0
           toldff      1.00000000E-08
           tolmxf      1.00000000E-05
            typat      1  1  4  2  2  2  2  2  3
           useylm           1
              wtk        0.03125    0.03125    0.06250    0.03125    0.06250    0.06250
                         0.03125    0.06250    0.03125    0.06250    0.06250    0.06250
                         0.03125    0.06250    0.06250    0.03125    0.06250    0.03125
                         0.06250    0.06250
           xangst1     2.8183562599E+00  2.7244830458E+00  2.8183562599E+00
                       8.4550687798E+00  8.2030915115E+00  8.4550687798E+00
                       5.6367125199E+00  8.4475401808E+00  5.6367125199E+00
                       5.6367125199E+00  5.4712882428E+00  2.8342784930E+00
                       5.6367125198E+00  5.4712882428E+00  8.4391465468E+00
                       5.6367125198E+00  2.7409888592E+00  5.6367125198E+00
                       8.4391465468E+00  5.4712882428E+00  5.6367125198E+00
                       2.8342784930E+00  5.4712882428E+00  5.6367125199E+00
                      -1.7597986542E-12 -9.5423390260E-02 -1.7597986542E-12
           xangst2     2.8155350825E+00  2.7217558356E+00  2.8155350825E+00
                       8.4466052475E+00  8.1948802087E+00  8.4466052475E+00
                       5.6310701651E+00  8.4390841847E+00  5.6310701651E+00
                       5.6310701651E+00  5.4658114778E+00  2.8314413774E+00
                       5.6310701650E+00  5.4658114778E+00  8.4306989526E+00
                       5.6310701650E+00  2.7382451266E+00  5.6310701650E+00
                       8.4306989526E+00  5.4658114778E+00  5.6310701650E+00
                       2.8314413774E+00  5.4658114778E+00  5.6310701651E+00
                      -1.7580227255E-12 -9.5327871351E-02 -1.7580227255E-12
           xangst3     2.8127139051E+00  2.7190286253E+00  2.8127139051E+00
                       8.4381417152E+00  8.1866689058E+00  8.4381417152E+00
                       5.6254278102E+00  8.4306281885E+00  5.6254278102E+00
                       5.6254278102E+00  5.4603347128E+00  2.8286042618E+00
                       5.6254278101E+00  5.4603347128E+00  8.4222513585E+00
                       5.6254278101E+00  2.7355013941E+00  5.6254278101E+00
                       8.4222513585E+00  5.4603347128E+00  5.6254278101E+00
                       2.8286042618E+00  5.4603347128E+00  5.6254278102E+00
                      -1.7562541406E-12 -9.5232352442E-02 -1.7562541406E-12
           xangst4     2.8098927276E+00  2.7163014151E+00  2.8098927276E+00
                       8.4296781829E+00  8.1784576030E+00  8.4296781829E+00
                       5.6197854553E+00  8.4221721923E+00  5.6197854553E+00
                       5.6197854553E+00  5.4548579478E+00  2.8257671462E+00
                       5.6197854552E+00  5.4548579478E+00  8.4138037643E+00
                       5.6197854552E+00  2.7327576615E+00  5.6197854552E+00
                       8.4138037643E+00  5.4548579478E+00  5.6197854552E+00
                       2.8257671462E+00  5.4548579478E+00  5.6197854553E+00
                      -1.7545075871E-12 -9.5136833533E-02 -1.7545075871E-12
           xangst5     2.8070715502E+00  2.7135742048E+00  2.8070715502E+00
                       8.4212146506E+00  8.1702463002E+00  8.4212146506E+00
                       5.6141431004E+00  8.4137161961E+00  5.6141431004E+00
                       5.6141431004E+00  5.4493811828E+00  2.8229300306E+00
                       5.6141431003E+00  5.4493811828E+00  8.4053561702E+00
                       5.6141431003E+00  2.7300139289E+00  5.6141431003E+00
                       8.4053561702E+00  5.4493811828E+00  5.6141431003E+00
                       2.8229300306E+00  5.4493811828E+00  5.6141431004E+00
                      -1.7527316585E-12 -9.5041314624E-02 -1.7527316585E-12
           xangst6     2.8042503728E+00  2.7108469945E+00  2.8042503728E+00
                       8.4127511183E+00  8.1620349974E+00  8.4127511183E+00
                       5.6085007456E+00  8.4052602000E+00  5.6085007456E+00
                       5.6085007456E+00  5.4439044178E+00  2.8200929150E+00
                       5.6085007455E+00  5.4439044178E+00  8.3969085760E+00
                       5.6085007455E+00  2.7272701963E+00  5.6085007455E+00
                       8.3969085760E+00  5.4439044178E+00  5.6085007455E+00
                       2.8200929150E+00  5.4439044178E+00  5.6085007456E+00
                      -1.7509704174E-12 -9.4945795715E-02 -1.7509704174E-12
           xangst7     2.8014291953E+00  2.7081197843E+00  2.8014291953E+00
                       8.4042875859E+00  8.1538236946E+00  8.4042875859E+00
                       5.6028583907E+00  8.3968042038E+00  5.6028583907E+00
                       5.6028583907E+00  5.4384276528E+00  2.8172557993E+00
                       5.6028583906E+00  5.4384276528E+00  8.3884609819E+00
                       5.6028583906E+00  2.7245264637E+00  5.6028583906E+00
                       8.3884609819E+00  5.4384276528E+00  5.6028583906E+00
                       2.8172557993E+00  5.4384276528E+00  5.6028583907E+00
                      -1.7491994569E-12 -9.4850276805E-02 -1.7491994569E-12
           xangst8     2.7986080179E+00  2.7053925740E+00  2.7986080179E+00
                       8.3958240536E+00  8.1456123918E+00  8.3958240536E+00
                       5.5972160358E+00  8.3883482076E+00  5.5972160358E+00
                       5.5972160358E+00  5.4329508878E+00  2.8144186837E+00
                       5.5972160357E+00  5.4329508878E+00  8.3800133878E+00
                       5.5972160357E+00  2.7217827311E+00  5.5972160357E+00
                       8.3800133878E+00  5.4329508878E+00  5.5972160357E+00
                       2.8144186837E+00  5.4329508878E+00  5.5972160358E+00
                      -1.7474464119E-12 -9.4754757896E-02 -1.7474464119E-12
           xangst9     2.7957868404E+00  2.7026653638E+00  2.7957868404E+00
                       8.3873605213E+00  8.1374010890E+00  8.3873605213E+00
                       5.5915736809E+00  8.3798922114E+00  5.5915736809E+00
                       5.5915736809E+00  5.4274741228E+00  2.8115815681E+00
                       5.5915736808E+00  5.4274741228E+00  8.3715657936E+00
                       5.5915736808E+00  2.7190389985E+00  5.5915736808E+00
                       8.3715657936E+00  5.4274741228E+00  5.5915736808E+00
                       2.8115815681E+00  5.4274741228E+00  5.5915736809E+00
                      -1.7456720065E-12 -9.4659238987E-02 -1.7456720065E-12
           xangst10    2.7929656630E+00  2.6999381535E+00  2.7929656630E+00
                       8.3788969890E+00  8.1291897861E+00  8.3788969890E+00
                       5.5859313261E+00  8.3714362152E+00  5.5859313261E+00
                       5.5859313261E+00  5.4219973578E+00  2.8087444525E+00
                       5.5859313260E+00  5.4219973578E+00  8.3631181995E+00
                       5.5859313260E+00  2.7162952659E+00  5.5859313260E+00
                       8.3631181995E+00  5.4219973578E+00  5.5859313260E+00
                       2.8087444525E+00  5.4219973578E+00  5.5859313261E+00
                      -1.7439212980E-12 -9.4563720078E-02 -1.7439212980E-12
            xcart1     5.3259214762E+00  5.1485268103E+00  5.3259214762E+00
                       1.5977764429E+01  1.5501596400E+01  1.5977764429E+01
                       1.0651842952E+01  1.5963537438E+01  1.0651842952E+01
                       1.0651842952E+01  1.0339236373E+01  5.3560101361E+00
                       1.0651842952E+01  1.0339236373E+01  1.5947675769E+01
                       1.0651842952E+01  5.1797182772E+00  1.0651842952E+01
                       1.5947675769E+01  1.0339236373E+01  1.0651842952E+01
                       5.3560101361E+00  1.0339236373E+01  1.0651842952E+01
                      -3.3255375054E-12 -1.8032407426E-01 -3.3255375054E-12
            xcart2     5.3205902235E+00  5.1433731298E+00  5.3205902235E+00
                       1.5961770670E+01  1.5486079286E+01  1.5961770670E+01
                       1.0641180447E+01  1.5947557921E+01  1.0641180447E+01
                       1.0641180447E+01  1.0328886787E+01  5.3506487646E+00
                       1.0641180447E+01  1.0328886787E+01  1.5931712129E+01
                       1.0641180447E+01  5.1745333741E+00  1.0641180447E+01
                       1.5931712129E+01  1.0328886787E+01  1.0641180447E+01
                       5.3506487646E+00  1.0328886787E+01  1.0641180447E+01
                      -3.3221814866E-12 -1.8014356968E-01 -3.3221814866E-12
            xcart3     5.3152589707E+00  5.1382194493E+00  5.3152589707E+00
                       1.5945776912E+01  1.5470562173E+01  1.5945776912E+01
                       1.0630517942E+01  1.5931578404E+01  1.0630517942E+01
                       1.0630517942E+01  1.0318537201E+01  5.3452873931E+00
                       1.0630517941E+01  1.0318537201E+01  1.5915748490E+01
                       1.0630517941E+01  5.1693484709E+00  1.0630517941E+01
                       1.5915748490E+01  1.0318537201E+01  1.0630517941E+01
                       5.3452873931E+00  1.0318537201E+01  1.0630517942E+01
                      -3.3188393455E-12 -1.7996306511E-01 -3.3188393455E-12
            xcart4     5.3099277180E+00  5.1330657688E+00  5.3099277180E+00
                       1.5929783154E+01  1.5455045059E+01  1.5929783154E+01
                       1.0619855436E+01  1.5915598887E+01  1.0619855436E+01
                       1.0619855436E+01  1.0308187615E+01  5.3399260216E+00
                       1.0619855436E+01  1.0308187615E+01  1.5899784850E+01
                       1.0619855436E+01  5.1641635677E+00  1.0619855436E+01
                       1.5899784850E+01  1.0308187615E+01  1.0619855436E+01
                       5.3399260216E+00  1.0308187615E+01  1.0619855436E+01
                      -3.3155388378E-12 -1.7978256053E-01 -3.3155388378E-12
            xcart5     5.3045964653E+00  5.1279120883E+00  5.3045964653E+00
                       1.5913789396E+01  1.5439527946E+01  1.5913789396E+01
                       1.0609192931E+01  1.5899619371E+01  1.0609192931E+01
                       1.0609192931E+01  1.0297838029E+01  5.3345646501E+00
                       1.0609192930E+01  1.0297838029E+01  1.5883821211E+01
                       1.0609192930E+01  5.1589786645E+00  1.0609192930E+01
                       1.5883821211E+01  1.0297838029E+01  1.0609192930E+01
                       5.3345646501E+00  1.0297838029E+01  1.0609192931E+01
                      -3.3121828189E-12 -1.7960205595E-01 -3.3121828189E-12
            xcart6     5.2992652125E+00  5.1227584078E+00  5.2992652125E+00
                       1.5897795638E+01  1.5424010832E+01  1.5897795638E+01
                       1.0598530425E+01  1.5883639854E+01  1.0598530425E+01
                       1.0598530425E+01  1.0287488443E+01  5.3292032786E+00
                       1.0598530425E+01  1.0287488443E+01  1.5867857572E+01
                       1.0598530425E+01  5.1537937613E+00  1.0598530425E+01
                       1.5867857572E+01  1.0287488443E+01  1.0598530425E+01
                       5.3292032786E+00  1.0287488443E+01  1.0598530425E+01
                      -3.3088545556E-12 -1.7942155137E-01 -3.3088545556E-12
            xcart7     5.2939339598E+00  5.1176047273E+00  5.2939339598E+00
                       1.5881801879E+01  1.5408493719E+01  1.5881801879E+01
                       1.0587867920E+01  1.5867660337E+01  1.0587867920E+01
                       1.0587867920E+01  1.0277138857E+01  5.3238419071E+00
                       1.0587867920E+01  1.0277138857E+01  1.5851893932E+01
                       1.0587867920E+01  5.1486088582E+00  1.0587867920E+01
                       1.5851893932E+01  1.0277138857E+01  1.0587867920E+01
                       5.3238419071E+00  1.0277138857E+01  1.0587867920E+01
                      -3.3055079253E-12 -1.7924104679E-01 -3.3055079253E-12
            xcart8     5.2886027071E+00  5.1124510469E+00  5.2886027071E+00
                       1.5865808121E+01  1.5392976605E+01  1.5865808121E+01
                       1.0577205414E+01  1.5851680820E+01  1.0577205414E+01
                       1.0577205414E+01  1.0266789271E+01  5.3184805355E+00
                       1.0577205414E+01  1.0266789271E+01  1.5835930293E+01
                       1.0577205414E+01  5.1434239550E+00  1.0577205414E+01
                       1.5835930293E+01  1.0266789271E+01  1.0577205414E+01
                       5.3184805355E+00  1.0266789271E+01  1.0577205414E+01
                      -3.3021951503E-12 -1.7906054221E-01 -3.3021951503E-12
            xcart9     5.2832714544E+00  5.1072973664E+00  5.2832714544E+00
                       1.5849814363E+01  1.5377459492E+01  1.5849814363E+01
                       1.0566542909E+01  1.5835701303E+01  1.0566542909E+01
                       1.0566542909E+01  1.0256439685E+01  5.3131191640E+00
                       1.0566542909E+01  1.0256439685E+01  1.5819966653E+01
                       1.0566542909E+01  5.1382390518E+00  1.0566542909E+01
                       1.5819966653E+01  1.0256439685E+01  1.0566542909E+01
                       5.3131191640E+00  1.0256439685E+01  1.0566542909E+01
                      -3.2988420102E-12 -1.7888003763E-01 -3.2988420102E-12
            xcart10    5.2779402016E+00  5.1021436859E+00  5.2779402016E+00
                       1.5833820605E+01  1.5361942378E+01  1.5833820605E+01
                       1.0555880403E+01  1.5819721786E+01  1.0555880403E+01
                       1.0555880403E+01  1.0246090099E+01  5.3077577925E+00
                       1.0555880403E+01  1.0246090099E+01  1.5804003014E+01
                       1.0555880403E+01  5.1330541486E+00  1.0555880403E+01
                       1.5804003014E+01  1.0246090099E+01  1.0555880403E+01
                       5.3077577925E+00  1.0246090099E+01  1.0555880403E+01
                      -3.2955336505E-12 -1.7869953305E-01 -3.2955336505E-12
             xred      2.4864735844E-01  2.5135264156E-01  2.4864735844E-01
                       7.4864735844E-01  7.5135264156E-01  7.4864735844E-01
                       7.7095673416E-01  2.2904326584E-01  7.7095673416E-01
                       2.5074429555E-01  2.5208044192E-01  7.4791955808E-01
                       7.4791955808E-01  7.4925570445E-01  2.5074429555E-01
                       2.5015374583E-01  7.4984625417E-01  2.5015374583E-01
                       2.5074429555E-01  7.4925570445E-01  7.4791955808E-01
                       7.4791955808E-01  2.5208044192E-01  2.5074429555E-01
                      -8.7087251132E-03  8.7087251132E-03 -8.7087251132E-03
            znucl       55.00000   53.00000   72.00000   17.00000

================================================================================

 chkinp: Checking input parameters for consistency, jdtset=   1.

 chkinp: Checking input parameters for consistency, jdtset=   2.

 chkinp: Checking input parameters for consistency, jdtset=   3.

 chkinp: Checking input parameters for consistency, jdtset=   4.

 chkinp: Checking input parameters for consistency, jdtset=   5.

 chkinp: Checking input parameters for consistency, jdtset=   6.

 chkinp: Checking input parameters for consistency, jdtset=   7.

 chkinp: Checking input parameters for consistency, jdtset=   8.

 chkinp: Checking input parameters for consistency, jdtset=   9.

 chkinp: Checking input parameters for consistency, jdtset=  10.

================================================================================
== DATASET  1 ==================================================================
-   mpi_nproc: 6, omp_nthreads: -1 (-1 if OMP is not activated)


--- !DatasetInfo
iteration_state: {dtset: 1, }
dimensions: {natom: 9, nkpt: 20, mband: 42, nsppol: 1, nspinor: 1, nspden: 1, mpw: 10956, }
cutoff_energies: {ecut:  16.0, pawecutdg:  40.0, }
electrons: {nelect:   7.20000000E+01, charge:   0.00000000E+00, occopt:   1.00000000E+00, tsmear:   1.00000000E-02, }
meta: {optdriver: 0, ionmov: 2, optcell: 3, iscf: 17, paral_kgb: 0, }
...

 Real(R)+Recip(G) space primitive vectors, cartesian coordinates (Bohr,Bohr^-1):
 R(1)=  0.0000000 10.3530696 10.6518430  G(1)= -0.0469402  0.0482949  0.0469402
 R(2)= 10.6518430  0.0000000 10.6518430  G(2)=  0.0469402 -0.0482949  0.0469402
 R(3)= 10.6518430 10.3530696  0.0000000  G(3)=  0.0469402  0.0482949 -0.0469402
 Unit cell volume ucvol=  2.3493550E+03 bohr^3
 Angles (23,13,12)=  5.95317583E+01  6.09364835E+01  5.95317583E+01 degrees

 Coarse grid specifications (used for wave-functions):

 getcut: wavevector=  0.0000  0.0000  0.0000  ngfft=  64  64  64
         ecut(hartree)=     21.160   => boxcut(ratio)=   2.05172

 Fine grid specifications (used for densities):

 getcut: wavevector=  0.0000  0.0000  0.0000  ngfft= 100 100 100
         ecut(hartree)=     52.900   => boxcut(ratio)=   2.02753

--- Pseudopotential description ------------------------------------------------
- pspini: atom type   1  psp file is ../../../Psps_for_tests/ATOMICDATA/Cs.GGA_PBE-JTH.xml
- pspatm: opening atomic psp file    ../../../Psps_for_tests/ATOMICDATA/Cs.GGA_PBE-JTH.xml
- pspatm : Reading pseudopotential header in XML form from ../../../Psps_for_tests/ATOMICDATA/Cs.GGA_PBE-JTH.xml
 Pseudopotential format is: paw10
 basis_size (lnmax)=  6 (lmn_size= 18), orbitals=   0   0   1   1   2   2
 Spheres core radius: rc_sph= 2.20660278
 1 radial meshes are used:
  - mesh 1: r(i)=AA*[exp(BB*(i-1))-1], size=1500 , AA= 0.15922E-03 BB= 0.87573E-02
 Shapefunction is SIN type: shapef(r)=[sin(pi*r/rshp)/(pi*r/rshp)]**2
 Radius for shape functions =  2.00394208
 mmax= 1500
 Radial grid used for partial waves is grid 1
 Radial grid used for projectors is grid 1
 Radial grid used for (t)core density is grid 1
 Radial grid used for Vloc is grid 1
 Radial grid used for pseudo valence density is grid 1
 Mesh size for Vloc has been set to 1341 to avoid numerical noise.
 Compensation charge density is not taken into account in XC energy/potential
 pspatm: atomic psp has been read  and splines computed

- pspini: atom type   2  psp file is ../../../Psps_for_tests/ATOMICDATA/I.GGA_PBE-JTH.xml
- pspatm: opening atomic psp file    ../../../Psps_for_tests/ATOMICDATA/I.GGA_PBE-JTH.xml
- pspatm : Reading pseudopotential header in XML form from ../../../Psps_for_tests/ATOMICDATA/I.GGA_PBE-JTH.xml
 Pseudopotential format is: paw10
 basis_size (lnmax)=  4 (lmn_size=  8), orbitals=   0   0   1   1
 Spheres core radius: rc_sph= 2.30022271
 1 radial meshes are used:
  - mesh 1: r(i)=AA*[exp(BB*(i-1))-1], size=2000 , AA= 0.12610E-03 BB= 0.66836E-02
 Shapefunction is SIN type: shapef(r)=[sin(pi*r/rshp)/(pi*r/rshp)]**2
 Radius for shape functions =  2.10879093
 mmax= 2000
 Radial grid used for partial waves is grid 1
 Radial grid used for projectors is grid 1
 Radial grid used for (t)core density is grid 1
 Radial grid used for Vloc is grid 1
 Radial grid used for pseudo valence density is grid 1
 Mesh size for Vloc has been set to 1792 to avoid numerical noise.
 Compensation charge density is not taken into account in XC energy/potential
 pspatm: atomic psp has been read  and splines computed

- pspini: atom type   3  psp file is ../../../Psps_for_tests/ATOMICDATA/Hf.GGA_PBE-JTH.xml
- pspatm: opening atomic psp file    ../../../Psps_for_tests/ATOMICDATA/Hf.GGA_PBE-JTH.xml
- pspatm : Reading pseudopotential header in XML form from ../../../Psps_for_tests/ATOMICDATA/Hf.GGA_PBE-JTH.xml
 Pseudopotential format is: paw10
 basis_size (lnmax)=  6 (lmn_size= 18), orbitals=   0   0   1   1   2   2
 Spheres core radius: rc_sph= 2.41000000
 1 radial meshes are used:
  - mesh 1: r(i)=AA*[exp(BB*(i-1))-1], size= 972 , AA= 0.19796E-03 BB= 0.14253E-01
 Shapefunction is SIN type: shapef(r)=[sin(pi*r/rshp)/(pi*r/rshp)]**2
 Radius for shape functions =  2.41000000
 mmax=  972
 Radial grid used for partial waves is grid 1
 Radial grid used for projectors is grid 1
 Radial grid used for (t)core density is grid 1
 Radial grid used for Vloc is grid 1
 Radial grid used for pseudo valence density is grid 1
 Mesh size for Vloc has been set to  809 to avoid numerical noise.
 Compensation charge density is not taken into account in XC energy/potential
 pspatm: atomic psp has been read  and splines computed

- pspini: atom type   4  psp file is ../../../Psps_for_tests/ATOMICDATA/Cl.GGA_PBE-JTH.xml
- pspatm: opening atomic psp file    ../../../Psps_for_tests/ATOMICDATA/Cl.GGA_PBE-JTH.xml
- pspatm : Reading pseudopotential header in XML form from ../../../Psps_for_tests/ATOMICDATA/Cl.GGA_PBE-JTH.xml
 Pseudopotential format is: paw10
 basis_size (lnmax)=  4 (lmn_size=  8), orbitals=   0   0   1   1
 Spheres core radius: rc_sph= 1.80315674
 1 radial meshes are used:
  - mesh 1: r(i)=AA*[exp(BB*(i-1))-1], size=1400 , AA= 0.50355E-03 BB= 0.85603E-02
 Shapefunction is SIN type: shapef(r)=[sin(pi*r/rshp)/(pi*r/rshp)]**2
 Radius for shape functions =  1.61320365
 mmax= 1400
 Radial grid used for partial waves is grid 1
 Radial grid used for projectors is grid 1
 Radial grid used for (t)core density is grid 1
 Radial grid used for Vloc is grid 1
 Radial grid used for pseudo valence density is grid 1
 Mesh size for Vloc has been set to 1238 to avoid numerical noise.
 Compensation charge density is not taken into account in XC energy/potential
 pspatm: atomic psp has been read  and splines computed

   4.43613238E+04                                ecore*ucvol(ha*bohr**3)
--------------------------------------------------------------------------------

_setup2: Arith. and geom. avg. npw (full set) are   10921.906   10921.897

================================================================================

=== [ionmov= 2] Broyden-Fletcher-Goldfard-Shanno method (forces)            
================================================================================

--- Iteration: (   1/1000) Internal Cycle: (1/1)
--------------------------------------------------------------------------------

---SELF-CONSISTENT-FIELD CONVERGENCE--------------------------------------------

--- !BeginCycle
iteration_state: {dtset: 1, itime: 1, icycle: 1, }
solver: {iscf: 17, nstep: 50, nline: 4, wfoptalg: 10, }
tolerances: {toldff: 1.00E-08, }
...

     iter   Etot(hartree)      deltaE(h)  residm     nres2    diffor    maxfor
 ETOT  1  -163.67474007292    -1.637E+02 3.981E+00 8.458E+00 2.551E-02 2.551E-02
 ETOT  2  -164.83734581494    -1.163E+00 2.988E-02 2.386E+00 3.760E-02 1.384E-02
 ETOT  3  -164.83142973798     5.916E-03 1.053E-02 4.320E-01 3.904E-02 2.935E-02
 ETOT  4  -164.83226856549    -8.388E-04 6.641E-03 1.011E-01 3.913E-02 9.785E-03
 ETOT  5  -164.83223415220     3.441E-05 2.977E-03 8.072E-03 1.470E-02 4.911E-03
 ETOT  6  -164.83228075529    -4.660E-05 1.670E-03 1.321E-03 4.917E-03 3.884E-04
 ETOT  7  -164.83229410170    -1.335E-05 1.033E-03 2.157E-04 2.991E-04 3.057E-04
 ETOT  8  -164.83229617147    -2.070E-06 5.297E-04 2.863E-05 2.177E-04 5.234E-04
 ETOT  9  -164.83229644988    -2.784E-07 6.864E-04 5.916E-06 7.566E-05 5.991E-04
 ETOT 10  -164.83229651029    -6.042E-08 4.390E-04 7.077E-07 3.483E-05 5.783E-04
 ETOT 11  -164.83229651580    -5.502E-09 6.367E-04 2.303E-07 2.670E-05 6.050E-04
 ETOT 12  -164.83229651725    -1.458E-09 3.657E-04 4.619E-08 9.703E-06 6.147E-04
 ETOT 13  -164.83229651736    -1.072E-10 4.689E-04 1.387E-08 4.553E-06 6.102E-04
 ETOT 14  -164.83229651742    -5.710E-11 2.382E-04 3.878E-09 3.474E-06 6.137E-04
 ETOT 15  -164.83229651739     2.385E-11 2.740E-04 1.116E-09 6.722E-07 6.138E-04
 ETOT 16  -164.83229651742    -2.277E-11 1.666E-04 7.539E-10 1.299E-06 6.151E-04
 ETOT 17  -164.83229651741     3.126E-12 1.367E-04 1.989E-10 4.772E-07 6.147E-04
 ETOT 18  -164.83229651742    -2.899E-12 1.089E-04 1.543E-12 1.141E-07 6.148E-04
 ETOT 19  -164.83229651741     4.945E-12 6.256E-05 1.315E-11 6.282E-08 6.147E-04
 ETOT 20  -164.83229651741    -2.359E-12 6.789E-05 5.321E-12 2.244E-08 6.148E-04
 ETOT 21  -164.83229651742    -1.222E-12 3.202E-05 4.373E-14 3.648E-08 6.148E-04
 ETOT 22  -164.83229651742    -3.382E-12 4.105E-05 1.642E-13 3.462E-09 6.148E-04
 ETOT 23  -164.83229651742    -3.752E-12 1.915E-05 6.172E-15 4.215E-09 6.148E-04

 At SCF step   23, forces are converged : 
  for the second time, max diff in force=  4.215E-09 < toldff=  1.000E-08

 Cartesian components of stress tensor (hartree/bohr^3)
  sigma(1 1)= -8.29688105E-05  sigma(3 2)= -1.46691687E-13
  sigma(2 2)= -8.32253583E-05  sigma(3 1)=  2.85153204E-13
  sigma(3 3)= -8.29688105E-05  sigma(2 1)= -1.46691653E-13


--- !ResultsGS
iteration_state: {dtset: 1, itime: 1, icycle: 1, }
comment   : Summary of ground state results
lattice_vectors:
- [  0.0000000,  10.3530696,  10.6518430, ]
- [ 10.6518430,   0.0000000,  10.6518430, ]
- [ 10.6518430,  10.3530696,   0.0000000, ]
lattice_lengths: [  14.85422,   15.06398,   14.85422, ]
lattice_angles: [ 59.532,  60.936,  59.532, ] # degrees, (23, 13, 12)
lattice_volume:   2.3493550E+03
convergence: {deltae: -3.752E-12, res2:  6.172E-15, residm:  1.915E-05, diffor:  4.215E-09, }
etotal    :  -1.64832297E+02
entropy   :   0.00000000E+00
fermie    :  -1.01553538E-01
cartesian_stress_tensor: # hartree/bohr^3
- [ -8.29688105E-05,  -1.46691653E-13,   2.85153204E-13, ]
- [ -1.46691653E-13,  -8.32253583E-05,  -1.46691687E-13, ]
- [  2.85153204E-13,  -1.46691687E-13,  -8.29688105E-05, ]
pressure_GPa:   2.4435E+00
xred      :
- [  2.4865E-01,   2.5135E-01,   2.4865E-01, Cs]
- [  7.4865E-01,   7.5135E-01,   7.4865E-01, Cs]
- [  7.7096E-01,   2.2904E-01,   7.7096E-01, Cl]
- [  2.5074E-01,   2.5208E-01,   7.4792E-01,  I]
- [  7.4792E-01,   7.4926E-01,   2.5074E-01,  I]
- [  2.5015E-01,   7.4985E-01,   2.5015E-01,  I]
- [  2.5074E-01,   7.4926E-01,   7.4792E-01,  I]
- [  7.4792E-01,   2.5208E-01,   2.5074E-01,  I]
- [ -8.7087E-03,   8.7087E-03,  -8.7087E-03, Hf]
cartesian_forces: # hartree/bohr
- [ -1.22861206E-20,  -8.91232060E-07,   9.89627401E-21, ]
- [ -1.24451603E-20,  -8.91232060E-07,   1.00553137E-20, ]
- [ -2.73605087E-20,  -6.14783677E-04,   2.49706620E-20, ]
- [  7.36394673E-15,   2.22622622E-05,   4.10828469E-04, ]
- [ -7.36393690E-15,   2.22622622E-05,  -4.10828469E-04, ]
- [ -4.10725939E-21,   4.12214508E-04,   1.71741276E-21, ]
- [ -4.10828469E-04,   2.22622622E-05,  -7.36394371E-15, ]
- [  4.10828469E-04,   2.22622622E-05,   7.36393924E-15, ]
- [ -9.44956815E-21,   1.15302585E-04,   7.05972151E-21, ]
force_length_stats: {min:   8.91232060E-07, max:   6.14783677E-04, mean:   3.09978674E-04, }
...

 Integrated electronic density in atomic spheres:
 ------------------------------------------------
 Atom  Sphere_radius  Integrated_density
    1        2.20660          5.36972529
    2        2.20660          5.36972529
    3        1.80316          4.35918376
    4        2.30022          4.03001099
    5        2.30022          4.03001099
    6        2.30022          4.02740642
    7        2.30022          4.03001099
    8        2.30022          4.03001099
    9        2.41000          9.31014585

 PAW TEST:
 ==== Compensation charge inside spheres ============
 The following values must be close to each other ...
 Compensation charge over spherical meshes =     -0.741522059925113
 Compensation charge over fine fft grid    =     -0.741519999259975

 ==== Results concerning PAW augmentation regions ====

 Total pseudopotential strength Dij (hartree):
 Atom #  1
   0.44349  -0.14684   0.00000   0.00000   0.00000  -0.00000   0.00000   0.00000   0.00000   0.00000   0.00000  -0.00000 ...
  -0.14684   0.04427  -0.00000   0.00000   0.00000   0.00000   0.00000   0.00000   0.00000   0.00000  -0.00000   0.00000 ...
   0.00000  -0.00000  -0.09396   0.00000   0.00000  -0.16635   0.00000   0.00000   0.00000   0.00000  -0.00000  -0.00000 ...
   0.00000   0.00000   0.00000  -0.09396  -0.00000   0.00000  -0.16635   0.00000  -0.00000   0.00000   0.00000   0.00000 ...
   0.00000   0.00000   0.00000  -0.00000  -0.09396   0.00000   0.00000  -0.16635   0.00000  -0.00000   0.00000   0.00000 ...
  -0.00000   0.00000  -0.16635   0.00000   0.00000   0.40502   0.00000   0.00000   0.00000   0.00000   0.00000   0.00000 ...
   0.00000   0.00000   0.00000  -0.16635   0.00000   0.00000   0.40502  -0.00001   0.00000  -0.00000   0.00000   0.00000 ...
   0.00000   0.00000   0.00000   0.00000  -0.16635   0.00000  -0.00001   0.40502  -0.00000   0.00000   0.00000   0.00000 ...
   0.00000   0.00000   0.00000  -0.00000   0.00000   0.00000   0.00000  -0.00000   0.00517  -0.00000   0.00000   0.00000 ...
   0.00000   0.00000   0.00000   0.00000  -0.00000   0.00000  -0.00000   0.00000  -0.00000   0.00517   0.00000   0.00000 ...
   0.00000  -0.00000  -0.00000   0.00000   0.00000   0.00000   0.00000   0.00000   0.00000   0.00000   0.00517  -0.00000 ...
  -0.00000   0.00000  -0.00000   0.00000   0.00000   0.00000   0.00000   0.00000   0.00000   0.00000  -0.00000   0.00517 ...
   ...  only 12  components have been written...
 Atom #  9
  -3.52443   0.43040  -0.00028   0.00000   0.00000   0.00005   0.00000   0.00000   0.00000   0.00000  -0.00009   0.00000 ...
   0.43040   0.00245   0.00004   0.00000   0.00000  -0.00001   0.00000   0.00000   0.00000   0.00000   0.00001   0.00000 ...
  -0.00028   0.00004  -1.46555   0.00000   0.00000   0.12532   0.00000   0.00000   0.00000   0.00000   0.00006   0.00000 ...
   0.00000   0.00000   0.00000  -1.46614   0.00000   0.00000   0.12542   0.00000   0.00000  -0.00011   0.00000   0.00000 ...
   0.00000   0.00000   0.00000   0.00000  -1.46614   0.00000   0.00000   0.12542  -0.00011   0.00000   0.00000   0.00000 ...
   0.00005  -0.00001   0.12532   0.00000   0.00000   0.01308   0.00000   0.00000   0.00000   0.00000  -0.00001   0.00000 ...
   0.00000   0.00000   0.00000   0.12542   0.00000   0.00000   0.01306   0.00000   0.00000   0.00002   0.00000   0.00000 ...
   0.00000   0.00000   0.00000   0.00000   0.12542   0.00000   0.00000   0.01306   0.00002   0.00000   0.00000   0.00000 ...
   0.00000   0.00000   0.00000   0.00000  -0.00011   0.00000   0.00000   0.00002  -0.39586   0.00000   0.00000   0.00000 ...
   0.00000   0.00000   0.00000  -0.00011   0.00000   0.00000   0.00002   0.00000   0.00000  -0.39586   0.00000   0.00000 ...
  -0.00009   0.00001   0.00006   0.00000   0.00000  -0.00001   0.00000   0.00000   0.00000   0.00000  -0.39526   0.00000 ...
   0.00000   0.00000   0.00000   0.00000   0.00000   0.00000   0.00000   0.00000   0.00000   0.00000   0.00000  -0.39597 ...
   ...  only 12  components have been written...


 Augmentation waves occupancies Rhoij:
 Atom #  1
   1.99772  -0.01457   0.00001   0.00000   0.00000   0.00000   0.00000   0.00000   0.00000   0.00000   0.00057  -0.00344 ...
  -0.01457   0.18223   0.00012   0.00000   0.00000  -0.00001   0.00000   0.00000   0.00000   0.00000  -0.00742   0.01726 ...
   0.00001   0.00012   2.00785   0.00000   0.00000  -0.00515   0.00000   0.00000   0.00000   0.00000  -0.00011  -0.00130 ...
   0.00000   0.00000   0.00000   2.00678   0.00189   0.00000  -0.00493  -0.00032  -0.00151  -0.00008   0.00000   0.00000 ...
   0.00000   0.00000   0.00000   0.00189   2.00678   0.00000  -0.00032  -0.00493  -0.00008  -0.00151   0.00000   0.00000 ...
   0.00000  -0.00001  -0.00515   0.00000   0.00000   0.00015   0.00000   0.00000   0.00000   0.00000   0.00001   0.00004 ...
   0.00000   0.00000   0.00000  -0.00493  -0.00032   0.00000   0.00013   0.00002   0.00005   0.00001   0.00000   0.00000 ...
   0.00000   0.00000   0.00000  -0.00032  -0.00493   0.00000   0.00002   0.00013   0.00001   0.00005   0.00000   0.00000 ...
   0.00000   0.00000   0.00000  -0.00151  -0.00008   0.00000   0.00005   0.00001   0.07276   0.00022   0.00000   0.00000 ...
   0.00000   0.00000   0.00000  -0.00008  -0.00151   0.00000   0.00001   0.00005   0.00022   0.07276   0.00000   0.00000 ...
   0.00057  -0.00742  -0.00011   0.00000   0.00000   0.00001   0.00000   0.00000   0.00000   0.00000   0.04620   0.00772 ...
  -0.00344   0.01726  -0.00130   0.00000   0.00000   0.00004   0.00000   0.00000   0.00000   0.00000   0.00772   0.04384 ...
   ...  only 12  components have been written...
 Atom #  9
   1.99799  -0.02019  -0.00003   0.00000   0.00000   0.00030   0.00000   0.00000   0.00000   0.00000  -0.00024   0.00000 ...
  -0.02019   1.01312   0.00263   0.00000   0.00000  -0.04193   0.00000   0.00000   0.00000   0.00000  -0.02281   0.00000 ...
  -0.00003   0.00263   1.99266   0.00000   0.00000  -0.06309   0.00000   0.00000   0.00000   0.00000   0.00023   0.00000 ...
   0.00000   0.00000   0.00000   1.99308   0.00000   0.00000  -0.05745   0.00000   0.00000  -0.00169   0.00000   0.00000 ...
   0.00000   0.00000   0.00000   0.00000   1.99308   0.00000   0.00000  -0.05745  -0.00169   0.00000   0.00000   0.00000 ...
   0.00030  -0.04193  -0.06309   0.00000   0.00000   1.39697   0.00000   0.00000   0.00000   0.00000   0.08910   0.00000 ...
   0.00000   0.00000   0.00000  -0.05745   0.00000   0.00000   1.20515   0.00000   0.00000   0.03615   0.00000   0.00000 ...
   0.00000   0.00000   0.00000   0.00000  -0.05745   0.00000   0.00000   1.20515   0.03615   0.00000   0.00000   0.00000 ...
   0.00000   0.00000   0.00000   0.00000  -0.00169   0.00000   0.00000   0.03615   0.50218   0.00000   0.00000   0.00000 ...
   0.00000   0.00000   0.00000  -0.00169   0.00000   0.00000   0.03615   0.00000   0.00000   0.50218   0.00000   0.00000 ...
  -0.00024  -0.02281   0.00023   0.00000   0.00000   0.08910   0.00000   0.00000   0.00000   0.00000   1.41870   0.00000 ...
   0.00000   0.00000   0.00000   0.00000   0.00000   0.00000   0.00000   0.00000   0.00000   0.00000   0.00000   0.45958 ...
   ...  only 12  components have been written...



---OUTPUT-----------------------------------------------------------------------

 Cartesian coordinates (xcart) [bohr]
  5.32592147618683E+00  5.14852681029320E+00  5.32592147618683E+00
  1.59777644285615E+01  1.55015963996803E+01  1.59777644285615E+01
  1.06518429524782E+01  1.59635374383302E+01  1.06518429524782E+01
  1.06518429524694E+01  1.03392363730369E+01  5.35601013609922E+00
  1.06518429522795E+01  1.03392363730369E+01  1.59476757686497E+01
  1.06518429522793E+01  5.17971827724770E+00  1.06518429522793E+01
  1.59476757686497E+01  1.03392363730369E+01  1.06518429522795E+01
  5.35601013609922E+00  1.03392363730369E+01  1.06518429524694E+01
 -3.32553750541360E-12 -1.80324074263606E-01 -3.32553750541360E-12
 Reduced coordinates (xred)
  2.48647358440000E-01  2.51352641560000E-01  2.48647358440000E-01
  7.48647358440000E-01  7.51352641560000E-01  7.48647358440000E-01
  7.70956734160000E-01  2.29043265840000E-01  7.70956734160000E-01
  2.50744295550000E-01  2.52080441920000E-01  7.47919558080000E-01
  7.47919558080000E-01  7.49255704450000E-01  2.50744295550000E-01
  2.50153745830000E-01  7.49846254170000E-01  2.50153745830000E-01
  2.50744295550000E-01  7.49255704450000E-01  7.47919558080000E-01
  7.47919558080000E-01  2.52080441920000E-01  2.50744295550000E-01
 -8.70872511320000E-03  8.70872511320000E-03 -8.70872511320000E-03
 Cartesian forces (fcart) [Ha/bohr]; max,rms= 6.14784E-04 2.14155E-04 (free atoms)
 -1.22861206466872E-20 -8.91232060403046E-07  9.89627401272150E-21
 -1.24451603454560E-20 -8.91232060403046E-07  1.00553137114903E-20
 -2.73605086515781E-20 -6.14783677292017E-04  2.49706620176125E-20
  7.36394672853279E-15  2.22622621983884E-05  4.10828469382162E-04
 -7.36393689767324E-15  2.22622622135412E-05 -4.10828469382162E-04
 -4.10725939085796E-21  4.12214507884434E-04  1.71741275689228E-21
 -4.10828469382162E-04  2.22622622135412E-05 -7.36394371495914E-15
  4.10828469382162E-04  2.22622621983883E-05  7.36393924051097E-15
 -9.44956814745359E-21  1.15302584704530E-04  7.05972151348792E-21
 Reduced forces (fred)
  9.22698754164549E-06  2.54562710248074E-20  9.22698754164572E-06
  9.22698754164549E-06  2.54562710248074E-20  9.22698754164573E-06
  6.36489819342356E-03  2.54562710248073E-20  6.36489819342356E-03
 -4.60656308605880E-03 -4.37608033622326E-03 -2.30482749835536E-04
  4.14559758638773E-03  4.37608033622326E-03 -2.30482749835536E-04
 -4.26768548588251E-03  2.54562710248074E-20 -4.26768548588251E-03
 -2.30482749835536E-04  4.37608033622326E-03  4.14559758638773E-03
 -2.30482749835536E-04 -4.37608033622326E-03 -4.60656308605880E-03
 -1.19373568328220E-03  2.54562710248074E-20 -1.19373568328220E-03
 Scale of Primitive Cell (acell) [bohr]
  1.48542185323800E+01  1.50639807671730E+01  1.48542185323800E+01
 Real space primitive translations (rprimd) [bohr]
  0.00000000000000E+00  1.03530695893871E+01  1.06518429525656E+01
  1.06518429521838E+01  0.00000000000000E+00  1.06518429521838E+01
  1.06518429525656E+01  1.03530695893871E+01  0.00000000000000E+00
 Unitary Cell Volume (ucvol) [Bohr^3]=  2.34935495845666E+03
 Angles (23,13,12)= [degrees]
  5.95317582674896E+01  6.09364834650207E+01  5.95317582674896E+01
 Lengths [Bohr]
  1.48542185324175E+01  1.50639807672465E+01  1.48542185324175E+01
 Stress tensor in cartesian coordinates (strten) [Ha/bohr^3]
 -8.29688105424692E-05 -1.46691653278438E-13  2.85153203926301E-13
 -1.46691653278438E-13 -8.32253583192555E-05 -1.46691687459298E-13
  2.85153203926301E-13 -1.46691687459298E-13 -8.29688105424692E-05
 Total energy (etotal) [Ha]= -1.64832296517423E+02

--- Iteration: (   2/1000) Internal Cycle: (1/1)
--------------------------------------------------------------------------------

---SELF-CONSISTENT-FIELD CONVERGENCE--------------------------------------------

--- !BeginCycle
iteration_state: {dtset: 1, itime: 2, icycle: 1, }
solver: {iscf: 17, nstep: 50, nline: 4, wfoptalg: 10, }
tolerances: {toldff: 1.00E-08, }
...

     iter   Etot(hartree)      deltaE(h)  residm     nres2    diffor    maxfor
 ETOT  1  -164.83229972450    -1.648E+02 1.289E-05 3.569E-04 2.402E-03 3.016E-03
 ETOT  2  -164.83229784086     1.884E-06 6.936E-06 4.287E-05 2.595E-03 4.216E-04
 ETOT  3  -164.83229767473     1.661E-07 8.564E-06 3.579E-06 3.367E-04 7.583E-04
 ETOT  4  -164.83229766673     8.000E-09 4.016E-06 7.643E-07 2.109E-04 5.474E-04
 ETOT  5  -164.83229766904    -2.305E-09 5.023E-06 2.703E-07 1.853E-05 5.529E-04
 ETOT  6  -164.83229767091    -1.871E-09 2.348E-06 4.011E-08 2.303E-05 5.298E-04
 ETOT  7  -164.83229767111    -1.985E-10 2.941E-06 1.988E-08 2.025E-06 5.318E-04
 ETOT  8  -164.83229767155    -4.432E-10 1.504E-06 2.129E-09 4.107E-06 5.277E-04
 ETOT  9  -164.83229767148     6.995E-11 1.723E-06 6.324E-10 4.932E-07 5.273E-04
 ETOT 10  -164.83229767134     1.451E-10 1.108E-06 3.081E-10 6.599E-07 5.267E-04
 ETOT 11  -164.83229767128     5.826E-11 1.010E-06 3.119E-11 3.027E-07 5.269E-04
 ETOT 12  -164.83229767118     9.697E-11 8.168E-07 4.479E-11 1.188E-07 5.268E-04
 ETOT 13  -164.83229767114     3.999E-11 7.013E-07 1.629E-12 9.070E-08 5.267E-04
 ETOT 14  -164.83229767112     1.688E-11 6.029E-07 1.900E-12 1.302E-08 5.267E-04
 ETOT 15  -164.83229767111     1.060E-11 5.177E-07 5.380E-14 2.291E-08 5.267E-04
 ETOT 16  -164.83229767110     1.160E-11 5.480E-07 6.517E-14 6.166E-09 5.267E-04
 ETOT 17  -164.83229767109     8.868E-12 4.481E-07 1.292E-14 1.671E-09 5.267E-04

 At SCF step   17, forces are converged : 
  for the second time, max diff in force=  1.671E-09 < toldff=  1.000E-08

 Cartesian components of stress tensor (hartree/bohr^3)
  sigma(1 1)= -8.28180226E-05  sigma(3 2)= -1.46697408E-13
  sigma(2 2)= -8.29968049E-05  sigma(3 1)=  2.85162226E-13
  sigma(3 3)= -8.28180226E-05  sigma(2 1)= -1.46693851E-13


--- !ResultsGS
iteration_state: {dtset: 1, itime: 2, icycle: 1, }
comment   : Summary of ground state results
lattice_vectors:
- [  0.0000000,  10.3531227,  10.6518156, ]
- [ 10.6518156,   0.0000000,  10.6518156, ]
- [ 10.6518156,  10.3531227,   0.0000000, ]
lattice_lengths: [  14.85424,   15.06394,   14.85424, ]
lattice_angles: [ 59.532,  60.936,  59.532, ] # degrees, (23, 13, 12)
lattice_volume:   2.3493550E+03
convergence: {deltae:  8.868E-12, res2:  1.292E-14, residm:  4.481E-07, diffor:  1.671E-09, }
etotal    :  -1.64832298E+02
entropy   :   0.00000000E+00
fermie    :  -1.01555849E-01
cartesian_stress_tensor: # hartree/bohr^3
- [ -8.28180226E-05,  -1.46693851E-13,   2.85162226E-13, ]
- [ -1.46693851E-13,  -8.29968049E-05,  -1.46697408E-13, ]
- [  2.85162226E-13,  -1.46697408E-13,  -8.28180226E-05, ]
pressure_GPa:   2.4383E+00
xred      :
- [  2.4865E-01,   2.5135E-01,   2.4865E-01, Cs]
- [  7.4865E-01,   7.5135E-01,   7.4865E-01, Cs]
- [  7.7093E-01,   2.2907E-01,   7.7093E-01, Cl]
- [  2.5076E-01,   2.5210E-01,   7.4790E-01,  I]
- [  7.4790E-01,   7.4924E-01,   2.5076E-01,  I]
- [  2.5017E-01,   7.4983E-01,   2.5017E-01,  I]
- [  2.5076E-01,   7.4924E-01,   7.4790E-01,  I]
- [  7.4790E-01,   2.5210E-01,   2.5076E-01,  I]
- [ -8.7032E-03,   8.7032E-03,  -8.7032E-03, Hf]
cartesian_forces: # hartree/bohr
- [ -6.26420216E-22,  -5.75808378E-07,  -2.93167746E-21, ]
- [ -6.26420216E-22,  -5.75808378E-07,  -2.93167746E-21, ]
- [ -9.21066974E-20,  -5.26734352E-04,   8.85485997E-20, ]
- [  6.53861344E-15,   2.26889065E-05,   3.64780695E-04, ]
- [ -6.53860032E-15,   2.26889065E-05,  -3.64780695E-04, ]
- [  5.77762422E-20,   3.63810448E-04,  -6.13343399E-20, ]
- [ -3.64780695E-04,   2.26889065E-05,  -6.53857932E-15, ]
- [  3.64780695E-04,   2.26889065E-05,   6.53861076E-15, ]
- [  7.92880407E-21,   7.33198947E-05,  -1.14869017E-20, ]
force_length_stats: {min:   5.75808378E-07, max:   5.26734352E-04, mean:   2.69662090E-04, }
...

 Integrated electronic density in atomic spheres:
 ------------------------------------------------
 Atom  Sphere_radius  Integrated_density
    1        2.20660          5.36972580
    2        2.20660          5.36972580
    3        1.80316          4.35919681
    4        2.30022          4.02956180
    5        2.30022          4.02956180
    6        2.30022          4.02741878
    7        2.30022          4.02956180
    8        2.30022          4.02956180
    9        2.41000          9.30979943

 PAW TEST:
 ==== Compensation charge inside spheres ============
 The following values must be close to each other ...
 Compensation charge over spherical meshes =     -0.741554220531828
 Compensation charge over fine fft grid    =     -0.741552083017303

 ==== Results concerning PAW augmentation regions ====

 Total pseudopotential strength Dij (hartree):
 Atom #  1
   0.44348  -0.14684   0.00000   0.00000   0.00000  -0.00000   0.00000   0.00000   0.00000   0.00000   0.00000  -0.00000 ...
  -0.14684   0.04427  -0.00000   0.00000   0.00000   0.00000   0.00000   0.00000   0.00000   0.00000  -0.00000   0.00000 ...
   0.00000  -0.00000  -0.09396   0.00000   0.00000  -0.16635   0.00000   0.00000   0.00000   0.00000  -0.00000  -0.00000 ...
   0.00000   0.00000   0.00000  -0.09396  -0.00000   0.00000  -0.16635   0.00000  -0.00000   0.00000   0.00000   0.00000 ...
   0.00000   0.00000   0.00000  -0.00000  -0.09396   0.00000   0.00000  -0.16635   0.00000  -0.00000   0.00000   0.00000 ...
  -0.00000   0.00000  -0.16635   0.00000   0.00000   0.40502   0.00000   0.00000   0.00000   0.00000   0.00000   0.00000 ...
   0.00000   0.00000   0.00000  -0.16635   0.00000   0.00000   0.40502  -0.00001   0.00000  -0.00000   0.00000   0.00000 ...
   0.00000   0.00000   0.00000   0.00000  -0.16635   0.00000  -0.00001   0.40502  -0.00000   0.00000   0.00000   0.00000 ...
   0.00000   0.00000   0.00000  -0.00000   0.00000   0.00000   0.00000  -0.00000   0.00517  -0.00000   0.00000   0.00000 ...
   0.00000   0.00000   0.00000   0.00000  -0.00000   0.00000  -0.00000   0.00000  -0.00000   0.00517   0.00000   0.00000 ...
   0.00000  -0.00000  -0.00000   0.00000   0.00000   0.00000   0.00000   0.00000   0.00000   0.00000   0.00517  -0.00000 ...
  -0.00000   0.00000  -0.00000   0.00000   0.00000   0.00000   0.00000   0.00000   0.00000   0.00000  -0.00000   0.00517 ...
   ...  only 12  components have been written...
 Atom #  9
  -3.52445   0.43040  -0.00028   0.00000   0.00000   0.00005   0.00000   0.00000   0.00000   0.00000  -0.00008   0.00000 ...
   0.43040   0.00245   0.00004   0.00000   0.00000  -0.00001   0.00000   0.00000   0.00000   0.00000   0.00001   0.00000 ...
  -0.00028   0.00004  -1.46558   0.00000   0.00000   0.12532   0.00000   0.00000   0.00000   0.00000   0.00006   0.00000 ...
   0.00000   0.00000   0.00000  -1.46617   0.00000   0.00000   0.12542   0.00000   0.00000  -0.00011   0.00000   0.00000 ...
   0.00000   0.00000   0.00000   0.00000  -1.46617   0.00000   0.00000   0.12542  -0.00011   0.00000   0.00000   0.00000 ...
   0.00005  -0.00001   0.12532   0.00000   0.00000   0.01308   0.00000   0.00000   0.00000   0.00000  -0.00001   0.00000 ...
   0.00000   0.00000   0.00000   0.12542   0.00000   0.00000   0.01306   0.00000   0.00000   0.00002   0.00000   0.00000 ...
   0.00000   0.00000   0.00000   0.00000   0.12542   0.00000   0.00000   0.01306   0.00002   0.00000   0.00000   0.00000 ...
   0.00000   0.00000   0.00000   0.00000  -0.00011   0.00000   0.00000   0.00002  -0.39586   0.00000   0.00000   0.00000 ...
   0.00000   0.00000   0.00000  -0.00011   0.00000   0.00000   0.00002   0.00000   0.00000  -0.39586   0.00000   0.00000 ...
  -0.00008   0.00001   0.00006   0.00000   0.00000  -0.00001   0.00000   0.00000   0.00000   0.00000  -0.39527   0.00000 ...
   0.00000   0.00000   0.00000   0.00000   0.00000   0.00000   0.00000   0.00000   0.00000   0.00000   0.00000  -0.39598 ...
   ...  only 12  components have been written...


 Augmentation waves occupancies Rhoij:
 Atom #  1
   1.99772  -0.01457   0.00001   0.00000   0.00000   0.00000   0.00000   0.00000   0.00000   0.00000   0.00057  -0.00344 ...
  -0.01457   0.18223   0.00012   0.00000   0.00000  -0.00001   0.00000   0.00000   0.00000   0.00000  -0.00741   0.01725 ...
   0.00001   0.00012   2.00785   0.00000   0.00000  -0.00515   0.00000   0.00000   0.00000   0.00000  -0.00011  -0.00130 ...
   0.00000   0.00000   0.00000   2.00678   0.00189   0.00000  -0.00493  -0.00032  -0.00151  -0.00008   0.00000   0.00000 ...
   0.00000   0.00000   0.00000   0.00189   2.00678   0.00000  -0.00032  -0.00493  -0.00008  -0.00151   0.00000   0.00000 ...
   0.00000  -0.00001  -0.00515   0.00000   0.00000   0.00015   0.00000   0.00000   0.00000   0.00000   0.00001   0.00004 ...
   0.00000   0.00000   0.00000  -0.00493  -0.00032   0.00000   0.00013   0.00002   0.00005   0.00001   0.00000   0.00000 ...
   0.00000   0.00000   0.00000  -0.00032  -0.00493   0.00000   0.00002   0.00013   0.00001   0.00005   0.00000   0.00000 ...
   0.00000   0.00000   0.00000  -0.00151  -0.00008   0.00000   0.00005   0.00001   0.07275   0.00022   0.00000   0.00000 ...
   0.00000   0.00000   0.00000  -0.00008  -0.00151   0.00000   0.00001   0.00005   0.00022   0.07275   0.00000   0.00000 ...
   0.00057  -0.00741  -0.00011   0.00000   0.00000   0.00001   0.00000   0.00000   0.00000   0.00000   0.04619   0.00772 ...
  -0.00344   0.01725  -0.00130   0.00000   0.00000   0.00004   0.00000   0.00000   0.00000   0.00000   0.00772   0.04384 ...
   ...  only 12  components have been written...
 Atom #  9
   1.99798  -0.02020  -0.00003   0.00000   0.00000   0.00030   0.00000   0.00000   0.00000   0.00000  -0.00024   0.00000 ...
  -0.02020   1.01297   0.00263   0.00000   0.00000  -0.04174   0.00000   0.00000   0.00000   0.00000  -0.02274   0.00000 ...
  -0.00003   0.00263   1.99265   0.00000   0.00000  -0.06315   0.00000   0.00000   0.00000   0.00000   0.00023   0.00000 ...
   0.00000   0.00000   0.00000   1.99308   0.00000   0.00000  -0.05750   0.00000   0.00000  -0.00169   0.00000   0.00000 ...
   0.00000   0.00000   0.00000   0.00000   1.99308   0.00000   0.00000  -0.05750  -0.00169   0.00000   0.00000   0.00000 ...
   0.00030  -0.04174  -0.06315   0.00000   0.00000   1.39614   0.00000   0.00000   0.00000   0.00000   0.08887   0.00000 ...
   0.00000   0.00000   0.00000  -0.05750   0.00000   0.00000   1.20474   0.00000   0.00000   0.03616   0.00000   0.00000 ...
   0.00000   0.00000   0.00000   0.00000  -0.05750   0.00000   0.00000   1.20474   0.03616   0.00000   0.00000   0.00000 ...
   0.00000   0.00000   0.00000   0.00000  -0.00169   0.00000   0.00000   0.03616   0.50188   0.00000   0.00000   0.00000 ...
   0.00000   0.00000   0.00000  -0.00169   0.00000   0.00000   0.03616   0.00000   0.00000   0.50188   0.00000   0.00000 ...
  -0.00024  -0.02274   0.00023   0.00000   0.00000   0.08887   0.00000   0.00000   0.00000   0.00000   1.41808   0.00000 ...
   0.00000   0.00000   0.00000   0.00000   0.00000   0.00000   0.00000   0.00000   0.00000   0.00000   0.00000   0.45941 ...
   ...  only 12  components have been written...



---OUTPUT-----------------------------------------------------------------------

 Cartesian coordinates (xcart) [bohr]
  5.32590781268875E+00  5.14855233595259E+00  5.32590781268875E+00
  1.59777234380673E+01  1.55016750465476E+01  1.59777234380673E+01
  1.06518156254820E+01  1.59630045598043E+01  1.06518156254820E+01
  1.06518156254732E+01  1.03393116856435E+01  5.35640722282496E+00
  1.06518156252833E+01  1.03393116856435E+01  1.59472240279316E+01
  1.06518156252831E+01  5.18015707080890E+00  1.06518156252831E+01
  1.59472240279316E+01  1.03393116856435E+01  1.06518156252833E+01
  5.35640722282496E+00  1.03393116856435E+01  1.06518156254732E+01
 -3.32162456344678E-12 -1.80209696323283E-01 -3.32164002335851E-12
 Reduced coordinates (xred)
  2.48647315398076E-01  2.51352684601924E-01  2.48647315398076E-01
  7.48647315398076E-01  7.51352684601924E-01  7.48647315398076E-01
  7.70927043271129E-01  2.29072956728871E-01  7.70927043271129E-01
  2.50764655087196E-01  2.52098651151723E-01  7.47901348848278E-01
  7.47901348848278E-01  7.49235344912804E-01  2.50764655087196E-01
  2.50173653670101E-01  7.49826346329899E-01  2.50173653670101E-01
  2.50764655087196E-01  7.49235344912804E-01  7.47901348848278E-01
  7.47901348848278E-01  2.52098651151723E-01  2.50764655087196E-01
 -8.70315659153076E-03  8.70315659153092E-03 -8.70315659153076E-03
 Cartesian forces (fcart) [Ha/bohr]; max,rms= 5.26734E-04 1.87528E-04 (free atoms)
 -6.26420215788585E-22 -5.75808377940045E-07 -2.93167745636628E-21
 -6.26420215788585E-22 -5.75808377940045E-07 -2.93167745636628E-21
 -9.21066973659171E-20 -5.26734351811179E-04  8.85485996937622E-20
  6.53861344223274E-15  2.26889065108920E-05  3.64780695249841E-04
 -6.53860032490851E-15  2.26889065243465E-05 -3.64780695249841E-04
  5.77762422019721E-20  3.63810447803522E-04 -6.13343398741270E-20
 -3.64780695249841E-04  2.26889065243465E-05 -6.53857931579445E-15
  3.64780695249841E-04  2.26889065108920E-05  6.53861076191326E-15
  7.92880407199467E-21  7.33198946930608E-05 -1.14869017441495E-20
 Reduced forces (fred)
  5.96141479460197E-06  3.79002003802028E-20  5.96141479460195E-06
  5.96141479460197E-06  3.79002003802028E-20  5.96141479460195E-06
  5.45334538018685E-03  3.79002003802026E-20  5.45334538018685E-03
 -4.12047774284483E-03 -3.88557670949870E-03 -2.34901033346130E-04
  3.65067567615257E-03  3.88557670949870E-03 -2.34901033346130E-04
 -3.76657420950637E-03  3.79002003802027E-20 -3.76657420950637E-03
 -2.34901033346131E-04  3.88557670949870E-03  3.65067567615257E-03
 -2.34901033346130E-04 -3.88557670949870E-03 -4.12047774284483E-03
 -7.59089866885160E-04  3.79002003802027E-20 -7.59089866885160E-04
 Scale of Primitive Cell (acell) [bohr]
  1.48542359608888E+01  1.50639421210379E+01  1.48542359608888E+01
 Real space primitive translations (rprimd) [bohr]
  0.00000000000000E+00  1.03531227105950E+01  1.06518156255695E+01
  1.06518156251876E+01  0.00000000000000E+00  1.06518156251876E+01
  1.06518156255694E+01  1.03531227105950E+01  0.00000000000000E+00
 Unitary Cell Volume (ucvol) [Bohr^3]=  2.34935495845666E+03
 Angles (23,13,12)= [degrees]
  5.95318842901700E+01  6.09362314196600E+01  5.95318842901700E+01
 Lengths [Bohr]
  1.48542359608888E+01  1.50639421210379E+01  1.48542359608888E+01
 Stress tensor in cartesian coordinates (strten) [Ha/bohr^3]
 -8.28180225941177E-05 -1.46693851171726E-13  2.85162225913229E-13
 -1.46693851171726E-13 -8.29968048600936E-05 -1.46697408324749E-13
  2.85162225913229E-13 -1.46697408324749E-13 -8.28180225941159E-05
 Total energy (etotal) [Ha]= -1.64832297671093E+02

 Difference of energy with previous step (new-old):
           Absolute (Ha)=-1.15367E-06
           Relative     =-6.99905E-09

--- Iteration: (   3/1000) Internal Cycle: (1/1)
--------------------------------------------------------------------------------

---SELF-CONSISTENT-FIELD CONVERGENCE--------------------------------------------

--- !BeginCycle
iteration_state: {dtset: 1, itime: 3, icycle: 1, }
solver: {iscf: 17, nstep: 50, nline: 4, wfoptalg: 10, }
tolerances: {toldff: 1.00E-08, }
...

     iter   Etot(hartree)      deltaE(h)  residm     nres2    diffor    maxfor
 ETOT  1  -164.83240164861    -1.648E+02 3.692E+00 1.770E-02 1.696E-02 1.749E-02
 ETOT  2  -164.83231065852     9.099E-05 3.984E-01 2.300E-03 1.858E-02 1.092E-03
 ETOT  3  -164.83230156675     9.092E-06 5.084E-02 1.954E-04 2.678E-03 1.587E-03
 ETOT  4  -164.83230136283     2.039E-07 2.893E-03 4.057E-05 1.549E-03 9.090E-05
 ETOT  5  -164.83230140783    -4.500E-08 2.989E-04 1.394E-05 1.476E-04 1.788E-04
 ETOT  6  -164.83230144766    -3.983E-08 7.349E-05 2.112E-06 1.613E-04 1.967E-04
 ETOT  7  -164.83230145528    -7.618E-09 1.160E-04 1.041E-06 1.665E-05 1.823E-04
 ETOT  8  -164.83230146531    -1.004E-08 3.262E-05 1.119E-07 2.894E-05 1.757E-04
 ETOT  9  -164.83230146507     2.449E-10 4.472E-05 3.047E-08 3.967E-06 1.796E-04
 ETOT 10  -164.83230146450     5.703E-10 1.148E-05 1.802E-08 4.542E-06 1.826E-04
 ETOT 11  -164.83230146405     4.449E-10 1.690E-05 1.795E-09 2.236E-06 1.803E-04
 ETOT 12  -164.83230146342     6.347E-10 4.239E-06 2.662E-09 9.407E-07 1.794E-04
 ETOT 13  -164.83230146313     2.843E-10 6.265E-06 1.428E-10 6.631E-07 1.800E-04
 ETOT 14  -164.83230146301     1.216E-10 1.554E-06 6.414E-11 1.014E-07 1.801E-04
 ETOT 15  -164.83230146290     1.172E-10 2.270E-06 3.802E-12 1.183E-07 1.800E-04
 ETOT 16  -164.83230146282     7.526E-11 5.633E-07 1.906E-12 3.247E-08 1.800E-04
 ETOT 17  -164.83230146277     5.076E-11 8.178E-07 9.890E-13 2.794E-09 1.800E-04
 ETOT 18  -164.83230146274     3.240E-11 2.031E-07 1.701E-13 1.114E-08 1.800E-04
 ETOT 19  -164.83230146270     4.101E-11 2.925E-07 1.518E-13 3.470E-10 1.800E-04
 ETOT 20  -164.83230146268     2.035E-11 1.639E-07 1.144E-14 4.982E-09 1.800E-04

 At SCF step   20, forces are converged : 
  for the second time, max diff in force=  4.982E-09 < toldff=  1.000E-08

 Cartesian components of stress tensor (hartree/bohr^3)
  sigma(1 1)= -8.17402436E-05  sigma(3 2)= -1.46711708E-13
  sigma(2 2)= -8.14308038E-05  sigma(3 1)=  2.85208090E-13
  sigma(3 3)= -8.17402436E-05  sigma(2 1)= -1.46711365E-13


--- !ResultsGS
iteration_state: {dtset: 1, itime: 3, icycle: 1, }
comment   : Summary of ground state results
lattice_vectors:
- [  0.0000000,  10.3534214,  10.6516620, ]
- [ 10.6516620,   0.0000000,  10.6516620, ]
- [ 10.6516620,  10.3534214,   0.0000000, ]
lattice_lengths: [  14.85433,   15.06372,   14.85433, ]
lattice_angles: [ 59.533,  60.935,  59.533, ] # degrees, (23, 13, 12)
lattice_volume:   2.3493550E+03
convergence: {deltae:  2.035E-11, res2:  1.144E-14, residm:  1.639E-07, diffor:  4.982E-09, }
etotal    :  -1.64832301E+02
entropy   :   0.00000000E+00
fermie    :  -1.01564532E-01
cartesian_stress_tensor: # hartree/bohr^3
- [ -8.17402436E-05,  -1.46711365E-13,   2.85208090E-13, ]
- [ -1.46711365E-13,  -8.14308038E-05,  -1.46711708E-13, ]
- [  2.85208090E-13,  -1.46711708E-13,  -8.17402436E-05, ]
pressure_GPa:   2.4018E+00
xred      :
- [  2.4865E-01,   2.5135E-01,   2.4865E-01, Cs]
- [  7.4865E-01,   7.5135E-01,   7.4865E-01, Cs]
- [  7.7072E-01,   2.2928E-01,   7.7072E-01, Cl]
- [  2.5091E-01,   2.5223E-01,   7.4777E-01,  I]
- [  7.4777E-01,   7.4909E-01,   2.5091E-01,  I]
- [  2.5032E-01,   7.4968E-01,   2.5032E-01,  I]
- [  2.5091E-01,   7.4909E-01,   7.4777E-01,  I]
- [  7.4777E-01,   2.5223E-01,   2.5091E-01,  I]
- [ -8.6746E-03,   8.6746E-03,  -8.6746E-03, Hf]
cartesian_forces: # hartree/bohr
- [ -1.17614688E-21,   1.26311802E-06,   2.07268566E-21, ]
- [ -5.40872166E-22,   1.26311802E-06,   1.43741095E-21, ]
- [ -8.38228125E-22,   6.64264409E-05,   1.73476691E-21, ]
- [  6.38099936E-16,   2.44060531E-05,   3.55979373E-05, ]
- [ -6.38093262E-16,   2.44060531E-05,  -3.55979373E-05, ]
- [ -9.63294863E-22,   1.34432334E-05,   1.85983365E-21, ]
- [ -3.55979373E-05,   2.44060531E-05,  -6.38097440E-16, ]
- [  3.55979373E-05,   2.44060531E-05,   6.38098498E-16, ]
- [  4.05761106E-21,  -1.80020123E-04,  -3.16107227E-21, ]
force_length_stats: {min:   1.26311802E-06, max:   1.80020123E-04, mean:   4.83399864E-05, }
...

 Integrated electronic density in atomic spheres:
 ------------------------------------------------
 Atom  Sphere_radius  Integrated_density
    1        2.20660          5.37032511
    2        2.20660          5.37032511
    3        1.80316          4.36001214
    4        2.30022          4.03119398
    5        2.30022          4.03119398
    6        2.30022          4.02983315
    7        2.30022          4.03119398
    8        2.30022          4.03119398
    9        2.41000          9.30736698

 PAW TEST:
 ==== Compensation charge inside spheres ============
 The following values must be close to each other ...
 Compensation charge over spherical meshes =     -0.741782704449124
 Compensation charge over fine fft grid    =     -0.741780055061421

 ==== Results concerning PAW augmentation regions ====

 Total pseudopotential strength Dij (hartree):
 Atom #  1
   0.44348  -0.14683   0.00000   0.00000   0.00000  -0.00000   0.00000   0.00000   0.00000   0.00000   0.00000  -0.00000 ...
  -0.14683   0.04427  -0.00000   0.00000   0.00000   0.00000   0.00000   0.00000   0.00000   0.00000  -0.00000   0.00000 ...
   0.00000  -0.00000  -0.09395   0.00000   0.00000  -0.16635   0.00000   0.00000   0.00000   0.00000  -0.00000  -0.00000 ...
   0.00000   0.00000   0.00000  -0.09395  -0.00000   0.00000  -0.16635   0.00000  -0.00000   0.00000   0.00000   0.00000 ...
   0.00000   0.00000   0.00000  -0.00000  -0.09395   0.00000   0.00000  -0.16635   0.00000  -0.00000   0.00000   0.00000 ...
  -0.00000   0.00000  -0.16635   0.00000   0.00000   0.40502   0.00000   0.00000   0.00000   0.00000   0.00000   0.00000 ...
   0.00000   0.00000   0.00000  -0.16635   0.00000   0.00000   0.40502  -0.00001   0.00000  -0.00000   0.00000   0.00000 ...
   0.00000   0.00000   0.00000   0.00000  -0.16635   0.00000  -0.00001   0.40502  -0.00000   0.00000   0.00000   0.00000 ...
   0.00000   0.00000   0.00000  -0.00000   0.00000   0.00000   0.00000  -0.00000   0.00517  -0.00000   0.00000   0.00000 ...
   0.00000   0.00000   0.00000   0.00000  -0.00000   0.00000  -0.00000   0.00000  -0.00000   0.00517   0.00000   0.00000 ...
   0.00000  -0.00000  -0.00000   0.00000   0.00000   0.00000   0.00000   0.00000   0.00000   0.00000   0.00517  -0.00000 ...
  -0.00000   0.00000  -0.00000   0.00000   0.00000   0.00000   0.00000   0.00000   0.00000   0.00000  -0.00000   0.00517 ...
   ...  only 12  components have been written...
 Atom #  9
  -3.52458   0.43045  -0.00028   0.00000   0.00000   0.00005   0.00000   0.00000   0.00000   0.00000  -0.00008   0.00000 ...
   0.43045   0.00244   0.00004   0.00000   0.00000  -0.00001   0.00000   0.00000   0.00000   0.00000   0.00001   0.00000 ...
  -0.00028   0.00004  -1.46578   0.00000   0.00000   0.12536   0.00000   0.00000   0.00000   0.00000   0.00007   0.00000 ...
   0.00000   0.00000   0.00000  -1.46636   0.00000   0.00000   0.12546   0.00000   0.00000  -0.00011   0.00000   0.00000 ...
   0.00000   0.00000   0.00000   0.00000  -1.46636   0.00000   0.00000   0.12546  -0.00011   0.00000   0.00000   0.00000 ...
   0.00005  -0.00001   0.12536   0.00000   0.00000   0.01307   0.00000   0.00000   0.00000   0.00000  -0.00001   0.00000 ...
   0.00000   0.00000   0.00000   0.12546   0.00000   0.00000   0.01306   0.00000   0.00000   0.00002   0.00000   0.00000 ...
   0.00000   0.00000   0.00000   0.00000   0.12546   0.00000   0.00000   0.01306   0.00002   0.00000   0.00000   0.00000 ...
[...]
                       8.3598828104E+00  5.4261716412E+00  5.5943106942E+00
                       2.8287385780E+00  5.4261716412E+00  5.5943106943E+00
                      -1.8532738283E-12 -1.0044161308E-01 -1.8523237890E-12
           xangst10    2.7944880335E+00  2.6994294847E+00  2.7944880335E+00
                       8.3834641006E+00  8.1227672747E+00  8.3834641006E+00
                       5.5889760671E+00  8.3303516233E+00  5.5889760671E+00
                       5.5889760671E+00  5.4205521199E+00  2.8277736230E+00
                       5.5889760670E+00  5.4205521199E+00  8.3501785110E+00
                       5.5889760670E+00  2.7290072406E+00  5.5889760670E+00
                       8.3501785110E+00  5.4205521199E+00  5.5889760670E+00
                       2.8277736230E+00  5.4205521199E+00  5.5889760671E+00
                      -1.8601123584E-12 -1.0087279203E-01 -1.8607328594E-12
            xcart1     5.3260174904E+00  5.1485496625E+00  5.3260174904E+00
                       1.5978052471E+01  1.5501245977E+01  1.5978052471E+01
                       1.0652034981E+01  1.5957138333E+01  1.0652034981E+01
                       1.0652034981E+01  1.0339794420E+01  5.3596416830E+00
                       1.0652034981E+01  1.0339794420E+01  1.5944428279E+01
                       1.0652034981E+01  5.1823389105E+00  1.0652034981E+01
                       1.5944428279E+01  1.0339794420E+01  1.0652034981E+01
                       5.3596416830E+00  1.0339794420E+01  1.0652034981E+01
                      -3.3442481015E-12 -1.8144166140E-01 -3.3442481015E-12
            xcart2     5.3207632424E+00  5.1435338488E+00  5.3207632424E+00
                       1.5962289727E+01  1.5485567374E+01  1.5962289727E+01
                       1.0641526485E+01  1.5935205604E+01  1.0641526485E+01
                       1.0641526485E+01  1.0329934118E+01  5.3579061272E+00
                       1.0641526485E+01  1.0329934118E+01  1.5925146842E+01
                       1.0641526485E+01  5.1798342165E+00  1.0641526485E+01
                       1.5925146842E+01  1.0329934118E+01  1.0641526485E+01
                       5.3579061272E+00  1.0329934118E+01  1.0641526485E+01
                      -3.3622673158E-12 -1.8232072331E-01 -3.3634487626E-12
            xcart3     5.3155431546E+00  5.1382591438E+00  5.3155431546E+00
                       1.5946629464E+01  1.5469497105E+01  1.5946629464E+01
                       1.0631086309E+01  1.5912987577E+01  1.0631086309E+01
                       1.0631086309E+01  1.0319988864E+01  5.3561597640E+00
                       1.0631086309E+01  1.0319988864E+01  1.5906012854E+01
                       1.0631086309E+01  5.1773633724E+00  1.0631086309E+01
                       1.5906012854E+01  1.0319988864E+01  1.0631086309E+01
                       5.3561597640E+00  1.0319988864E+01  1.0631086309E+01
                      -3.3763811591E-12 -1.8302203896E-01 -3.3755116778E-12
            xcart4     5.3104408481E+00  5.1331852571E+00  5.3104408481E+00
                       1.5931322544E+01  1.5453169887E+01  1.5931322544E+01
                       1.0620881696E+01  1.5889579087E+01  1.0620881696E+01
                       1.0620881696E+01  1.0309652127E+01  5.3543677536E+00
                       1.0620881696E+01  1.0309652127E+01  1.5887395639E+01
                       1.0620881696E+01  5.1745430899E+00  1.0620881696E+01
                       1.5887395639E+01  1.0309652127E+01  1.0620881696E+01
                       5.3543677536E+00  1.0309652127E+01  1.0620881696E+01
                      -3.3994948335E-12 -1.8422995002E-01 -3.3994948335E-12
            xcart5     5.3056103881E+00  5.1282230347E+00  5.3056103881E+00
                       1.5916831164E+01  1.5435898089E+01  1.5916831164E+01
                       1.0611220776E+01  1.5864163273E+01  1.0611220776E+01
                       1.0611220776E+01  1.0297955585E+01  5.3526850966E+00
                       1.0611220776E+01  1.0297955585E+01  1.5869756456E+01
                       1.0611220776E+01  5.1714614541E+00  1.0611220776E+01
                       1.5869756456E+01  1.0297955585E+01  1.0611220776E+01
                       5.3526850966E+00  1.0297955585E+01  1.0611220776E+01
                      -3.4191130080E-12 -1.8536185019E-01 -3.4191473875E-12
            xcart6     5.3009344117E+00  5.1226513823E+00  5.3009344117E+00
                       1.5902803235E+01  1.5417417352E+01  1.5902803235E+01
                       1.0601868823E+01  1.5837229332E+01  1.0601868823E+01
                       1.0601868823E+01  1.0285970407E+01  5.3509768128E+00
                       1.0601868823E+01  1.0285970407E+01  1.5852760834E+01
                       1.0601868823E+01  5.1683437058E+00  1.0601868823E+01
                       1.5852760834E+01  1.0285970407E+01  1.0601868823E+01
                       5.3509768128E+00  1.0285970407E+01  1.0601868823E+01
                      -3.4429159957E-12 -1.8677108234E-01 -3.4440746483E-12
            xcart7     5.2959319646E+00  5.1166441411E+00  5.2959319646E+00
                       1.5887795894E+01  1.5399769676E+01  1.5887795894E+01
                       1.0591863929E+01  1.5813582709E+01  1.0591863929E+01
                       1.0591863929E+01  1.0275236257E+01  5.3492102503E+00
                       1.0591863929E+01  1.0275236257E+01  1.5834517608E+01
                       1.0591863929E+01  5.1658330250E+00  1.0591863929E+01
                       1.5834517608E+01  1.0275236257E+01  1.0591863929E+01
                       5.3492102503E+00  1.0275236257E+01  1.0591863929E+01
                      -3.4565573183E-12 -1.8730926843E-01 -3.4577516253E-12
            xcart8     5.2909021643E+00  5.1114036199E+00  5.2909021643E+00
                       1.5872706493E+01  1.5382995166E+01  1.5872706493E+01
                       1.0581804329E+01  1.5789727570E+01  1.0581804329E+01
                       1.0581804329E+01  1.0264609063E+01  5.3473866462E+00
                       1.0581804328E+01  1.0264609063E+01  1.5816222011E+01
                       1.0581804328E+01  5.1629154330E+00  1.0581804328E+01
                       1.5816222011E+01  1.0264609063E+01  1.0581804328E+01
                       5.3473866462E+00  1.0264609063E+01  1.0581804329E+01
                      -3.4796479771E-12 -1.8844667644E-01 -3.4784568659E-12
            xcart9     5.2858575572E+00  5.1066978868E+00  5.2858575572E+00
                       1.5857572671E+01  1.5366813128E+01  1.5857572671E+01
                       1.0571715114E+01  1.5765640909E+01  1.0571715114E+01
                       1.0571715114E+01  1.0253978352E+01  5.3455412139E+00
                       1.0571715114E+01  1.0253978352E+01  1.5797889015E+01
                       1.0571715114E+01  5.1598015139E+00  1.0571715114E+01
                       1.5797889015E+01  1.0253978352E+01  1.0571715114E+01
                       5.3455412139E+00  1.0253978352E+01  1.0571715114E+01
                      -3.5021799847E-12 -1.8980714107E-01 -3.5003846706E-12
            xcart10    5.2808170650E+00  5.1011824412E+00  5.2808170650E+00
                       1.5842451195E+01  1.5349805590E+01  1.5842451195E+01
                       1.0561634130E+01  1.5742083159E+01  1.0561634130E+01
                       1.0561634130E+01  1.0243358996E+01  5.3437177134E+00
                       1.0561634130E+01  1.0243358996E+01  1.5779550547E+01
                       1.0561634130E+01  5.1570762994E+00  1.0561634130E+01
                       1.5779550547E+01  1.0243358996E+01  1.0561634130E+01
                       5.3437177134E+00  1.0243358996E+01  1.0561634130E+01
                      -3.5151029338E-12 -1.9062195119E-01 -3.5162755108E-12
             xred1     2.4865742730E-01  2.5134257270E-01  2.4865742730E-01
                       7.4865742730E-01  7.5134257270E-01  7.4865742730E-01
                       7.7067547658E-01  2.2932452342E-01  7.7067547658E-01
                       2.5095518142E-01  2.5220141661E-01  7.4779858339E-01
                       7.4779858339E-01  7.4904481858E-01  2.5095518142E-01
                       2.5028933299E-01  7.4971066701E-01  2.5028933299E-01
                       2.5095518142E-01  7.4904481858E-01  7.4779858339E-01
                       7.4779858339E-01  2.5220141661E-01  2.5095518142E-01
                      -8.7630147684E-03  8.7630147684E-03 -8.7630147684E-03
             xred2     2.4867130029E-01  2.5132869971E-01  2.4867130029E-01
                       7.4867130029E-01  7.5132869971E-01  7.4867130029E-01
                       7.7040968610E-01  2.2959031390E-01  7.7040968610E-01
                       2.5116022326E-01  2.5233014862E-01  7.4766985138E-01
                       7.4766985138E-01  7.4883977674E-01  2.5116022326E-01
                       2.5042629207E-01  7.4957370793E-01  2.5042629207E-01
                       2.5116022326E-01  7.4883977674E-01  7.4766985138E-01
                       7.4766985138E-01  2.5233014862E-01  2.5116022326E-01
                      -8.8145490373E-03  8.8145490373E-03 -8.8145490373E-03
             xred3     2.4867586843E-01  2.5132413157E-01  2.4867586843E-01
                       7.4867586843E-01  7.5132413157E-01  7.4867586843E-01
                       7.7013943719E-01  2.2986056281E-01  7.7013943719E-01
                       2.5136585408E-01  2.5245469711E-01  7.4754530289E-01
                       7.4754530289E-01  7.4863414592E-01  2.5136585408E-01
                       2.5056839229E-01  7.4943160771E-01  2.5056839229E-01
                       2.5136585408E-01  7.4863414592E-01  7.4754530289E-01
                       7.4754530289E-01  2.5245469711E-01  2.5136585408E-01
                      -8.8577012580E-03  8.8577012580E-03 -8.8577012580E-03
             xred4     2.4870120650E-01  2.5129879350E-01  2.4870120650E-01
                       7.4870120650E-01  7.5129879350E-01  7.4870120650E-01
                       7.6984509456E-01  2.3015490544E-01  7.6984509456E-01
                       2.5156734354E-01  2.5256855655E-01  7.4743144345E-01
                       7.4743144345E-01  7.4843265646E-01  2.5156734354E-01
                       2.5070498045E-01  7.4929501955E-01  2.5070498045E-01
                       2.5156734354E-01  7.4843265646E-01  7.4743144345E-01
                       7.4743144345E-01  2.5256855655E-01  2.5156734354E-01
                      -8.9258829652E-03  8.9258829652E-03 -8.9258829652E-03
             xred5     2.4875750389E-01  2.5124249611E-01  2.4875750389E-01
                       7.4875750389E-01  7.5124249611E-01  7.4875750389E-01
                       7.6953159613E-01  2.3046840387E-01  7.6953159613E-01
                       2.5174668950E-01  2.5268962462E-01  7.4731037538E-01
                       7.4731037538E-01  7.4825331050E-01  2.5174668950E-01
                       2.5085489342E-01  7.4914510658E-01  2.5085489342E-01
                       2.5174668950E-01  7.4825331050E-01  7.4731037538E-01
                       7.4731037538E-01  2.5268962462E-01  2.5174668950E-01
                      -8.9914480820E-03  8.9914480820E-03 -8.9914480820E-03
             xred6     2.4879882638E-01  2.5120117362E-01  2.4879882638E-01
                       7.4879882638E-01  7.5120117362E-01  7.4879882638E-01
                       7.6918840983E-01  2.3081159017E-01  7.6918840983E-01
                       2.5193288837E-01  2.5278726068E-01  7.4721273932E-01
                       7.4721273932E-01  7.4806711163E-01  2.5193288837E-01
                       2.5101802804E-01  7.4898197196E-01  2.5101802804E-01
                       2.5193288837E-01  7.4806711163E-01  7.4721273932E-01
                       7.4721273932E-01  2.5278726068E-01  2.5193288837E-01
                      -9.0711669838E-03  9.0711669838E-03 -9.0711669838E-03
             xred7     2.4878837293E-01  2.5121162707E-01  2.4878837293E-01
                       7.4878837293E-01  7.5121162707E-01  7.4878837293E-01
                       7.6890934835E-01  2.3109065165E-01  7.6890934835E-01
                       2.5213145400E-01  2.5289866024E-01  7.4710133976E-01
                       7.4710133976E-01  7.4786854600E-01  2.5213145400E-01
                       2.5118010119E-01  7.4881989881E-01  2.5118010119E-01
                       2.5213145400E-01  7.4786854600E-01  7.4710133976E-01
                       7.4710133976E-01  2.5289866024E-01  2.5213145400E-01
                      -9.1076038986E-03  9.1076038986E-03 -9.1076038986E-03
             xred8     2.4881264003E-01  2.5118735997E-01  2.4881264003E-01
                       7.4881264003E-01  7.5118735997E-01  7.4881264003E-01
                       7.6861153887E-01  2.3138846113E-01  7.6861153887E-01
                       2.5232905085E-01  2.5300883674E-01  7.4699116326E-01
                       7.4699116326E-01  7.4767094915E-01  2.5232905085E-01
                       2.5132012939E-01  7.4867987061E-01  2.5132012939E-01
                       2.5232905085E-01  7.4767094915E-01  7.4699116326E-01
                       7.4699116326E-01  2.5300883674E-01  2.5232905085E-01
                      -9.1731975318E-03  9.1731975318E-03 -9.1731975318E-03
             xred9     2.4886162419E-01  2.5113837581E-01  2.4886162419E-01
                       7.4886162419E-01  7.5113837581E-01  7.4886162419E-01
                       7.6829745759E-01  2.3170254241E-01  7.6829745759E-01
                       2.5252373381E-01  2.5312186448E-01  7.4687813552E-01
                       7.4687813552E-01  7.4747626619E-01  2.5252373381E-01
                       2.5144949118E-01  7.4855050882E-01  2.5144949118E-01
                       2.5252373381E-01  7.4747626619E-01  7.4687813552E-01
                       7.4687813552E-01  2.5312186448E-01  2.5252373381E-01
                      -9.2497567814E-03  9.2497567814E-03 -9.2497567814E-03
             xred10    2.4887159802E-01  2.5112840198E-01  2.4887159802E-01
                       7.4887159802E-01  7.5112840198E-01  7.4887159802E-01
                       7.6800965991E-01  2.3199034009E-01  7.6800965991E-01
                       2.5272096711E-01  2.5323461207E-01  7.4676538793E-01
                       7.4676538793E-01  7.4727903289E-01  2.5272096711E-01
                       2.5159849398E-01  7.4840150602E-01  2.5159849398E-01
                       2.5272096711E-01  7.4727903289E-01  7.4676538793E-01
                       7.4676538793E-01  2.5323461207E-01  2.5272096711E-01
                      -9.2998809895E-03  9.2998809895E-03 -9.2998809895E-03
            znucl       55.00000   53.00000   72.00000   17.00000

================================================================================


- Timing analysis has been suppressed with timopt=0



================================================================================

 Suggested references for the acknowledgment of ABINIT usage.

 The users of ABINIT have little formal obligations with respect to the ABINIT group
 (those specified in the GNU General Public License, http://www.gnu.org/copyleft/gpl.txt).
 However, it is common practice in the scientific literature,
 to acknowledge the efforts of people that have made the research possible.
 In this spirit, please find below suggested citations of work written by ABINIT developers,
 corresponding to implementations inside of ABINIT that you have used in the present run.
 Note also that it will be of great value to readers of publications presenting these results,
 to read papers enabling them to understand the theoretical formalism and details
 of the ABINIT implementation.
 For information on why they are suggested, see also https://docs.abinit.org/theory/acknowledgments.
-
- [1] Implementation of the Projector Augmented-Wave Method in the ABINIT code.
- M. Torrent, F. Jollet, F. Bottin, G. Zerah, and X. Gonze Comput. Mat. Science 42, 337, (2008).
- Comment: PAW calculations. Strong suggestion to cite this paper.
- DOI and bibtex: see https://docs.abinit.org/theory/bibliography/#torrent2008
-
- [2] Libxc: A library of exchange and correlation functionals for density functional theory.
- M.A.L. Marques, M.J.T. Oliveira, T. Burnus, Computer Physics Communications 183, 2227 (2012).
- Comment: to be cited when LibXC is used (negative value of ixc)
- Strong suggestion to cite this paper.
- DOI and bibtex: see https://docs.abinit.org/theory/bibliography/#marques2012
-
- [3] The Abinit project: Impact, environment and recent developments.
- Computer Phys. Comm. 248, 107042 (2020).
- X.Gonze, B. Amadon, G. Antonius, F.Arnardi, L.Baguet, J.-M.Beuken,
- J.Bieder, F.Bottin, J.Bouchet, E.Bousquet, N.Brouwer, F.Bruneval,
- G.Brunin, T.Cavignac, J.-B. Charraud, Wei Chen, M.Cote, S.Cottenier,
- J.Denier, G.Geneste, Ph.Ghosez, M.Giantomassi, Y.Gillet, O.Gingras,
- D.R.Hamann, G.Hautier, Xu He, N.Helbig, N.Holzwarth, Y.Jia, F.Jollet,
- W.Lafargue-Dit-Hauret, K.Lejaeghere, M.A.L.Marques, A.Martin, C.Martins,
- H.P.C. Miranda, F.Naccarato, K. Persson, G.Petretto, V.Planes, Y.Pouillon,
- S.Prokhorenko, F.Ricci, G.-M.Rignanese, A.H.Romero, M.M.Schmitt, M.Torrent,
- M.J.van Setten, B.Van Troeye, M.J.Verstraete, G.Zerah and J.W.Zwanzig
- Comment: the fifth generic paper describing the ABINIT project.
- Note that a version of this paper, that is not formatted for Computer Phys. Comm. 
- is available at https://www.abinit.org/sites/default/files/ABINIT20.pdf .
- The licence allows the authors to put it on the Web.
- DOI and bibtex: see https://docs.abinit.org/theory/bibliography/#gonze2020
-
- [4] ABINIT: Overview, and focus on selected capabilities
- J. Chem. Phys. 152, 124102 (2020).
- A. Romero, D.C. Allan, B. Amadon, G. Antonius, T. Applencourt, L.Baguet,
- J.Bieder, F.Bottin, J.Bouchet, E.Bousquet, F.Bruneval,
- G.Brunin, D.Caliste, M.Cote,
- J.Denier, C. Dreyer, Ph.Ghosez, M.Giantomassi, Y.Gillet, O.Gingras,
- D.R.Hamann, G.Hautier, F.Jollet, G. Jomard,
- A.Martin, 
- H.P.C. Miranda, F.Naccarato, G.Petretto, N.A. Pike, V.Planes,
- S.Prokhorenko, T. Rangel, F.Ricci, G.-M.Rignanese, M.Royo, M.Stengel, M.Torrent,
- M.J.van Setten, B.Van Troeye, M.J.Verstraete, J.Wiktor, J.W.Zwanziger, and X.Gonze.
- Comment: a global overview of ABINIT, with focus on selected capabilities .
- Note that a version of this paper, that is not formatted for J. Chem. Phys 
- is available at https://www.abinit.org/sites/default/files/ABINIT20_JPC.pdf .
- The licence allows the authors to put it on the Web.
- DOI and bibtex: see https://docs.abinit.org/theory/bibliography/#romero2020
-
- [5] Recent developments in the ABINIT software package.
- Computer Phys. Comm. 205, 106 (2016).
- X.Gonze, F.Jollet, F.Abreu Araujo, D.Adams, B.Amadon, T.Applencourt,
- C.Audouze, J.-M.Beuken, J.Bieder, A.Bokhanchuk, E.Bousquet, F.Bruneval
- D.Caliste, M.Cote, F.Dahm, F.Da Pieve, M.Delaveau, M.Di Gennaro,
- B.Dorado, C.Espejo, G.Geneste, L.Genovese, A.Gerossier, M.Giantomassi,
- Y.Gillet, D.R.Hamann, L.He, G.Jomard, J.Laflamme Janssen, S.Le Roux,
- A.Levitt, A.Lherbier, F.Liu, I.Lukacevic, A.Martin, C.Martins,
- M.J.T.Oliveira, S.Ponce, Y.Pouillon, T.Rangel, G.-M.Rignanese,
- A.H.Romero, B.Rousseau, O.Rubel, A.A.Shukri, M.Stankovski, M.Torrent,
- M.J.Van Setten, B.Van Troeye, M.J.Verstraete, D.Waroquier, J.Wiktor,
- B.Xu, A.Zhou, J.W.Zwanziger.
- Comment: the fourth generic paper describing the ABINIT project.
- Note that a version of this paper, that is not formatted for Computer Phys. Comm. 
- is available at https://www.abinit.org/sites/default/files/ABINIT16.pdf .
- The licence allows the authors to put it on the Web.
- DOI and bibtex: see https://docs.abinit.org/theory/bibliography/#gonze2016
-
- Proc.   0 individual time (sec): cpu=      36080.2  wall=      36081.5

================================================================================

 Calculation completed.
.Delivered   0 WARNINGs and 164 COMMENTs to log file.
+Overall time at end (sec) : cpu=     216483.2  wall=     216489.0
