
.Version 9.2.2 of ABINIT 
.(MPI version, prepared for a x86_64_linux_gnu9.3 computer) 

.Copyright (C) 1998-2020 ABINIT group . 
 ABINIT comes with ABSOLUTELY NO WARRANTY.
 It is free software, and you are welcome to redistribute it
 under certain conditions (GNU General Public License,
 see ~abinit/COPYING or http://www.gnu.org/copyleft/gpl.txt).

 ABINIT is a project of the Universite Catholique de Louvain,
 Corning Inc. and other collaborators, see ~abinit/doc/developers/contributors.txt .
 Please read https://docs.abinit.org/theory/acknowledgments for suggested
 acknowledgments of the ABINIT effort.
 For more information, see https://www.abinit.org .

.Starting date : Wed  9 Nov 2022.
- ( at 13h17 )
  
- input  file    -> Cs2TiI6.in
- output file    -> Cs2TiI6.out
- root for input  files -> Cs2TiI6i
- root for output files -> Cs2TiI6o

- inpspheads : Reading pseudopotential header in XML form from 
-   ../../../Psps_for_tests/ATOMICDATA/Cs.GGA_PBE-JTH.xml
- inpspheads : Reading pseudopotential header in XML form from 
-   ../../../Psps_for_tests/ATOMICDATA/I.GGA_PBE-JTH.xml
- inpspheads : Reading pseudopotential header in XML form from 
-   ../../../Psps_for_tests/ATOMICDATA/Hf.GGA_PBE-JTH.xml
- inpspheads : Reading pseudopotential header in XML form from 
-   ../../../Psps_for_tests/ATOMICDATA/Cl.GGA_PBE-JTH.xml

 DATASET    1 : space group I4/m m m (#139); Bravais tI (body-center tetrag.)
================================================================================
 Values of the parameters that define the memory need for DATASET  1.
     intxc =       0    ionmov =       0      iscf =      17    lmnmax =      18
     lnmax =       6     mgfft =      60  mpssoang =       3    mqgrid =    3418
     natom =       9  nloc_mem =       2    nspden =       1   nspinor =       1
    nsppol =       1      nsym =      16    n1xccc =       1    ntypat =       4
    occopt =       1   xclevel =       2
-    mband =          42        mffmem =           1         mkmem =          41
       mpw =        6921          nfft =      216000          nkpt =         163
Pmy_natom=         3
 PAW method is used; the additional fine FFT grid is defined by:
   mgfftf=        90    nfftf =    729000
================================================================================
P This job should need less than                     416.356 Mbytes of memory.
  Rough estimation (10% accuracy) of disk space for files :
_ WF disk file :    722.981 Mbytes ; DEN or POT disk file :      5.564 Mbytes.
================================================================================


 DATASET    2 : space group I4/m m m (#139); Bravais tI (body-center tetrag.)
================================================================================
 Values of the parameters that define the memory need for DATASET  2.
     intxc =       0    ionmov =       0      iscf =      17    lmnmax =      18
     lnmax =       6     mgfft =      60  mpssoang =       3    mqgrid =    3415
     natom =       9  nloc_mem =       2    nspden =       1   nspinor =       1
    nsppol =       1      nsym =      16    n1xccc =       1    ntypat =       4
    occopt =       1   xclevel =       2
-    mband =          42        mffmem =           1         mkmem =          41
       mpw =        6910          nfft =      216000          nkpt =         163
Pmy_natom=         3
 PAW method is used; the additional fine FFT grid is defined by:
   mgfftf=        90    nfftf =    729000
================================================================================
P This job should need less than                     416.044 Mbytes of memory.
  Rough estimation (10% accuracy) of disk space for files :
_ WF disk file :    721.832 Mbytes ; DEN or POT disk file :      5.564 Mbytes.
================================================================================


 DATASET    3 : space group I4/m m m (#139); Bravais tI (body-center tetrag.)
================================================================================
 Values of the parameters that define the memory need for DATASET  3.
     intxc =       0    ionmov =       0      iscf =      17    lmnmax =      18
     lnmax =       6     mgfft =      60  mpssoang =       3    mqgrid =    3411
     natom =       9  nloc_mem =       2    nspden =       1   nspinor =       1
    nsppol =       1      nsym =      16    n1xccc =       1    ntypat =       4
    occopt =       1   xclevel =       2
-    mband =          42        mffmem =           1         mkmem =          41
       mpw =        6885          nfft =      216000          nkpt =         163
Pmy_natom=         3
 PAW method is used; the additional fine FFT grid is defined by:
   mgfftf=        90    nfftf =    729000
================================================================================
P This job should need less than                     415.319 Mbytes of memory.
  Rough estimation (10% accuracy) of disk space for files :
_ WF disk file :    719.221 Mbytes ; DEN or POT disk file :      5.564 Mbytes.
================================================================================


 DATASET    4 : space group I4/m m m (#139); Bravais tI (body-center tetrag.)
================================================================================
 Values of the parameters that define the memory need for DATASET  4.
     intxc =       0    ionmov =       0      iscf =      17    lmnmax =      18
     lnmax =       6     mgfft =      60  mpssoang =       3    mqgrid =    3408
     natom =       9  nloc_mem =       2    nspden =       1   nspinor =       1
    nsppol =       1      nsym =      16    n1xccc =       1    ntypat =       4
    occopt =       1   xclevel =       2
-    mband =          42        mffmem =           1         mkmem =          41
       mpw =        6866          nfft =      216000          nkpt =         163
Pmy_natom=         3
 PAW method is used; the additional fine FFT grid is defined by:
   mgfftf=        90    nfftf =    729000
================================================================================
P This job should need less than                     414.771 Mbytes of memory.
  Rough estimation (10% accuracy) of disk space for files :
_ WF disk file :    717.236 Mbytes ; DEN or POT disk file :      5.564 Mbytes.
================================================================================


 DATASET    5 : space group I4/m m m (#139); Bravais tI (body-center tetrag.)
================================================================================
 Values of the parameters that define the memory need for DATASET  5.
     intxc =       0    ionmov =       0      iscf =      17    lmnmax =      18
     lnmax =       6     mgfft =      60  mpssoang =       3    mqgrid =    3404
     natom =       9  nloc_mem =       2    nspden =       1   nspinor =       1
    nsppol =       1      nsym =      16    n1xccc =       1    ntypat =       4
    occopt =       1   xclevel =       2
-    mband =          42        mffmem =           1         mkmem =          41
       mpw =        6846          nfft =      216000          nkpt =         163
Pmy_natom=         3
 PAW method is used; the additional fine FFT grid is defined by:
   mgfftf=        90    nfftf =    729000
================================================================================
P This job should need less than                     414.193 Mbytes of memory.
  Rough estimation (10% accuracy) of disk space for files :
_ WF disk file :    715.147 Mbytes ; DEN or POT disk file :      5.564 Mbytes.
================================================================================


 DATASET    6 : space group I4/m m m (#139); Bravais tI (body-center tetrag.)
================================================================================
 Values of the parameters that define the memory need for DATASET  6.
     intxc =       0    ionmov =       0      iscf =      17    lmnmax =      18
     lnmax =       6     mgfft =      60  mpssoang =       3    mqgrid =    3401
     natom =       9  nloc_mem =       2    nspden =       1   nspinor =       1
    nsppol =       1      nsym =      16    n1xccc =       1    ntypat =       4
    occopt =       1   xclevel =       2
-    mband =          42        mffmem =           1         mkmem =          41
       mpw =        6832          nfft =      216000          nkpt =         163
Pmy_natom=         3
 PAW method is used; the additional fine FFT grid is defined by:
   mgfftf=        90    nfftf =    729000
================================================================================
P This job should need less than                     413.792 Mbytes of memory.
  Rough estimation (10% accuracy) of disk space for files :
_ WF disk file :    713.684 Mbytes ; DEN or POT disk file :      5.564 Mbytes.
================================================================================


 DATASET    7 : space group I4/m m m (#139); Bravais tI (body-center tetrag.)
================================================================================
 Values of the parameters that define the memory need for DATASET  7.
     intxc =       0    ionmov =       0      iscf =      17    lmnmax =      18
     lnmax =       6     mgfft =      54  mpssoang =       3    mqgrid =    3397
     natom =       9  nloc_mem =       2    nspden =       1   nspinor =       1
    nsppol =       1      nsym =      16    n1xccc =       1    ntypat =       4
    occopt =       1   xclevel =       2
-    mband =          42        mffmem =           1         mkmem =          41
       mpw =        6808          nfft =      157464          nkpt =         163
Pmy_natom=         3
 PAW method is used; the additional fine FFT grid is defined by:
   mgfftf=        90    nfftf =    729000
================================================================================
P This job should need less than                     404.383 Mbytes of memory.
  Rough estimation (10% accuracy) of disk space for files :
_ WF disk file :    711.177 Mbytes ; DEN or POT disk file :      5.564 Mbytes.
================================================================================


 DATASET    8 : space group I4/m m m (#139); Bravais tI (body-center tetrag.)
================================================================================
 Values of the parameters that define the memory need for DATASET  8.
     intxc =       0    ionmov =       0      iscf =      17    lmnmax =      18
     lnmax =       6     mgfft =      54  mpssoang =       3    mqgrid =    3394
     natom =       9  nloc_mem =       2    nspden =       1   nspinor =       1
    nsppol =       1      nsym =      16    n1xccc =       1    ntypat =       4
    occopt =       1   xclevel =       2
-    mband =          42        mffmem =           1         mkmem =          41
       mpw =        6788          nfft =      157464          nkpt =         163
Pmy_natom=         3
 PAW method is used; the additional fine FFT grid is defined by:
   mgfftf=        90    nfftf =    729000
================================================================================
P This job should need less than                     403.805 Mbytes of memory.
  Rough estimation (10% accuracy) of disk space for files :
_ WF disk file :    709.088 Mbytes ; DEN or POT disk file :      5.564 Mbytes.
================================================================================


 DATASET    9 : space group I4/m m m (#139); Bravais tI (body-center tetrag.)
================================================================================
 Values of the parameters that define the memory need for DATASET  9.
     intxc =       0    ionmov =       0      iscf =      17    lmnmax =      18
     lnmax =       6     mgfft =      54  mpssoang =       3    mqgrid =    3390
     natom =       9  nloc_mem =       2    nspden =       1   nspinor =       1
    nsppol =       1      nsym =      16    n1xccc =       1    ntypat =       4
    occopt =       1   xclevel =       2
-    mband =          42        mffmem =           1         mkmem =          41
       mpw =        6774          nfft =      157464          nkpt =         163
Pmy_natom=         3
 PAW method is used; the additional fine FFT grid is defined by:
   mgfftf=        90    nfftf =    729000
================================================================================
P This job should need less than                     403.405 Mbytes of memory.
  Rough estimation (10% accuracy) of disk space for files :
_ WF disk file :    707.625 Mbytes ; DEN or POT disk file :      5.564 Mbytes.
================================================================================


 DATASET   10 : space group I4/m m m (#139); Bravais tI (body-center tetrag.)
================================================================================
 Values of the parameters that define the memory need for DATASET 10.
     intxc =       0    ionmov =       0      iscf =      17    lmnmax =      18
     lnmax =       6     mgfft =      54  mpssoang =       3    mqgrid =    3387
     natom =       9  nloc_mem =       2    nspden =       1   nspinor =       1
    nsppol =       1      nsym =      16    n1xccc =       1    ntypat =       4
    occopt =       1   xclevel =       2
-    mband =          42        mffmem =           1         mkmem =          41
       mpw =        6748          nfft =      157464          nkpt =         163
Pmy_natom=         3
 PAW method is used; the additional fine FFT grid is defined by:
   mgfftf=        90    nfftf =    729000
================================================================================
P This job should need less than                     402.651 Mbytes of memory.
  Rough estimation (10% accuracy) of disk space for files :
_ WF disk file :    704.909 Mbytes ; DEN or POT disk file :      5.564 Mbytes.
================================================================================

--------------------------------------------------------------------------------
------------- Echo of variables that govern the present computation ------------
--------------------------------------------------------------------------------
-
- outvars: echo of selected default values                                      
-   iomode0 =  0 , fftalg0 =112 , wfoptalg0 = 10
-
- outvars: echo of global parameters not present in the input file              
-  max_nthreads =    0
-
 -outvars: echo values of preprocessed input variables --------
            acell1     1.4562881509E+01  1.5072485996E+01  1.4562881509E+01 Bohr
            acell2     1.4548250792E+01  1.5057538625E+01  1.4548250792E+01 Bohr
            acell3     1.4532574765E+01  1.5045346766E+01  1.4532574765E+01 Bohr
            acell4     1.4517246772E+01  1.5032241647E+01  1.4517246772E+01 Bohr
            acell5     1.4502012161E+01  1.5018892643E+01  1.4502012161E+01 Bohr
            acell6     1.4486790253E+01  1.5005512562E+01  1.4486790253E+01 Bohr
            acell7     1.4471124384E+01  1.4993314478E+01  1.4471124384E+01 Bohr
            acell8     1.4455525303E+01  1.4980945682E+01  1.4455525303E+01 Bohr
            acell9     1.4439818416E+01  1.4968871272E+01  1.4439818416E+01 Bohr
            acell10    1.4424044912E+01  1.4956983241E+01  1.4424044912E+01 Bohr
              amu      1.32905430E+02  1.26904470E+02  1.78490000E+02
                       3.54527000E+01
           diemac      1.20000000E+01
             ecut      1.60000000E+01 Hartree
-          fftalg         112
           istwfk        2    0    0    0    0    0    3    0    0    0
                         0    0    0    0    0    0    0    0    0    0
                         0    0    0    0    0    0    0    0    0    0
                         0    0    0    0    0    0    0    0    0    0
                         0    0    7    0    0    0    0    0    0    0
                       outvar_i_n : Printing only first  50 k-points.
              ixc     -101130
           jdtset        1    2    3    4    5    6    7    8    9   10
              kpt      0.00000000E+00  0.00000000E+00  0.00000000E+00
                       8.33333333E-02  0.00000000E+00  0.00000000E+00
                       1.66666667E-01  0.00000000E+00  0.00000000E+00
                       2.50000000E-01  0.00000000E+00  0.00000000E+00
                       3.33333333E-01  0.00000000E+00  0.00000000E+00
                       4.16666667E-01  0.00000000E+00  0.00000000E+00
                       5.00000000E-01  0.00000000E+00  0.00000000E+00
                       8.33333333E-02  8.33333333E-02  0.00000000E+00
                       1.66666667E-01  8.33333333E-02  0.00000000E+00
                       2.50000000E-01  8.33333333E-02  0.00000000E+00
                       3.33333333E-01  8.33333333E-02  0.00000000E+00
                       4.16666667E-01  8.33333333E-02  0.00000000E+00
                       5.00000000E-01  8.33333333E-02  0.00000000E+00
                      -4.16666667E-01  8.33333333E-02  0.00000000E+00
                      -3.33333333E-01  8.33333333E-02  0.00000000E+00
                      -2.50000000E-01  8.33333333E-02  0.00000000E+00
                      -1.66666667E-01  8.33333333E-02  0.00000000E+00
                      -8.33333333E-02  8.33333333E-02  0.00000000E+00
                       1.66666667E-01  1.66666667E-01  0.00000000E+00
                       2.50000000E-01  1.66666667E-01  0.00000000E+00
                       3.33333333E-01  1.66666667E-01  0.00000000E+00
                       4.16666667E-01  1.66666667E-01  0.00000000E+00
                       5.00000000E-01  1.66666667E-01  0.00000000E+00
                      -4.16666667E-01  1.66666667E-01  0.00000000E+00
                      -3.33333333E-01  1.66666667E-01  0.00000000E+00
                      -2.50000000E-01  1.66666667E-01  0.00000000E+00
                      -1.66666667E-01  1.66666667E-01  0.00000000E+00
                       2.50000000E-01  2.50000000E-01  0.00000000E+00
                       3.33333333E-01  2.50000000E-01  0.00000000E+00
                       4.16666667E-01  2.50000000E-01  0.00000000E+00
                       5.00000000E-01  2.50000000E-01  0.00000000E+00
                      -4.16666667E-01  2.50000000E-01  0.00000000E+00
                      -3.33333333E-01  2.50000000E-01  0.00000000E+00
                      -2.50000000E-01  2.50000000E-01  0.00000000E+00
                       3.33333333E-01  3.33333333E-01  0.00000000E+00
                       4.16666667E-01  3.33333333E-01  0.00000000E+00
                       5.00000000E-01  3.33333333E-01  0.00000000E+00
                      -4.16666667E-01  3.33333333E-01  0.00000000E+00
                      -3.33333333E-01  3.33333333E-01  0.00000000E+00
                       4.16666667E-01  4.16666667E-01  0.00000000E+00
                       5.00000000E-01  4.16666667E-01  0.00000000E+00
                      -4.16666667E-01  4.16666667E-01  0.00000000E+00
                       5.00000000E-01  5.00000000E-01  0.00000000E+00
                       8.33333333E-02  0.00000000E+00  8.33333333E-02
                       1.66666667E-01  0.00000000E+00  8.33333333E-02
                       2.50000000E-01  0.00000000E+00  8.33333333E-02
                       3.33333333E-01  0.00000000E+00  8.33333333E-02
                       4.16666667E-01  0.00000000E+00  8.33333333E-02
                       5.00000000E-01  0.00000000E+00  8.33333333E-02
                      -4.16666667E-01  0.00000000E+00  8.33333333E-02
                       outvar_i_n : Printing only first  50 k-points.
         kptrlatt       12    0    0      0   12    0      0    0   12
          kptrlen1     1.74754578E+02
          kptrlen2     1.74579010E+02
          kptrlen3     1.74390897E+02
          kptrlen4     1.74206961E+02
          kptrlen5     1.74024146E+02
          kptrlen6     1.73841483E+02
          kptrlen7     1.73653493E+02
          kptrlen8     1.73466304E+02
          kptrlen9     1.73277821E+02
          kptrlen10    1.73088539E+02
P           mkmem          41
            natom           9
            nband          42
           ndtset          10
            ngfft1         60      60      60
            ngfft2         60      60      60
            ngfft3         60      60      60
            ngfft4         60      60      60
            ngfft5         60      60      60
            ngfft6         60      60      60
            ngfft7         54      54      54
            ngfft8         54      54      54
            ngfft9         54      54      54
            ngfft10        54      54      54
          ngfftdg          90      90      90
             nkpt         163
            nstep        2500
             nsym          16
           ntypat           4
              occ      2.000000  2.000000  2.000000  2.000000  2.000000  2.000000
                       2.000000  2.000000  2.000000  2.000000  2.000000  2.000000
                       2.000000  2.000000  2.000000  2.000000  2.000000  2.000000
                       2.000000  2.000000  2.000000  2.000000  2.000000  2.000000
                       2.000000  2.000000  2.000000  2.000000  2.000000  2.000000
                       2.000000  2.000000  2.000000  2.000000  2.000000  2.000000
                       0.000000  0.000000  0.000000  0.000000  0.000000  0.000000
        pawecutdg      4.00000000E+01 Hartree
            prtwf           0
            rprim1     0.0000000000E+00  6.8146485518E-01  7.3185083942E-01
                       7.0710678119E-01  0.0000000000E+00  7.0710678119E-01
                       7.3185083942E-01  6.8146485518E-01  0.0000000000E+00
            rprim2     0.0000000000E+00  6.8145465950E-01  7.3186033302E-01
                       7.0710678119E-01  0.0000000000E+00  7.0710678119E-01
                       7.3186033302E-01  6.8145465950E-01  0.0000000000E+00
            rprim3     0.0000000000E+00  6.8124385475E-01  7.3205656227E-01
                       7.0710678119E-01  0.0000000000E+00  7.0710678119E-01
                       7.3205656227E-01  6.8124385475E-01  0.0000000000E+00
            rprim4     0.0000000000E+00  6.8109917037E-01  7.3219117731E-01
                       7.0710678119E-01  0.0000000000E+00  7.0710678119E-01
                       7.3219117731E-01  6.8109917037E-01  0.0000000000E+00
            rprim5     0.0000000000E+00  6.8097198234E-01  7.3230946960E-01
                       7.0710678119E-01  0.0000000000E+00  7.0710678119E-01
                       7.3230946960E-01  6.8097198234E-01  0.0000000000E+00
            rprim6     0.0000000000E+00  6.8084680502E-01  7.3242585160E-01
                       7.0710678119E-01  0.0000000000E+00  7.0710678119E-01
                       7.3242585160E-01  6.8084680502E-01  0.0000000000E+00
            rprim7     0.0000000000E+00  6.8063497348E-01  7.3262270841E-01
                       7.0710678119E-01  0.0000000000E+00  7.0710678119E-01
                       7.3262270841E-01  6.8063497348E-01  0.0000000000E+00
            rprim8     0.0000000000E+00  6.8043519942E-01  7.3280825554E-01
                       7.0710678119E-01  0.0000000000E+00  7.0710678119E-01
                       7.3280825554E-01  6.8043519942E-01  0.0000000000E+00
            rprim9     0.0000000000E+00  6.8021345260E-01  7.3301409188E-01
                       7.0710678119E-01  0.0000000000E+00  7.0710678119E-01
                       7.3301409188E-01  6.8021345260E-01  0.0000000000E+00
            rprim10    0.0000000000E+00  6.7997758405E-01  7.3323289969E-01
                       7.0710678119E-01  0.0000000000E+00  7.0710678119E-01
                       7.3323289969E-01  6.7997758405E-01  0.0000000000E+00
          spgroup         139
           symrel      1  0  0   0  1  0   0  0  1      -1  0  0   0 -1  0   0  0 -1
                       0  0 -1   0 -1  0  -1  0  0       0  0  1   0  1  0   1  0  0
                       0 -1  1   0 -1  0   1 -1  0       0  1 -1   0  1  0  -1  1  0
                      -1  1  0   0  1  0   0  1 -1       1 -1  0   0 -1  0   0 -1  1
                       0 -1  1  -1  0  1   0  0  1       0  1 -1   1  0 -1   0  0 -1
                       0  0 -1   1  0 -1   0  1 -1       0  0  1  -1  0  1   0 -1  1
                       1  0  0   1  0 -1   1 -1  0      -1  0  0  -1  0  1  -1  1  0
                      -1  1  0  -1  0  1  -1  0  0       1 -1  0   1  0 -1   1  0  0
           toldfe      1.00000000E-08 Hartree
            typat      1  1  4  2  2  4  2  2  3
           useylm           1
              wtk        0.00058    0.00463    0.00463    0.00463    0.00463    0.00463
                         0.00231    0.00231    0.00926    0.00926    0.00926    0.00926
                         0.00926    0.00926    0.00926    0.00926    0.00926    0.00463
                         0.00231    0.00926    0.00926    0.00926    0.00926    0.00926
                         0.00926    0.00926    0.00463    0.00231    0.00926    0.00926
                         0.00926    0.00926    0.00926    0.00463    0.00231    0.00926
                         0.00926    0.00926    0.00463    0.00231    0.00926    0.00463
                         0.00116    0.00116    0.00463    0.00463    0.00463    0.00463
                         0.00463    0.00463
                       outvars : Printing only first  50 k-points.
           xangst1     2.8199475235E+00  2.6258016349E+00  2.8199475235E+00
                       8.4598425704E+00  7.8774049047E+00  8.4598425704E+00
                       5.6398950469E+00  8.0790859206E+00  5.6398950469E+00
                       5.6398950469E+00  5.2516032698E+00  2.8522537370E+00
                       5.6398950470E+00  5.2516032698E+00  8.4275363569E+00
                       5.6398950470E+00  2.4241206191E+00  5.6398950470E+00
                       8.4275363569E+00  5.2516032698E+00  5.6398950470E+00
                       2.8522537370E+00  5.2516032698E+00  5.6398950469E+00
                      -2.3376446449E-19 -6.8706880260E-20 -7.2934636112E-20
           xangst2     2.8171509840E+00  2.6231243558E+00  2.8171509840E+00
                       8.4514529521E+00  7.8693730673E+00  8.4514529521E+00
                       5.6343019680E+00  8.0685969423E+00  5.6343019680E+00
                       5.6343019680E+00  5.2462487115E+00  2.8514117097E+00
                       5.6343019681E+00  5.2462487115E+00  8.4171922264E+00
                       5.6343019681E+00  2.4239004807E+00  5.6343019681E+00
                       8.4171922264E+00  5.2462487115E+00  5.6343019681E+00
                       2.8514117097E+00  5.2462487115E+00  5.6343019680E+00
                      -2.3051615127E-19 -7.0313825623E-20 -7.5825912451E-20
           xangst3     2.8148699799E+00  2.6194873109E+00  2.8148699799E+00
                       8.4446099398E+00  7.8584619327E+00  8.4446099398E+00
                       5.6297399598E+00  8.0543292001E+00  5.6297399598E+00
                       5.6297399598E+00  5.2389746218E+00  2.8506255557E+00
                       5.6297399599E+00  5.2389746218E+00  8.4088543641E+00
                       5.6297399599E+00  2.4236200435E+00  5.6297399599E+00
                       8.4088543641E+00  5.2389746218E+00  5.6297399599E+00
                       2.8506255557E+00  5.2389746218E+00  5.6297399598E+00
                      -2.3402205487E-19 -6.9410096092E-20 -7.2514294457E-20
           xangst4     2.8124181119E+00  2.6161687031E+00  2.8124181119E+00
                       8.4372543356E+00  7.8485061092E+00  8.4372543356E+00
                       5.6248362238E+00  8.0412807653E+00  5.6248362238E+00
                       5.6248362238E+00  5.2323374061E+00  2.8498083542E+00
                       5.6248362237E+00  5.2323374061E+00  8.3998640932E+00
                       5.6248362237E+00  2.4233940470E+00  5.6248362237E+00
                       8.3998640932E+00  5.2323374061E+00  5.6248362237E+00
                       2.8498083542E+00  5.2323374061E+00  5.6248362238E+00
                      -2.3314030079E-19 -6.8454824398E-20 -7.2739896705E-20
           xangst5     2.8099206147E+00  2.6129352284E+00  2.8099206147E+00
                       8.4297618440E+00  7.8388056851E+00  8.4297618440E+00
                       5.6198412294E+00  8.0286280511E+00  5.6198412294E+00
                       5.6198412294E+00  5.2258704567E+00  2.8489631196E+00
                       5.6198412294E+00  5.2258704567E+00  8.3907193391E+00
                       5.6198412294E+00  2.4231128624E+00  5.6198412294E+00
                       8.3907193391E+00  5.2258704567E+00  5.6198412294E+00
                       2.8489631196E+00  5.2258704567E+00  5.6198412294E+00
                      -2.3293326641E-19 -6.8370217108E-20 -7.2675301871E-20
           xangst6     2.8074173033E+00  2.6097127745E+00  2.8074173033E+00
                       8.4222519099E+00  7.8291383236E+00  8.4222519099E+00
                       5.6148346066E+00  8.0159580411E+00  5.6148346066E+00
                       5.6148346066E+00  5.2194255491E+00  2.8481079366E+00
                       5.6148346066E+00  5.2194255491E+00  8.3815612766E+00
                       5.6148346066E+00  2.4228930570E+00  5.6148346066E+00
                       8.3815612766E+00  5.2194255491E+00  5.6148346066E+00
                       2.8481079366E+00  5.2194255491E+00  5.6148346066E+00
                      -2.3161653416E-19 -6.6744791877E-20 -7.3626671113E-20
           xangst7     2.8051351345E+00  2.6060795768E+00  2.8051351345E+00
                       8.4154054035E+00  7.8182387304E+00  8.4154054035E+00
                       5.6102702690E+00  8.0016367754E+00  5.6102702690E+00
                       5.6102702690E+00  5.2121591536E+00  2.8473268383E+00
                       5.6102702690E+00  5.2121591536E+00  8.3732136998E+00
                       5.6102702690E+00  2.4226815318E+00  5.6102702690E+00
                       8.3732136998E+00  5.2121591536E+00  5.6102702690E+00
                       2.8473268383E+00  5.2121591536E+00  5.6102702690E+00
                      -2.3270912978E-19 -6.8215139118E-20 -7.2378127191E-20
           xangst8     2.8028210268E+00  2.6025062762E+00  2.8028210268E+00
                       8.4084630804E+00  7.8075188286E+00  8.4084630804E+00
                       5.6056420536E+00  7.9875310306E+00  5.6056420536E+00
                       5.6056420536E+00  5.2050125524E+00  2.8464879948E+00
                       5.6056420536E+00  5.2050125524E+00  8.3647961124E+00
                       5.6056420536E+00  2.4224940742E+00  5.6056420536E+00
                       8.3647961124E+00  5.2050125524E+00  5.6056420536E+00
                       2.8464879948E+00  5.2050125524E+00  5.6056420536E+00
                      -2.3111916510E-19 -6.5477846845E-20 -6.9903041489E-20
           xangst9     2.8005619965E+00  2.5988312721E+00  2.8005619965E+00
                       8.4016859895E+00  7.7964938163E+00  8.4016859895E+00
                       5.6011239930E+00  7.9729997411E+00  5.6011239930E+00
                       5.6011239930E+00  5.1976625442E+00  2.8456608276E+00
                       5.6011239930E+00  5.1976625442E+00  8.3565871585E+00
                       5.6011239930E+00  2.4223253473E+00  5.6011239930E+00
                       8.3565871585E+00  5.1976625442E+00  5.6011239930E+00
                       2.8456608276E+00  5.1976625442E+00  5.6011239930E+00
                      -2.3089415725E-19 -6.6731560017E-20 -7.4529546124E-20
           xangst10    2.7983378363E+00  2.5950922308E+00  2.7983378363E+00
                       8.3950135090E+00  7.7852766923E+00  8.3950135090E+00
                       5.5966756727E+00  7.9582068877E+00  5.5966756727E+00
                       5.5966756727E+00  5.1901844616E+00  2.8448532861E+00
                       5.5966756727E+00  5.1901844616E+00  8.3484980593E+00
                       5.5966756727E+00  2.4221620354E+00  5.5966756727E+00
                       8.3484980593E+00  5.1901844616E+00  5.5966756727E+00
                       2.8448532861E+00  5.1901844616E+00  5.5966756727E+00
                      -2.4102748874E-19 -6.9862541800E-20 -7.1978487380E-20
            xcart1     5.3289285285E+00  4.9620459693E+00  5.3289285285E+00
                       1.5986785585E+01  1.4886137908E+01  1.5986785585E+01
                       1.0657857057E+01  1.5267259794E+01  1.0657857057E+01
                       1.0657857057E+01  9.9240919385E+00  5.3899784245E+00
                       1.0657857057E+01  9.9240919385E+00  1.5925735689E+01
                       1.0657857057E+01  4.5809240832E+00  1.0657857057E+01
                       1.5925735689E+01  9.9240919385E+00  1.0657857057E+01
                       5.3899784245E+00  9.9240919385E+00  1.0657857057E+01
                      -4.4175081749E-19 -1.2983718714E-19 -1.3782648785E-19
            xcart2     5.3236438348E+00  4.9569866449E+00  5.3236438348E+00
                       1.5970931504E+01  1.4870959935E+01  1.5970931504E+01
                       1.0647287670E+01  1.5247438498E+01  1.0647287670E+01
                       1.0647287670E+01  9.9139732898E+00  5.3883872235E+00
                       1.0647287670E+01  9.9139732898E+00  1.5906188116E+01
                       1.0647287670E+01  4.5805080819E+00  1.0647287670E+01
                       1.5906188116E+01  9.9139732898E+00  1.0647287670E+01
                       5.3883872235E+00  9.9139732898E+00  1.0647287670E+01
                      -4.3561239511E-19 -1.3287387378E-19 -1.4329020831E-19
            xcart3     5.3193333617E+00  4.9501136262E+00  5.3193333617E+00
                       1.5958000085E+01  1.4850340879E+01  1.5958000085E+01
                       1.0638666723E+01  1.5220476372E+01  1.0638666723E+01
                       1.0638666723E+01  9.9002272524E+00  5.3869016076E+00
                       1.0638666724E+01  9.9002272524E+00  1.5890431839E+01
                       1.0638666724E+01  4.5799781323E+00  1.0638666724E+01
                       1.5890431839E+01  9.9002272524E+00  1.0638666724E+01
                       5.3869016076E+00  9.9002272524E+00  1.0638666723E+01
                      -4.4223759277E-19 -1.3116607247E-19 -1.3703215724E-19
            xcart4     5.3147000026E+00  4.9438423662E+00  5.3147000026E+00
                       1.5944100008E+01  1.4831527099E+01  1.5944100008E+01
                       1.0629400005E+01  1.5195818404E+01  1.0629400005E+01
                       1.0629400005E+01  9.8876847325E+00  5.3853573207E+00
                       1.0629400005E+01  9.8876847325E+00  1.5873442690E+01
                       1.0629400005E+01  4.5795510609E+00  1.0629400005E+01
                       1.5873442690E+01  9.8876847325E+00  1.0629400005E+01
                       5.3853573207E+00  9.8876847325E+00  1.0629400005E+01
                      -4.4057131904E-19 -1.2936087059E-19 -1.3745848371E-19
            xcart5     5.3099804169E+00  4.9377319846E+00  5.3099804169E+00
                       1.5929941251E+01  1.4813195954E+01  1.5929941251E+01
                       1.0619960834E+01  1.5171908239E+01  1.0619960834E+01
                       1.0619960834E+01  9.8754639692E+00  5.3837600587E+00
                       1.0619960834E+01  9.8754639692E+00  1.5856161609E+01
                       1.0619960834E+01  4.5790196991E+00  1.0619960834E+01
                       1.5856161609E+01  9.8754639692E+00  1.0619960834E+01
                       5.3837600587E+00  9.8754639692E+00  1.0619960834E+01
                      -4.4018008075E-19 -1.2920098598E-19 -1.3733641716E-19
            xcart6     5.3052498440E+00  4.9316424294E+00  5.3052498440E+00
                       1.5915749532E+01  1.4794927288E+01  1.5915749532E+01
                       1.0610499688E+01  1.5147965390E+01  1.0610499688E+01
                       1.0610499688E+01  9.8632848587E+00  5.3821439970E+00
                       1.0610499688E+01  9.8632848587E+00  1.5838855379E+01
                       1.0610499688E+01  4.5786043271E+00  1.0610499688E+01
                       1.5838855379E+01  9.8632848587E+00  1.0610499688E+01
                       5.3821439970E+00  9.8632848587E+00  1.0610499688E+01
                      -4.3769181740E-19 -1.2612937744E-19 -1.3913424448E-19
            xcart7     5.3009371700E+00  4.9247766807E+00  5.3009371700E+00
                       1.5902811510E+01  1.4774330042E+01  1.5902811510E+01
                       1.0601874340E+01  1.5120902120E+01  1.0601874340E+01
                       1.0601874340E+01  9.8495533613E+00  5.3806679351E+00
                       1.0601874340E+01  9.8495533613E+00  1.5823080745E+01
                       1.0601874340E+01  4.5782046023E+00  1.0601874340E+01
                       1.5823080745E+01  9.8495533613E+00  1.0601874340E+01
                       5.3806679351E+00  9.8495533613E+00  1.0601874340E+01
                      -4.3975652390E-19 -1.2890793105E-19 -1.3677483840E-19
            xcart8     5.2965641401E+00  4.9180241211E+00  5.2965641401E+00
                       1.5889692420E+01  1.4754072363E+01  1.5889692420E+01
                       1.0593128280E+01  1.5094246126E+01  1.0593128280E+01
                       1.0593128280E+01  9.8360482423E+00  5.3790827508E+00
                       1.0593128280E+01  9.8360482423E+00  1.5807173810E+01
                       1.0593128280E+01  4.5778503588E+00  1.0593128280E+01
                       1.5807173810E+01  9.8360482423E+00  1.0593128280E+01
                       5.3790827508E+00  9.8360482423E+00  1.0593128280E+01
                      -4.3675192611E-19 -1.2373519831E-19 -1.3209760427E-19
            xcart9     5.2922951916E+00  4.9110793698E+00  5.2922951916E+00
                       1.5876885575E+01  1.4733238109E+01  1.5876885575E+01
                       1.0584590383E+01  1.5066785968E+01  1.0584590383E+01
                       1.0584590383E+01  9.8221587397E+00  5.3775196312E+00
                       1.0584590383E+01  9.8221587397E+00  1.5791661135E+01
                       1.0584590383E+01  4.5775315112E+00  1.0584590383E+01
                       1.5791661135E+01  9.8221587397E+00  1.0584590383E+01
                       5.3775196312E+00  9.8221587397E+00  1.0584590383E+01
                      -4.3632672288E-19 -1.2610437285E-19 -1.4084043098E-19
            xcart10    5.2880921380E+00  4.9040136057E+00  5.2880921380E+00
                       1.5864276414E+01  1.4712040817E+01  1.5864276414E+01
                       1.0576184276E+01  1.5038831527E+01  1.0576184276E+01
                       1.0576184276E+01  9.8080272115E+00  5.3759935989E+00
                       1.0576184276E+01  9.8080272115E+00  1.5776374953E+01
                       1.0576184276E+01  4.5772228964E+00  1.0576184276E+01
                       1.5776374953E+01  9.8080272115E+00  1.0576184276E+01
                       5.3759935989E+00  9.8080272115E+00  1.0576184276E+01
                      -4.5547594421E-19 -1.3202107095E-19 -1.3601962861E-19
             xred1     2.5000000000E-01  2.5000000000E-01  2.5000000000E-01
                       7.5000000000E-01  7.5000000000E-01  7.5000000000E-01
                       7.6920185184E-01  2.3079814816E-01  7.6920185184E-01
                       2.5286407932E-01  2.5286407932E-01  7.4713592068E-01
                       7.4713592068E-01  7.4713592068E-01  2.5286407932E-01
                       2.3079814816E-01  7.6920185184E-01  2.3079814816E-01
                       2.5286407932E-01  7.4713592068E-01  7.4713592068E-01
                       7.4713592068E-01  2.5286407932E-01  2.5286407932E-01
                       7.7167141090E-21 -2.0648627824E-20 -2.0799743563E-20
             xred2     2.5000000000E-01  2.5000000000E-01  2.5000000000E-01
                       7.5000000000E-01  7.5000000000E-01  7.5000000000E-01
                       7.6898726938E-01  2.3101273062E-01  7.6898726938E-01
                       2.5304037003E-01  2.5304037003E-01  7.4695962997E-01
                       7.4695962997E-01  7.4695962997E-01  2.5304037003E-01
                       2.3101273062E-01  7.6898726938E-01  2.3101273062E-01
                       2.5304037003E-01  7.4695962997E-01  7.4695962997E-01
                       7.4695962997E-01  2.5304037003E-01  2.5304037003E-01
                       7.0261993049E-21 -2.0484106403E-20 -2.0428885584E-20
             xred3     2.5000000000E-01  2.5000000000E-01  2.5000000000E-01
                       7.5000000000E-01  7.5000000000E-01  7.5000000000E-01
                       7.6869328271E-01  2.3130671729E-01  7.6869328271E-01
                       2.5317559745E-01  2.5317559745E-01  7.4682440255E-01
                       7.4682440255E-01  7.4682440255E-01  2.5317559745E-01
                       2.3130671729E-01  7.6869328271E-01  2.3130671729E-01
                       2.5317559745E-01  7.4682440255E-01  7.4682440255E-01
                       7.4682440255E-01  2.5317559745E-01  2.5317559745E-01
                       7.7197610758E-21 -2.0600337261E-20 -2.0968555182E-20
             xred4     2.5000000000E-01  2.5000000000E-01  2.5000000000E-01
                       7.5000000000E-01  7.5000000000E-01  7.5000000000E-01
                       7.6842146646E-01  2.3157853354E-01  7.6842146646E-01
                       2.5332367387E-01  2.5332367387E-01  7.4667632613E-01
                       7.4667632613E-01  7.4667632613E-01  2.5332367387E-01
                       2.3157853354E-01  7.6842146646E-01  2.3157853354E-01
                       2.5332367387E-01  7.4667632613E-01  7.4667632613E-01
                       7.4667632613E-01  2.5332367387E-01  2.5332367387E-01
                       7.7167141090E-21 -2.0648627824E-20 -2.0799743563E-20
             xred5     2.5000000000E-01  2.5000000000E-01  2.5000000000E-01
                       7.5000000000E-01  7.5000000000E-01  7.5000000000E-01
                       7.6816179405E-01  2.3183820595E-01  7.6816179405E-01
                       2.5347363060E-01  2.5347363060E-01  7.4652636940E-01
                       7.4652636940E-01  7.4652636940E-01  2.5347363060E-01
                       2.3183820595E-01  7.6816179405E-01  2.3183820595E-01
                       2.5347363060E-01  7.4652636940E-01  7.4652636940E-01
                       7.4652636940E-01  2.5347363060E-01  2.5347363060E-01
                       7.7167141090E-21 -2.0648627824E-20 -2.0799743563E-20
             xred6     2.5000000000E-01  2.5000000000E-01  2.5000000000E-01
                       7.5000000000E-01  7.5000000000E-01  7.5000000000E-01
                       7.6789657844E-01  2.3210342156E-01  7.6789657844E-01
                       2.5362349349E-01  2.5362349349E-01  7.4637650651E-01
                       7.4637650651E-01  7.4637650651E-01  2.5362349349E-01
                       2.3210342156E-01  7.6789657844E-01  2.3210342156E-01
                       2.5362349349E-01  7.4637650651E-01  7.4637650651E-01
                       7.4637650651E-01  2.5362349349E-01  2.5362349349E-01
                       7.6750856219E-21 -2.0787968952E-20 -2.0462851488E-20
             xred7     2.5000000000E-01  2.5000000000E-01  2.5000000000E-01
                       7.5000000000E-01  7.5000000000E-01  7.5000000000E-01
                       7.6759328904E-01  2.3240671096E-01  7.6759328904E-01
                       2.5376022025E-01  2.5376022025E-01  7.4623977975E-01
                       7.4623977975E-01  7.4623977975E-01  2.5376022025E-01
                       2.3240671096E-01  7.6759328904E-01  2.3240671096E-01
                       2.5376022025E-01  7.4623977975E-01  7.4623977975E-01
                       7.4623977975E-01  2.5376022025E-01  2.5376022025E-01
                       7.7452157584E-21 -2.0646221186E-20 -2.0832908806E-20
             xred8     2.5000000000E-01  2.5000000000E-01  2.5000000000E-01
                       7.5000000000E-01  7.5000000000E-01  7.5000000000E-01
                       7.6729219672E-01  2.3270780328E-01  7.6729219672E-01
                       2.5389491227E-01  2.5389491227E-01  7.4610508773E-01
                       7.4610508773E-01  7.4610508773E-01  2.5389491227E-01
                       2.3270780328E-01  7.6729219672E-01  2.3270780328E-01
                       2.5389491227E-01  7.4610508773E-01  7.4610508773E-01
                       7.4610508773E-01  2.5389491227E-01  2.5389491227E-01
                       8.0899252926E-21 -2.0560047505E-20 -2.0669692620E-20
             xred9     2.5000000000E-01  2.5000000000E-01  2.5000000000E-01
                       7.5000000000E-01  7.5000000000E-01  7.5000000000E-01
                       7.6697935594E-01  2.3302064406E-01  7.6697935594E-01
                       2.5402587330E-01  2.5402587330E-01  7.4597412670E-01
                       7.4597412670E-01  7.4597412670E-01  2.5402587330E-01
                       2.3302064406E-01  7.6697935594E-01  2.3302064406E-01
                       2.5402587330E-01  7.4597412670E-01  7.4597412670E-01
                       7.4597412670E-01  2.5402587330E-01  2.5402587330E-01
                       7.5389426391E-21 -2.0845119438E-20 -2.0377706112E-20
             xred10    2.5000000000E-01  2.5000000000E-01  2.5000000000E-01
                       7.5000000000E-01  7.5000000000E-01  7.5000000000E-01
                       7.6665934965E-01  2.3334065035E-01  7.6665934965E-01
                       2.5415563206E-01  2.5415563206E-01  7.4584436794E-01
                       7.4584436794E-01  7.4584436794E-01  2.5415563206E-01
                       2.3334065035E-01  7.6665934965E-01  2.3334065035E-01
                       2.5415563206E-01  7.4584436794E-01  7.4584436794E-01
                       7.4584436794E-01  2.5415563206E-01  2.5415563206E-01
                       8.3723700540E-21 -2.1233306008E-20 -2.1832882357E-20
            znucl       55.00000   53.00000   72.00000   17.00000

================================================================================

 chkinp: Checking input parameters for consistency, jdtset=   1.

 chkinp: Checking input parameters for consistency, jdtset=   2.

 chkinp: Checking input parameters for consistency, jdtset=   3.

 chkinp: Checking input parameters for consistency, jdtset=   4.

 chkinp: Checking input parameters for consistency, jdtset=   5.

 chkinp: Checking input parameters for consistency, jdtset=   6.

 chkinp: Checking input parameters for consistency, jdtset=   7.

 chkinp: Checking input parameters for consistency, jdtset=   8.

 chkinp: Checking input parameters for consistency, jdtset=   9.

 chkinp: Checking input parameters for consistency, jdtset=  10.

================================================================================
== DATASET  1 ==================================================================
-   mpi_nproc: 4, omp_nthreads: -1 (-1 if OMP is not activated)


--- !DatasetInfo
iteration_state: {dtset: 1, }
dimensions: {natom: 9, nkpt: 163, mband: 42, nsppol: 1, nspinor: 1, nspden: 1, mpw: 6921, }
cutoff_energies: {ecut:  16.0, pawecutdg:  40.0, }
electrons: {nelect:   7.20000000E+01, charge:   0.00000000E+00, occopt:   1.00000000E+00, tsmear:   1.00000000E-02, }
meta: {optdriver: 0, ionmov: 0, optcell: 0, iscf: 17, paral_kgb: 0, }
...

 Real(R)+Recip(G) space primitive vectors, cartesian coordinates (Bohr,Bohr^-1):
 R(1)=  0.0000000  9.9240919 10.6578571  G(1)= -0.0469137  0.0503824  0.0469137
 R(2)= 10.6578571  0.0000000 10.6578571  G(2)=  0.0469137 -0.0503824  0.0469137
 R(3)= 10.6578571  9.9240919  0.0000000  G(3)=  0.0469137  0.0503824 -0.0469137
 Unit cell volume ucvol=  2.2545536E+03 bohr^3
 Angles (23,13,12)=  5.88355162E+01  6.23289676E+01  5.88355162E+01 degrees

 Coarse grid specifications (used for wave-functions):

 getcut: wavevector=  0.0000  0.0000  0.0000  ngfft=  60  60  60
         ecut(hartree)=     16.000   => boxcut(ratio)=   2.21076

 getcut : COMMENT -
  Note that boxcut > 2.2 ; recall that boxcut=Gcut(box)/Gcut(sphere) = 2
  is sufficient for exact treatment of convolution.
  Such a large boxcut is a waste : you could raise ecut
  e.g. ecut=   19.549807 Hartrees makes boxcut=2


 Fine grid specifications (used for densities):

 getcut: wavevector=  0.0000  0.0000  0.0000  ngfft=  90  90  90
         ecut(hartree)=     40.000   => boxcut(ratio)=   2.09761

--- Pseudopotential description ------------------------------------------------
- pspini: atom type   1  psp file is ../../../Psps_for_tests/ATOMICDATA/Cs.GGA_PBE-JTH.xml
- pspatm: opening atomic psp file    ../../../Psps_for_tests/ATOMICDATA/Cs.GGA_PBE-JTH.xml
- pspatm : Reading pseudopotential header in XML form from ../../../Psps_for_tests/ATOMICDATA/Cs.GGA_PBE-JTH.xml
 Pseudopotential format is: paw10
 basis_size (lnmax)=  6 (lmn_size= 18), orbitals=   0   0   1   1   2   2
 Spheres core radius: rc_sph= 2.20660278
 1 radial meshes are used:
  - mesh 1: r(i)=AA*[exp(BB*(i-1))-1], size=1500 , AA= 0.15922E-03 BB= 0.87573E-02
 Shapefunction is SIN type: shapef(r)=[sin(pi*r/rshp)/(pi*r/rshp)]**2
 Radius for shape functions =  2.00394208
 mmax= 1500
 Radial grid used for partial waves is grid 1
 Radial grid used for projectors is grid 1
 Radial grid used for (t)core density is grid 1
 Radial grid used for Vloc is grid 1
 Radial grid used for pseudo valence density is grid 1
 Mesh size for Vloc has been set to 1341 to avoid numerical noise.
 Compensation charge density is not taken into account in XC energy/potential
 pspatm: atomic psp has been read  and splines computed

- pspini: atom type   2  psp file is ../../../Psps_for_tests/ATOMICDATA/I.GGA_PBE-JTH.xml
- pspatm: opening atomic psp file    ../../../Psps_for_tests/ATOMICDATA/I.GGA_PBE-JTH.xml
- pspatm : Reading pseudopotential header in XML form from ../../../Psps_for_tests/ATOMICDATA/I.GGA_PBE-JTH.xml
 Pseudopotential format is: paw10
 basis_size (lnmax)=  4 (lmn_size=  8), orbitals=   0   0   1   1
 Spheres core radius: rc_sph= 2.30022271
 1 radial meshes are used:
  - mesh 1: r(i)=AA*[exp(BB*(i-1))-1], size=2000 , AA= 0.12610E-03 BB= 0.66836E-02
 Shapefunction is SIN type: shapef(r)=[sin(pi*r/rshp)/(pi*r/rshp)]**2
 Radius for shape functions =  2.10879093
 mmax= 2000
 Radial grid used for partial waves is grid 1
 Radial grid used for projectors is grid 1
 Radial grid used for (t)core density is grid 1
 Radial grid used for Vloc is grid 1
 Radial grid used for pseudo valence density is grid 1
 Mesh size for Vloc has been set to 1792 to avoid numerical noise.
 Compensation charge density is not taken into account in XC energy/potential
 pspatm: atomic psp has been read  and splines computed

- pspini: atom type   3  psp file is ../../../Psps_for_tests/ATOMICDATA/Hf.GGA_PBE-JTH.xml
- pspatm: opening atomic psp file    ../../../Psps_for_tests/ATOMICDATA/Hf.GGA_PBE-JTH.xml
- pspatm : Reading pseudopotential header in XML form from ../../../Psps_for_tests/ATOMICDATA/Hf.GGA_PBE-JTH.xml
 Pseudopotential format is: paw10
 basis_size (lnmax)=  6 (lmn_size= 18), orbitals=   0   0   1   1   2   2
 Spheres core radius: rc_sph= 2.41000000
 1 radial meshes are used:
  - mesh 1: r(i)=AA*[exp(BB*(i-1))-1], size= 972 , AA= 0.19796E-03 BB= 0.14253E-01
 Shapefunction is SIN type: shapef(r)=[sin(pi*r/rshp)/(pi*r/rshp)]**2
 Radius for shape functions =  2.41000000
 mmax=  972
 Radial grid used for partial waves is grid 1
 Radial grid used for projectors is grid 1
 Radial grid used for (t)core density is grid 1
 Radial grid used for Vloc is grid 1
 Radial grid used for pseudo valence density is grid 1
 Mesh size for Vloc has been set to  809 to avoid numerical noise.
 Compensation charge density is not taken into account in XC energy/potential
 pspatm: atomic psp has been read  and splines computed

- pspini: atom type   4  psp file is ../../../Psps_for_tests/ATOMICDATA/Cl.GGA_PBE-JTH.xml
- pspatm: opening atomic psp file    ../../../Psps_for_tests/ATOMICDATA/Cl.GGA_PBE-JTH.xml
- pspatm : Reading pseudopotential header in XML form from ../../../Psps_for_tests/ATOMICDATA/Cl.GGA_PBE-JTH.xml
 Pseudopotential format is: paw10
 basis_size (lnmax)=  4 (lmn_size=  8), orbitals=   0   0   1   1
 Spheres core radius: rc_sph= 1.80315674
 1 radial meshes are used:
  - mesh 1: r(i)=AA*[exp(BB*(i-1))-1], size=1400 , AA= 0.50355E-03 BB= 0.85603E-02
 Shapefunction is SIN type: shapef(r)=[sin(pi*r/rshp)/(pi*r/rshp)]**2
 Radius for shape functions =  1.61320365
 mmax= 1400
 Radial grid used for partial waves is grid 1
 Radial grid used for projectors is grid 1
 Radial grid used for (t)core density is grid 1
 Radial grid used for Vloc is grid 1
 Radial grid used for pseudo valence density is grid 1
 Mesh size for Vloc has been set to 1238 to avoid numerical noise.
 Compensation charge density is not taken into account in XC energy/potential
 pspatm: atomic psp has been read  and splines computed

   3.86254194E+04                                ecore*ucvol(ha*bohr**3)
--------------------------------------------------------------------------------

_setup2: Arith. and geom. avg. npw (full set) are    6891.819    6891.810

================================================================================

--- !BeginCycle
iteration_state: {dtset: 1, }
solver: {iscf: 17, nstep: 2500, nline: 4, wfoptalg: 10, }
tolerances: {toldfe: 1.00E-08, }
...

     iter   Etot(hartree)      deltaE(h)  residm     nres2
 ETOT  1  -166.46866175462    -1.665E+02 8.655E+00 6.063E+00
 ETOT  2  -168.35323724131    -1.885E+00 3.169E-02 4.163E+00
 ETOT  3  -168.33410214285     1.914E-02 1.876E-02 6.524E-01
 ETOT  4  -168.33482809837    -7.260E-04 1.500E-02 1.246E-01
 ETOT  5  -168.33496095058    -1.329E-04 5.773E-03 2.336E-02
 ETOT  6  -168.33503096055    -7.001E-05 4.248E-03 1.518E-03
 ETOT  7  -168.33503780900    -6.848E-06 2.830E-03 3.974E-04
 ETOT  8  -168.33504416503    -6.356E-06 1.424E-03 1.277E-04
 ETOT  9  -168.33504426231    -9.727E-08 1.309E-03 8.731E-06
 ETOT 10  -168.33504443463    -1.723E-07 1.240E-03 2.675E-06
 ETOT 11  -168.33504443911    -4.475E-09 2.562E-03 1.319E-07
 ETOT 12  -168.33504444403    -4.921E-09 1.241E-03 7.272E-08

 At SCF step   12, etot is converged : 
  for the second time, diff in etot=  4.921E-09 < toldfe=  1.000E-08

 Cartesian components of stress tensor (hartree/bohr^3)
  sigma(1 1)= -7.32804436E-05  sigma(3 2)=  1.62001103E-13
  sigma(2 2)= -7.28383897E-05  sigma(3 1)= -3.01697382E-13
  sigma(3 3)= -7.32804436E-05  sigma(2 1)=  1.62001248E-13


--- !ResultsGS
iteration_state: {dtset: 1, }
comment   : Summary of ground state results
lattice_vectors:
- [  0.0000000,   9.9240919,  10.6578571, ]
- [ 10.6578571,   0.0000000,  10.6578571, ]
- [ 10.6578571,   9.9240919,   0.0000000, ]
lattice_lengths: [  14.56288,   15.07249,   14.56288, ]
lattice_angles: [ 58.836,  62.329,  58.836, ] # degrees, (23, 13, 12)
lattice_volume:   2.2545536E+03
convergence: {deltae: -4.921E-09, res2:  7.272E-08, residm:  1.241E-03, diffor: null, }
etotal    :  -1.68335044E+02
entropy   :   0.00000000E+00
fermie    :  -8.22810879E-02
cartesian_stress_tensor: # hartree/bohr^3
- [ -7.32804436E-05,   1.62001248E-13,  -3.01697382E-13, ]
- [  1.62001248E-13,  -7.28383897E-05,   1.62001103E-13, ]
- [ -3.01697382E-13,   1.62001103E-13,  -7.32804436E-05, ]
pressure_GPa:   2.1516E+00
xred      :
- [  2.5000E-01,   2.5000E-01,   2.5000E-01, Cs]
- [  7.5000E-01,   7.5000E-01,   7.5000E-01, Cs]
- [  7.6920E-01,   2.3080E-01,   7.6920E-01, Cl]
- [  2.5286E-01,   2.5286E-01,   7.4714E-01,  I]
- [  7.4714E-01,   7.4714E-01,   2.5286E-01,  I]
- [  2.3080E-01,   7.6920E-01,   2.3080E-01, Cl]
- [  2.5286E-01,   7.4714E-01,   7.4714E-01,  I]
- [  7.4714E-01,   2.5286E-01,   2.5286E-01,  I]
- [  7.7167E-21,  -2.0649E-20,  -2.0800E-20, Hf]
cartesian_forces: # hartree/bohr
- [ -5.64688608E-22,  -7.52918160E-22,   3.28143219E-22, ]
- [ -5.64688684E-22,  -7.52918170E-22,   3.28143285E-22, ]
- [  4.95655260E-21,   5.30961329E-05,  -5.19309800E-21, ]
- [ -1.66977367E-16,   1.79320985E-16,   8.33024020E-06, ]
- [  1.66975602E-16,  -1.79321809E-16,  -8.33024020E-06, ]
- [ -9.99531323E-22,  -5.30961329E-05,   7.62985924E-22, ]
- [ -8.33024020E-06,  -1.79321644E-16,   1.66976283E-16, ]
- [  8.33024020E-06,   1.79320138E-16,  -1.66975627E-16, ]
- [ -5.64688632E-22,  -7.52918175E-22,   3.28143233E-22, ]
force_length_stats: {min:   9.96713074E-22, max:   5.30961329E-05, mean:   1.55014696E-05, }
...

 Integrated electronic density in atomic spheres:
 ------------------------------------------------
 Atom  Sphere_radius  Integrated_density
    1        2.20660          5.37260005
    2        2.20660          5.37260005
    3        1.80316          4.36798666
    4        2.30022          4.02578552
    5        2.30022          4.02578552
    6        1.80316          4.36798666
    7        2.30022          4.02578552
    8        2.30022          4.02578552
    9        2.41000          9.31157658

 PAW TEST:
 ==== Compensation charge inside spheres ============
 The following values must be close to each other ...
 Compensation charge over spherical meshes =     -0.883564658842057
 Compensation charge over fine fft grid    =     -0.883538189253687

 ==== Results concerning PAW augmentation regions ====

 Total pseudopotential strength Dij (hartree):
 Atom #  1
   0.43752  -0.14489   0.00000   0.00000   0.00000   0.00000   0.00000   0.00000   0.00000   0.00000   0.00000   0.00000 ...
  -0.14489   0.04364   0.00000   0.00000   0.00000   0.00000   0.00000   0.00000   0.00000   0.00000  -0.00000   0.00000 ...
   0.00000   0.00000  -0.09322   0.00000   0.00000  -0.16679   0.00000   0.00000   0.00000   0.00000   0.00000  -0.00000 ...
   0.00000   0.00000   0.00000  -0.09322   0.00000   0.00000  -0.16679   0.00000  -0.00000   0.00000   0.00000   0.00000 ...
   0.00000   0.00000   0.00000   0.00000  -0.09322   0.00000   0.00000  -0.16679   0.00000  -0.00000   0.00000   0.00000 ...
   0.00000   0.00000  -0.16679   0.00000   0.00000   0.40322   0.00000   0.00000   0.00000   0.00000   0.00000   0.00000 ...
   0.00000   0.00000   0.00000  -0.16679   0.00000   0.00000   0.40322   0.00000   0.00000   0.00000   0.00000   0.00000 ...
   0.00000   0.00000   0.00000   0.00000  -0.16679   0.00000   0.00000   0.40322   0.00000   0.00000   0.00000   0.00000 ...
   0.00000   0.00000   0.00000  -0.00000   0.00000   0.00000   0.00000   0.00000   0.00528   0.00000   0.00000   0.00000 ...
   0.00000   0.00000   0.00000   0.00000  -0.00000   0.00000   0.00000   0.00000   0.00000   0.00528   0.00000   0.00000 ...
   0.00000  -0.00000   0.00000   0.00000   0.00000   0.00000   0.00000   0.00000   0.00000   0.00000   0.00528   0.00000 ...
   0.00000   0.00000  -0.00000   0.00000   0.00000   0.00000   0.00000   0.00000   0.00000   0.00000   0.00000   0.00528 ...
   ...  only 12  components have been written...
 Atom #  9
  -3.51640   0.42753   0.00000   0.00000   0.00000   0.00000   0.00000   0.00000   0.00000   0.00000  -0.00019   0.00000 ...
   0.42753   0.00300   0.00000   0.00000   0.00000   0.00000   0.00000   0.00000   0.00000   0.00000   0.00003   0.00000 ...
   0.00000   0.00000  -1.45188   0.00000   0.00000   0.12259   0.00000   0.00000   0.00000   0.00000   0.00000   0.00000 ...
   0.00000   0.00000   0.00000  -1.45323   0.00000   0.00000   0.12282   0.00000   0.00000   0.00000   0.00000   0.00000 ...
   0.00000   0.00000   0.00000   0.00000  -1.45323   0.00000   0.00000   0.12282   0.00000   0.00000   0.00000   0.00000 ...
   0.00000   0.00000   0.12259   0.00000   0.00000   0.01352   0.00000   0.00000   0.00000   0.00000   0.00000   0.00000 ...
   0.00000   0.00000   0.00000   0.12282   0.00000   0.00000   0.01349   0.00000   0.00000   0.00000   0.00000   0.00000 ...
   0.00000   0.00000   0.00000   0.00000   0.12282   0.00000   0.00000   0.01349   0.00000   0.00000   0.00000   0.00000 ...
   0.00000   0.00000   0.00000   0.00000   0.00000   0.00000   0.00000   0.00000  -0.39329   0.00000   0.00000   0.00000 ...
   0.00000   0.00000   0.00000   0.00000   0.00000   0.00000   0.00000   0.00000   0.00000  -0.39329   0.00000   0.00000 ...
  -0.00019   0.00003   0.00000   0.00000   0.00000   0.00000   0.00000   0.00000   0.00000   0.00000  -0.39279   0.00000 ...
   0.00000   0.00000   0.00000   0.00000   0.00000   0.00000   0.00000   0.00000   0.00000   0.00000   0.00000  -0.39354 ...
   ...  only 12  components have been written...


 Augmentation waves occupancies Rhoij:
 Atom #  1
   1.99845  -0.01293   0.00000   0.00000   0.00000   0.00000   0.00000   0.00000   0.00000   0.00000   0.00088   0.00000 ...
  -0.01293   0.19832   0.00000   0.00000   0.00000   0.00000   0.00000   0.00000   0.00000   0.00000  -0.01442   0.00000 ...
   0.00000   0.00000   2.00886   0.00000   0.00000  -0.00510   0.00000   0.00000   0.00000   0.00000   0.00000  -0.00148 ...
   0.00000   0.00000   0.00000   2.00753   0.00000   0.00000  -0.00474   0.00000  -0.00192   0.00000   0.00000   0.00000 ...
   0.00000   0.00000   0.00000   0.00000   2.00753   0.00000   0.00000  -0.00474   0.00000  -0.00192   0.00000   0.00000 ...
   0.00000   0.00000  -0.00510   0.00000   0.00000   0.00017   0.00000   0.00000   0.00000   0.00000   0.00000   0.00005 ...
   0.00000   0.00000   0.00000  -0.00474   0.00000   0.00000   0.00013   0.00000   0.00007   0.00000   0.00000   0.00000 ...
   0.00000   0.00000   0.00000   0.00000  -0.00474   0.00000   0.00000   0.00013   0.00000   0.00007   0.00000   0.00000 ...
   0.00000   0.00000   0.00000  -0.00192   0.00000   0.00000   0.00007   0.00000   0.08811   0.00000   0.00000   0.00000 ...
   0.00000   0.00000   0.00000   0.00000  -0.00192   0.00000   0.00000   0.00007   0.00000   0.08811   0.00000   0.00000 ...
   0.00088  -0.01442   0.00000   0.00000   0.00000   0.00000   0.00000   0.00000   0.00000   0.00000   0.05451   0.00000 ...
   0.00000   0.00000  -0.00148   0.00000   0.00000   0.00005   0.00000   0.00000   0.00000   0.00000   0.00000   0.02284 ...
   ...  only 12  components have been written...
 Atom #  9
   1.99791  -0.02116   0.00000   0.00000   0.00000   0.00000   0.00000   0.00000   0.00000   0.00000  -0.00072   0.00000 ...
  -0.02116   1.01155   0.00000   0.00000   0.00000   0.00000   0.00000   0.00000   0.00000   0.00000  -0.04721   0.00000 ...
   0.00000   0.00000   1.99217   0.00000   0.00000  -0.07090   0.00000   0.00000   0.00000   0.00000   0.00000   0.00000 ...
   0.00000   0.00000   0.00000   1.99305   0.00000   0.00000  -0.05897   0.00000   0.00000   0.00000   0.00000   0.00000 ...
   0.00000   0.00000   0.00000   0.00000   1.99305   0.00000   0.00000  -0.05897   0.00000   0.00000   0.00000   0.00000 ...
   0.00000   0.00000  -0.07090   0.00000   0.00000   1.56236   0.00000   0.00000   0.00000   0.00000   0.00000   0.00000 ...
   0.00000   0.00000   0.00000  -0.05897   0.00000   0.00000   1.17447   0.00000   0.00000   0.00000   0.00000   0.00000 ...
   0.00000   0.00000   0.00000   0.00000  -0.05897   0.00000   0.00000   1.17447   0.00000   0.00000   0.00000   0.00000 ...
   0.00000   0.00000   0.00000   0.00000   0.00000   0.00000   0.00000   0.00000   0.52292   0.00000   0.00000   0.00000 ...
   0.00000   0.00000   0.00000   0.00000   0.00000   0.00000   0.00000   0.00000   0.00000   0.52292   0.00000   0.00000 ...
  -0.00072  -0.04721   0.00000   0.00000   0.00000   0.00000   0.00000   0.00000   0.00000   0.00000   1.41896   0.00000 ...
   0.00000   0.00000   0.00000   0.00000   0.00000   0.00000   0.00000   0.00000   0.00000   0.00000   0.00000   0.44319 ...
   ...  only 12  components have been written...


================================================================================

 ----iterations are completed or convergence reached----

 Mean square residual over all n,k,spin=   16.874E-07; max=  12.409E-04
 reduced coordinates (array xred) for    9 atoms
       0.250000000000      0.250000000000      0.250000000000
       0.750000000000      0.750000000000      0.750000000000
       0.769201851840      0.230798148160      0.769201851840
       0.252864079320      0.252864079320      0.747135920680
       0.747135920680      0.747135920680      0.252864079320
       0.230798148160      0.769201851840      0.230798148160
       0.252864079320      0.747135920680      0.747135920680
       0.747135920680      0.252864079320      0.252864079320
       0.000000000000     -0.000000000000     -0.000000000000
 rms dE/dt=  2.0849E-04; max dE/dt=  5.2693E-04; dE/dt below (all hartree)
    1       0.000000000000     -0.000000000000     -0.000000000000
    2      -0.000000000000      0.000000000000      0.000000000000
    3      -0.000526930904      0.000000000000     -0.000526930904
    4      -0.000088782509     -0.000088782509      0.000000000000
    5       0.000088782509      0.000088782509      0.000000000000
    6       0.000526930904      0.000000000000      0.000526930904
    7      -0.000000000000      0.000088782509      0.000088782509
    8       0.000000000000     -0.000088782509     -0.000088782509
    9       0.000000000000      0.000000000000      0.000000000000

 cartesian coordinates (angstrom) at end:
    1      2.81994752347383     2.62580163491202     2.81994752347383
    2      8.45984257042148     7.87740490473606     8.45984257042148
    3      5.63989504688678     8.07908592055530     5.63989504688678
    4      5.63989504689177     5.25160326982404     2.85225373701569
    5      5.63989504700353     5.25160326982404     8.42753635687961
    6      5.63989504700852     2.42412061909278     5.63989504700852
    7      8.42753635687961     5.25160326982404     5.63989504700353
    8      2.85225373701569     5.25160326982404     5.63989504689177
    9     -0.00000000000000    -0.00000000000000    -0.00000000000000

 cartesian forces (hartree/bohr) at end:
    1     -0.00000000000000    -0.00000000000000     0.00000000000000
    2     -0.00000000000000    -0.00000000000000     0.00000000000000
    3      0.00000000000000     0.00005309613289    -0.00000000000000
    4     -0.00000000000000     0.00000000000000     0.00000833024020
    5      0.00000000000000    -0.00000000000000    -0.00000833024020
    6     -0.00000000000000    -0.00005309613289     0.00000000000000
    7     -0.00000833024020    -0.00000000000000     0.00000000000000
    8      0.00000833024020     0.00000000000000    -0.00000000000000
    9     -0.00000000000000    -0.00000000000000     0.00000000000000
 frms,max,avg= 1.4802365E-05 5.3096133E-05   0.000E+00  0.000E+00  0.000E+00 h/b

 cartesian forces (eV/Angstrom) at end:
    1     -0.00000000000000    -0.00000000000000     0.00000000000000
    2     -0.00000000000000    -0.00000000000000     0.00000000000000
    3      0.00000000000000     0.00273031270064    -0.00000000000000
    4     -0.00000000000001     0.00000000000001     0.00042835813773
    5      0.00000000000001    -0.00000000000001    -0.00042835813773
    6     -0.00000000000000    -0.00273031270064     0.00000000000000
    7     -0.00042835813773    -0.00000000000001     0.00000000000001
    8      0.00042835813773     0.00000000000001    -0.00000000000001
    9     -0.00000000000000    -0.00000000000000     0.00000000000000
 frms,max,avg= 7.6116815E-04 2.7303127E-03   0.000E+00  0.000E+00  0.000E+00 e/A
 length scales= 14.562881509000 15.072485996000 14.562881509000 bohr
              =  7.706344985960  7.976016065875  7.706344985960 angstroms
 prteigrs : about to open file Cs2TiI6o_DS1_EIG
 Fermi (or HOMO) energy (hartree) =  -0.08228   Average Vxc (hartree)=  -0.30836
 Eigenvalues (hartree) for nkpt= 163  k points:
 kpt#   1, nband= 42, wtk=  0.00058, kpt=  0.0000  0.0000  0.0000 (reduced coord)
  -2.38182   -1.22717   -1.22656   -1.22656   -0.83011   -0.82971   -0.61588   -0.60435
  -0.51619   -0.50197   -0.50197   -0.49631   -0.35552   -0.35110   -0.35110   -0.34854
  -0.34854   -0.34834   -0.25195   -0.19663   -0.19663   -0.19161   -0.19071   -0.19047
  -0.19047   -0.16906   -0.14959   -0.14132   -0.14132   -0.11303   -0.11224   -0.10474
  -0.10474   -0.09399   -0.09399   -0.08228   -0.00869    0.00779    0.00779    0.06240
   0.07872    0.08476
 prteigrs : prtvol=0 or 1, do not print more k-points.


--- !EnergyTerms
iteration_state     : {dtset: 1, }
comment             : Components of total free energy in Hartree
kinetic             :  4.25350104091370E+01
hartree             :  3.44686541440218E+01
xc                  : -5.77340023208731E+01
Ewald energy        : -1.24362623961429E+02
psp_core            :  1.71321808943872E+01
local_psp           : -7.86345684392693E+01
spherical_terms     : -1.73980513041865E+00
total_energy        : -1.68335154404444E+02
total_energy_eV     : -4.58063250363170E+03
...


--- !EnergyTermsDC
iteration_state     : {dtset: 1, }
comment             : '"Double-counting" decomposition of free energy'
band_energy         : -3.17419952591142E+01
Ewald energy        : -1.24362623961429E+02
psp_core            :  1.71321808943872E+01
xc_dc               : -5.35354865422126E+01
spherical_terms     :  2.41728804243411E+01
total_energy_dc     : -1.68335044444028E+02
total_energy_dc_eV  : -4.58062951145660E+03
...


 Cartesian components of stress tensor (hartree/bohr^3)
  sigma(1 1)= -7.32804436E-05  sigma(3 2)=  1.62001103E-13
  sigma(2 2)= -7.28383897E-05  sigma(3 1)= -3.01697382E-13
  sigma(3 3)= -7.32804436E-05  sigma(2 1)=  1.62001248E-13

-Cartesian components of stress tensor (GPa)         [Pressure=  2.1516E+00 GPa]
- sigma(1 1)= -2.15598472E+00  sigma(3 2)=  4.76623620E-09
- sigma(2 2)= -2.14297905E+00  sigma(3 1)= -8.87624193E-09
- sigma(3 3)= -2.15598472E+00  sigma(2 1)=  4.76624047E-09

================================================================================
== DATASET  2 ==================================================================
-   mpi_nproc: 4, omp_nthreads: -1 (-1 if OMP is not activated)


--- !DatasetInfo
iteration_state: {dtset: 2, }
dimensions: {natom: 9, nkpt: 163, mband: 42, nsppol: 1, nspinor: 1, nspden: 1, mpw: 6910, }
cutoff_energies: {ecut:  16.0, pawecutdg:  40.0, }
electrons: {nelect:   7.20000000E+01, charge:   0.00000000E+00, occopt:   1.00000000E+00, tsmear:   1.00000000E-02, }
meta: {optdriver: 0, ionmov: 0, optcell: 0, iscf: 17, paral_kgb: 0, }
...

 Real(R)+Recip(G) space primitive vectors, cartesian coordinates (Bohr,Bohr^-1):
 R(1)=  0.0000000  9.9139733 10.6472877  G(1)= -0.0469603  0.0504339  0.0469603
 R(2)= 10.6472877  0.0000000 10.6472877  G(2)=  0.0469603 -0.0504339  0.0469603
 R(3)= 10.6472877  9.9139733  0.0000000  G(3)=  0.0469603  0.0504339 -0.0469603
 Unit cell volume ucvol=  2.2477899E+03 bohr^3
 Angles (23,13,12)=  5.88350667E+01  6.23298666E+01  5.88350667E+01 degrees

 Coarse grid specifications (used for wave-functions):

 getcut: wavevector=  0.0000  0.0000  0.0000  ngfft=  60  60  60
         ecut(hartree)=     16.000   => boxcut(ratio)=   2.21295

 getcut : COMMENT -
  Note that boxcut > 2.2 ; recall that boxcut=Gcut(box)/Gcut(sphere) = 2
  is sufficient for exact treatment of convolution.
  Such a large boxcut is a waste : you could raise ecut
  e.g. ecut=   19.588640 Hartrees makes boxcut=2


 Fine grid specifications (used for densities):

 getcut: wavevector=  0.0000  0.0000  0.0000  ngfft=  90  90  90
         ecut(hartree)=     40.000   => boxcut(ratio)=   2.09969

--- Pseudopotential description ------------------------------------------------
- pspini: atom type   1  psp file is ../../../Psps_for_tests/ATOMICDATA/Cs.GGA_PBE-JTH.xml
- pspatm: opening atomic psp file    ../../../Psps_for_tests/ATOMICDATA/Cs.GGA_PBE-JTH.xml
- pspatm : Reading pseudopotential header in XML form from ../../../Psps_for_tests/ATOMICDATA/Cs.GGA_PBE-JTH.xml
 Pseudopotential format is: paw10
 basis_size (lnmax)=  6 (lmn_size= 18), orbitals=   0   0   1   1   2   2
 Spheres core radius: rc_sph= 2.20660278
 1 radial meshes are used:
  - mesh 1: r(i)=AA*[exp(BB*(i-1))-1], size=1500 , AA= 0.15922E-03 BB= 0.87573E-02
 Shapefunction is SIN type: shapef(r)=[sin(pi*r/rshp)/(pi*r/rshp)]**2
 Radius for shape functions =  2.00394208
 mmax= 1500
 Radial grid used for partial waves is grid 1
 Radial grid used for projectors is grid 1
 Radial grid used for (t)core density is grid 1
 Radial grid used for Vloc is grid 1
 Radial grid used for pseudo valence density is grid 1
 Mesh size for Vloc has been set to 1341 to avoid numerical noise.
 Compensation charge density is not taken into account in XC energy/potential
 pspatm: atomic psp has been read  and splines computed

- pspini: atom type   2  psp file is ../../../Psps_for_tests/ATOMICDATA/I.GGA_PBE-JTH.xml
- pspatm: opening atomic psp file    ../../../Psps_for_tests/ATOMICDATA/I.GGA_PBE-JTH.xml
- pspatm : Reading pseudopotential header in XML form from ../../../Psps_for_tests/ATOMICDATA/I.GGA_PBE-JTH.xml
 Pseudopotential format is: paw10
 basis_size (lnmax)=  4 (lmn_size=  8), orbitals=   0   0   1   1
 Spheres core radius: rc_sph= 2.30022271
 1 radial meshes are used:
  - mesh 1: r(i)=AA*[exp(BB*(i-1))-1], size=2000 , AA= 0.12610E-03 BB= 0.66836E-02
 Shapefunction is SIN type: shapef(r)=[sin(pi*r/rshp)/(pi*r/rshp)]**2
 Radius for shape functions =  2.10879093
 mmax= 2000
 Radial grid used for partial waves is grid 1
 Radial grid used for projectors is grid 1
 Radial grid used for (t)core density is grid 1
 Radial grid used for Vloc is grid 1
 Radial grid used for pseudo valence density is grid 1
 Mesh size for Vloc has been set to 1792 to avoid numerical noise.
 Compensation charge density is not taken into account in XC energy/potential
 pspatm: atomic psp has been read  and splines computed

- pspini: atom type   3  psp file is ../../../Psps_for_tests/ATOMICDATA/Hf.GGA_PBE-JTH.xml
- pspatm: opening atomic psp file    ../../../Psps_for_tests/ATOMICDATA/Hf.GGA_PBE-JTH.xml
- pspatm : Reading pseudopotential header in XML form from ../../../Psps_for_tests/ATOMICDATA/Hf.GGA_PBE-JTH.xml
 Pseudopotential format is: paw10
 basis_size (lnmax)=  6 (lmn_size= 18), orbitals=   0   0   1   1   2   2
 Spheres core radius: rc_sph= 2.41000000
 1 radial meshes are used:
  - mesh 1: r(i)=AA*[exp(BB*(i-1))-1], size= 972 , AA= 0.19796E-03 BB= 0.14253E-01
 Shapefunction is SIN type: shapef(r)=[sin(pi*r/rshp)/(pi*r/rshp)]**2
 Radius for shape functions =  2.41000000
 mmax=  972
 Radial grid used for partial waves is grid 1
 Radial grid used for projectors is grid 1
 Radial grid used for (t)core density is grid 1
 Radial grid used for Vloc is grid 1
 Radial grid used for pseudo valence density is grid 1
 Mesh size for Vloc has been set to  809 to avoid numerical noise.
 Compensation charge density is not taken into account in XC energy/potential
 pspatm: atomic psp has been read  and splines computed

- pspini: atom type   4  psp file is ../../../Psps_for_tests/ATOMICDATA/Cl.GGA_PBE-JTH.xml
- pspatm: opening atomic psp file    ../../../Psps_for_tests/ATOMICDATA/Cl.GGA_PBE-JTH.xml
- pspatm : Reading pseudopotential header in XML form from ../../../Psps_for_tests/ATOMICDATA/Cl.GGA_PBE-JTH.xml
 Pseudopotential format is: paw10
 basis_size (lnmax)=  4 (lmn_size=  8), orbitals=   0   0   1   1
 Spheres core radius: rc_sph= 1.80315674
 1 radial meshes are used:
  - mesh 1: r(i)=AA*[exp(BB*(i-1))-1], size=1400 , AA= 0.50355E-03 BB= 0.85603E-02
 Shapefunction is SIN type: shapef(r)=[sin(pi*r/rshp)/(pi*r/rshp)]**2
 Radius for shape functions =  1.61320365
 mmax= 1400
 Radial grid used for partial waves is grid 1
 Radial grid used for projectors is grid 1
 Radial grid used for (t)core density is grid 1
 Radial grid used for Vloc is grid 1
 Radial grid used for pseudo valence density is grid 1
 Mesh size for Vloc has been set to 1238 to avoid numerical noise.
 Compensation charge density is not taken into account in XC energy/potential
 pspatm: atomic psp has been read  and splines computed

--------------------------------------------------------------------------------

_setup2: Arith. and geom. avg. npw (full set) are    6871.106    6871.097

================================================================================

--- !BeginCycle
iteration_state: {dtset: 2, }
solver: {iscf: 17, nstep: 2500, nline: 4, wfoptalg: 10, }
tolerances: {toldfe: 1.00E-08, }
...

     iter   Etot(hartree)      deltaE(h)  residm     nres2
 ETOT  1  -166.34147732760    -1.663E+02 9.746E+00 6.099E+00
 ETOT  2  -168.35563045393    -2.014E+00 3.761E-02 4.711E+00
 ETOT  3  -168.33408401766     2.155E-02 2.964E-02 7.783E-01
 ETOT  4  -168.33426203519    -1.780E-04 7.076E-03 1.314E-01
 ETOT  5  -168.33442305688    -1.610E-04 8.059E-03 2.638E-02
 ETOT  6  -168.33449627408    -7.322E-05 4.048E-03 1.779E-03
 ETOT  7  -168.33450221319    -5.939E-06 3.477E-03 4.446E-04
 ETOT  8  -168.33450896221    -6.749E-06 3.697E-03 1.692E-04
 ETOT  9  -168.33450905516    -9.295E-08 2.430E-03 9.212E-06
 ETOT 10  -168.33450924946    -1.943E-07 2.920E-03 3.562E-06
 ETOT 11  -168.33450925251    -3.050E-09 1.292E-03 1.702E-07
 ETOT 12  -168.33450925910    -6.588E-09 1.911E-03 1.386E-07

 At SCF step   12, etot is converged : 
  for the second time, diff in etot=  6.588E-09 < toldfe=  1.000E-08

 Cartesian components of stress tensor (hartree/bohr^3)
  sigma(1 1)= -7.53950187E-05  sigma(3 2)=  1.05459097E-13
  sigma(2 2)= -7.49137858E-05  sigma(3 1)= -1.96390101E-13
  sigma(3 3)= -7.53950187E-05  sigma(2 1)=  1.05460213E-13


--- !ResultsGS
iteration_state: {dtset: 2, }
comment   : Summary of ground state results
lattice_vectors:
- [  0.0000000,   9.9139733,  10.6472877, ]
- [ 10.6472877,   0.0000000,  10.6472877, ]
- [ 10.6472877,   9.9139733,   0.0000000, ]
lattice_lengths: [  14.54825,   15.05754,   14.54825, ]
lattice_angles: [ 58.835,  62.330,  58.835, ] # degrees, (23, 13, 12)
lattice_volume:   2.2477899E+03
convergence: {deltae: -6.588E-09, res2:  1.386E-07, residm:  1.911E-03, diffor: null, }
etotal    :  -1.68334509E+02
entropy   :   0.00000000E+00
fermie    :  -8.17681584E-02
cartesian_stress_tensor: # hartree/bohr^3
- [ -7.53950187E-05,   1.05460213E-13,  -1.96390101E-13, ]
- [  1.05460213E-13,  -7.49137858E-05,   1.05459097E-13, ]
- [ -1.96390101E-13,   1.05459097E-13,  -7.53950187E-05, ]
pressure_GPa:   2.2135E+00
xred      :
- [  2.5000E-01,   2.5000E-01,   2.5000E-01, Cs]
- [  7.5000E-01,   7.5000E-01,   7.5000E-01, Cs]
- [  7.6899E-01,   2.3101E-01,   7.6899E-01, Cl]
- [  2.5304E-01,   2.5304E-01,   7.4696E-01,  I]
- [  7.4696E-01,   7.4696E-01,   2.5304E-01,  I]
- [  2.3101E-01,   7.6899E-01,   2.3101E-01, Cl]
- [  2.5304E-01,   7.4696E-01,   7.4696E-01,  I]
- [  7.4696E-01,   2.5304E-01,   2.5304E-01,  I]
- [  7.0262E-21,  -2.0484E-20,  -2.0429E-20, Hf]
cartesian_forces: # hartree/bohr
- [ -4.70573101E-23,   4.70570600E-23,  -5.21888125E-23, ]
- [ -4.70570446E-23,   4.70571823E-23,  -5.21887745E-23, ]
- [  8.46157034E-22,   4.09354687E-05,  -9.45403081E-22, ]
- [ -3.64893541E-17,   3.91888735E-17,   2.81277292E-06, ]
- [  3.64894191E-17,  -3.91889503E-17,  -2.81277292E-06, ]
- [ -9.40271806E-22,  -4.09354687E-05,   8.41025759E-22, ]
- [ -2.81277292E-06,  -3.91891620E-17,   3.64896257E-17, ]
- [  2.81277292E-06,   3.91888326E-17,  -3.64893066E-17, ]
- [ -4.70573860E-23,   4.70573860E-23,  -5.21886607E-23, ]
force_length_stats: {min:   8.45719341E-23, max:   4.09354687E-05, mean:   1.03468921E-05, }
...

 Integrated electronic density in atomic spheres:
 ------------------------------------------------
 Atom  Sphere_radius  Integrated_density
    1        2.20660          5.37514833
    2        2.20660          5.37514833
    3        1.80316          4.37628524
    4        2.30022          4.02598245
    5        2.30022          4.02598245
    6        1.80316          4.37628524
    7        2.30022          4.02598245
    8        2.30022          4.02598245
    9        2.41000          9.31306967

 PAW TEST:
 ==== Compensation charge inside spheres ============
 The following values must be close to each other ...
[...]
                       8.3565871585E+00  5.1976625442E+00  5.6011239930E+00
                       2.8456608276E+00  5.1976625442E+00  5.6011239930E+00
                      -2.3089415725E-19 -6.6731560017E-20 -7.4529546124E-20
           xangst10    2.7983378363E+00  2.5950922308E+00  2.7983378363E+00
                       8.3950135090E+00  7.7852766923E+00  8.3950135090E+00
                       5.5966756727E+00  7.9582068877E+00  5.5966756727E+00
                       5.5966756727E+00  5.1901844616E+00  2.8448532861E+00
                       5.5966756727E+00  5.1901844616E+00  8.3484980593E+00
                       5.5966756727E+00  2.4221620354E+00  5.5966756727E+00
                       8.3484980593E+00  5.1901844616E+00  5.5966756727E+00
                       2.8448532861E+00  5.1901844616E+00  5.5966756727E+00
                      -2.4102748874E-19 -6.9862541800E-20 -7.1978487380E-20
            xcart1     5.3289285285E+00  4.9620459693E+00  5.3289285285E+00
                       1.5986785585E+01  1.4886137908E+01  1.5986785585E+01
                       1.0657857057E+01  1.5267259794E+01  1.0657857057E+01
                       1.0657857057E+01  9.9240919385E+00  5.3899784245E+00
                       1.0657857057E+01  9.9240919385E+00  1.5925735689E+01
                       1.0657857057E+01  4.5809240832E+00  1.0657857057E+01
                       1.5925735689E+01  9.9240919385E+00  1.0657857057E+01
                       5.3899784245E+00  9.9240919385E+00  1.0657857057E+01
                      -4.4175081749E-19 -1.2983718714E-19 -1.3782648785E-19
            xcart2     5.3236438348E+00  4.9569866449E+00  5.3236438348E+00
                       1.5970931504E+01  1.4870959935E+01  1.5970931504E+01
                       1.0647287670E+01  1.5247438498E+01  1.0647287670E+01
                       1.0647287670E+01  9.9139732898E+00  5.3883872235E+00
                       1.0647287670E+01  9.9139732898E+00  1.5906188116E+01
                       1.0647287670E+01  4.5805080819E+00  1.0647287670E+01
                       1.5906188116E+01  9.9139732898E+00  1.0647287670E+01
                       5.3883872235E+00  9.9139732898E+00  1.0647287670E+01
                      -4.3561239511E-19 -1.3287387378E-19 -1.4329020831E-19
            xcart3     5.3193333617E+00  4.9501136262E+00  5.3193333617E+00
                       1.5958000085E+01  1.4850340879E+01  1.5958000085E+01
                       1.0638666723E+01  1.5220476372E+01  1.0638666723E+01
                       1.0638666723E+01  9.9002272524E+00  5.3869016076E+00
                       1.0638666724E+01  9.9002272524E+00  1.5890431839E+01
                       1.0638666724E+01  4.5799781323E+00  1.0638666724E+01
                       1.5890431839E+01  9.9002272524E+00  1.0638666724E+01
                       5.3869016076E+00  9.9002272524E+00  1.0638666723E+01
                      -4.4223759277E-19 -1.3116607247E-19 -1.3703215724E-19
            xcart4     5.3147000026E+00  4.9438423662E+00  5.3147000026E+00
                       1.5944100008E+01  1.4831527099E+01  1.5944100008E+01
                       1.0629400005E+01  1.5195818404E+01  1.0629400005E+01
                       1.0629400005E+01  9.8876847325E+00  5.3853573207E+00
                       1.0629400005E+01  9.8876847325E+00  1.5873442690E+01
                       1.0629400005E+01  4.5795510609E+00  1.0629400005E+01
                       1.5873442690E+01  9.8876847325E+00  1.0629400005E+01
                       5.3853573207E+00  9.8876847325E+00  1.0629400005E+01
                      -4.4057131904E-19 -1.2936087059E-19 -1.3745848371E-19
            xcart5     5.3099804169E+00  4.9377319846E+00  5.3099804169E+00
                       1.5929941251E+01  1.4813195954E+01  1.5929941251E+01
                       1.0619960834E+01  1.5171908239E+01  1.0619960834E+01
                       1.0619960834E+01  9.8754639692E+00  5.3837600587E+00
                       1.0619960834E+01  9.8754639692E+00  1.5856161609E+01
                       1.0619960834E+01  4.5790196991E+00  1.0619960834E+01
                       1.5856161609E+01  9.8754639692E+00  1.0619960834E+01
                       5.3837600587E+00  9.8754639692E+00  1.0619960834E+01
                      -4.4018008075E-19 -1.2920098598E-19 -1.3733641716E-19
            xcart6     5.3052498440E+00  4.9316424294E+00  5.3052498440E+00
                       1.5915749532E+01  1.4794927288E+01  1.5915749532E+01
                       1.0610499688E+01  1.5147965390E+01  1.0610499688E+01
                       1.0610499688E+01  9.8632848587E+00  5.3821439970E+00
                       1.0610499688E+01  9.8632848587E+00  1.5838855379E+01
                       1.0610499688E+01  4.5786043271E+00  1.0610499688E+01
                       1.5838855379E+01  9.8632848587E+00  1.0610499688E+01
                       5.3821439970E+00  9.8632848587E+00  1.0610499688E+01
                      -4.3769181740E-19 -1.2612937744E-19 -1.3913424448E-19
            xcart7     5.3009371700E+00  4.9247766807E+00  5.3009371700E+00
                       1.5902811510E+01  1.4774330042E+01  1.5902811510E+01
                       1.0601874340E+01  1.5120902120E+01  1.0601874340E+01
                       1.0601874340E+01  9.8495533613E+00  5.3806679351E+00
                       1.0601874340E+01  9.8495533613E+00  1.5823080745E+01
                       1.0601874340E+01  4.5782046023E+00  1.0601874340E+01
                       1.5823080745E+01  9.8495533613E+00  1.0601874340E+01
                       5.3806679351E+00  9.8495533613E+00  1.0601874340E+01
                      -4.3975652390E-19 -1.2890793105E-19 -1.3677483840E-19
            xcart8     5.2965641401E+00  4.9180241211E+00  5.2965641401E+00
                       1.5889692420E+01  1.4754072363E+01  1.5889692420E+01
                       1.0593128280E+01  1.5094246126E+01  1.0593128280E+01
                       1.0593128280E+01  9.8360482423E+00  5.3790827508E+00
                       1.0593128280E+01  9.8360482423E+00  1.5807173810E+01
                       1.0593128280E+01  4.5778503588E+00  1.0593128280E+01
                       1.5807173810E+01  9.8360482423E+00  1.0593128280E+01
                       5.3790827508E+00  9.8360482423E+00  1.0593128280E+01
                      -4.3675192611E-19 -1.2373519831E-19 -1.3209760427E-19
            xcart9     5.2922951916E+00  4.9110793698E+00  5.2922951916E+00
                       1.5876885575E+01  1.4733238109E+01  1.5876885575E+01
                       1.0584590383E+01  1.5066785968E+01  1.0584590383E+01
                       1.0584590383E+01  9.8221587397E+00  5.3775196312E+00
                       1.0584590383E+01  9.8221587397E+00  1.5791661135E+01
                       1.0584590383E+01  4.5775315112E+00  1.0584590383E+01
                       1.5791661135E+01  9.8221587397E+00  1.0584590383E+01
                       5.3775196312E+00  9.8221587397E+00  1.0584590383E+01
                      -4.3632672288E-19 -1.2610437285E-19 -1.4084043098E-19
            xcart10    5.2880921380E+00  4.9040136057E+00  5.2880921380E+00
                       1.5864276414E+01  1.4712040817E+01  1.5864276414E+01
                       1.0576184276E+01  1.5038831527E+01  1.0576184276E+01
                       1.0576184276E+01  9.8080272115E+00  5.3759935989E+00
                       1.0576184276E+01  9.8080272115E+00  1.5776374953E+01
                       1.0576184276E+01  4.5772228964E+00  1.0576184276E+01
                       1.5776374953E+01  9.8080272115E+00  1.0576184276E+01
                       5.3759935989E+00  9.8080272115E+00  1.0576184276E+01
                      -4.5547594421E-19 -1.3202107095E-19 -1.3601962861E-19
             xred1     2.5000000000E-01  2.5000000000E-01  2.5000000000E-01
                       7.5000000000E-01  7.5000000000E-01  7.5000000000E-01
                       7.6920185184E-01  2.3079814816E-01  7.6920185184E-01
                       2.5286407932E-01  2.5286407932E-01  7.4713592068E-01
                       7.4713592068E-01  7.4713592068E-01  2.5286407932E-01
                       2.3079814816E-01  7.6920185184E-01  2.3079814816E-01
                       2.5286407932E-01  7.4713592068E-01  7.4713592068E-01
                       7.4713592068E-01  2.5286407932E-01  2.5286407932E-01
                       7.7167141090E-21 -2.0648627824E-20 -2.0799743563E-20
             xred2     2.5000000000E-01  2.5000000000E-01  2.5000000000E-01
                       7.5000000000E-01  7.5000000000E-01  7.5000000000E-01
                       7.6898726938E-01  2.3101273062E-01  7.6898726938E-01
                       2.5304037003E-01  2.5304037003E-01  7.4695962997E-01
                       7.4695962997E-01  7.4695962997E-01  2.5304037003E-01
                       2.3101273062E-01  7.6898726938E-01  2.3101273062E-01
                       2.5304037003E-01  7.4695962997E-01  7.4695962997E-01
                       7.4695962997E-01  2.5304037003E-01  2.5304037003E-01
                       7.0261993049E-21 -2.0484106403E-20 -2.0428885584E-20
             xred3     2.5000000000E-01  2.5000000000E-01  2.5000000000E-01
                       7.5000000000E-01  7.5000000000E-01  7.5000000000E-01
                       7.6869328271E-01  2.3130671729E-01  7.6869328271E-01
                       2.5317559745E-01  2.5317559745E-01  7.4682440255E-01
                       7.4682440255E-01  7.4682440255E-01  2.5317559745E-01
                       2.3130671729E-01  7.6869328271E-01  2.3130671729E-01
                       2.5317559745E-01  7.4682440255E-01  7.4682440255E-01
                       7.4682440255E-01  2.5317559745E-01  2.5317559745E-01
                       7.7197610758E-21 -2.0600337261E-20 -2.0968555182E-20
             xred4     2.5000000000E-01  2.5000000000E-01  2.5000000000E-01
                       7.5000000000E-01  7.5000000000E-01  7.5000000000E-01
                       7.6842146646E-01  2.3157853354E-01  7.6842146646E-01
                       2.5332367387E-01  2.5332367387E-01  7.4667632613E-01
                       7.4667632613E-01  7.4667632613E-01  2.5332367387E-01
                       2.3157853354E-01  7.6842146646E-01  2.3157853354E-01
                       2.5332367387E-01  7.4667632613E-01  7.4667632613E-01
                       7.4667632613E-01  2.5332367387E-01  2.5332367387E-01
                       7.7167141090E-21 -2.0648627824E-20 -2.0799743563E-20
             xred5     2.5000000000E-01  2.5000000000E-01  2.5000000000E-01
                       7.5000000000E-01  7.5000000000E-01  7.5000000000E-01
                       7.6816179405E-01  2.3183820595E-01  7.6816179405E-01
                       2.5347363060E-01  2.5347363060E-01  7.4652636940E-01
                       7.4652636940E-01  7.4652636940E-01  2.5347363060E-01
                       2.3183820595E-01  7.6816179405E-01  2.3183820595E-01
                       2.5347363060E-01  7.4652636940E-01  7.4652636940E-01
                       7.4652636940E-01  2.5347363060E-01  2.5347363060E-01
                       7.7167141090E-21 -2.0648627824E-20 -2.0799743563E-20
             xred6     2.5000000000E-01  2.5000000000E-01  2.5000000000E-01
                       7.5000000000E-01  7.5000000000E-01  7.5000000000E-01
                       7.6789657844E-01  2.3210342156E-01  7.6789657844E-01
                       2.5362349349E-01  2.5362349349E-01  7.4637650651E-01
                       7.4637650651E-01  7.4637650651E-01  2.5362349349E-01
                       2.3210342156E-01  7.6789657844E-01  2.3210342156E-01
                       2.5362349349E-01  7.4637650651E-01  7.4637650651E-01
                       7.4637650651E-01  2.5362349349E-01  2.5362349349E-01
                       7.6750856219E-21 -2.0787968952E-20 -2.0462851488E-20
             xred7     2.5000000000E-01  2.5000000000E-01  2.5000000000E-01
                       7.5000000000E-01  7.5000000000E-01  7.5000000000E-01
                       7.6759328904E-01  2.3240671096E-01  7.6759328904E-01
                       2.5376022025E-01  2.5376022025E-01  7.4623977975E-01
                       7.4623977975E-01  7.4623977975E-01  2.5376022025E-01
                       2.3240671096E-01  7.6759328904E-01  2.3240671096E-01
                       2.5376022025E-01  7.4623977975E-01  7.4623977975E-01
                       7.4623977975E-01  2.5376022025E-01  2.5376022025E-01
                       7.7452157584E-21 -2.0646221186E-20 -2.0832908806E-20
             xred8     2.5000000000E-01  2.5000000000E-01  2.5000000000E-01
                       7.5000000000E-01  7.5000000000E-01  7.5000000000E-01
                       7.6729219672E-01  2.3270780328E-01  7.6729219672E-01
                       2.5389491227E-01  2.5389491227E-01  7.4610508773E-01
                       7.4610508773E-01  7.4610508773E-01  2.5389491227E-01
                       2.3270780328E-01  7.6729219672E-01  2.3270780328E-01
                       2.5389491227E-01  7.4610508773E-01  7.4610508773E-01
                       7.4610508773E-01  2.5389491227E-01  2.5389491227E-01
                       8.0899252926E-21 -2.0560047505E-20 -2.0669692620E-20
             xred9     2.5000000000E-01  2.5000000000E-01  2.5000000000E-01
                       7.5000000000E-01  7.5000000000E-01  7.5000000000E-01
                       7.6697935594E-01  2.3302064406E-01  7.6697935594E-01
                       2.5402587330E-01  2.5402587330E-01  7.4597412670E-01
                       7.4597412670E-01  7.4597412670E-01  2.5402587330E-01
                       2.3302064406E-01  7.6697935594E-01  2.3302064406E-01
                       2.5402587330E-01  7.4597412670E-01  7.4597412670E-01
                       7.4597412670E-01  2.5402587330E-01  2.5402587330E-01
                       7.5389426391E-21 -2.0845119438E-20 -2.0377706112E-20
             xred10    2.5000000000E-01  2.5000000000E-01  2.5000000000E-01
                       7.5000000000E-01  7.5000000000E-01  7.5000000000E-01
                       7.6665934965E-01  2.3334065035E-01  7.6665934965E-01
                       2.5415563206E-01  2.5415563206E-01  7.4584436794E-01
                       7.4584436794E-01  7.4584436794E-01  2.5415563206E-01
                       2.3334065035E-01  7.6665934965E-01  2.3334065035E-01
                       2.5415563206E-01  7.4584436794E-01  7.4584436794E-01
                       7.4584436794E-01  2.5415563206E-01  2.5415563206E-01
                       8.3723700540E-21 -2.1233306008E-20 -2.1832882357E-20
            znucl       55.00000   53.00000   72.00000   17.00000

================================================================================


- Timing analysis has been suppressed with timopt=0



================================================================================

 Suggested references for the acknowledgment of ABINIT usage.

 The users of ABINIT have little formal obligations with respect to the ABINIT group
 (those specified in the GNU General Public License, http://www.gnu.org/copyleft/gpl.txt).
 However, it is common practice in the scientific literature,
 to acknowledge the efforts of people that have made the research possible.
 In this spirit, please find below suggested citations of work written by ABINIT developers,
 corresponding to implementations inside of ABINIT that you have used in the present run.
 Note also that it will be of great value to readers of publications presenting these results,
 to read papers enabling them to understand the theoretical formalism and details
 of the ABINIT implementation.
 For information on why they are suggested, see also https://docs.abinit.org/theory/acknowledgments.
-
- [1] Implementation of the Projector Augmented-Wave Method in the ABINIT code.
- M. Torrent, F. Jollet, F. Bottin, G. Zerah, and X. Gonze Comput. Mat. Science 42, 337, (2008).
- Comment: PAW calculations. Strong suggestion to cite this paper.
- DOI and bibtex: see https://docs.abinit.org/theory/bibliography/#torrent2008
-
- [2] Libxc: A library of exchange and correlation functionals for density functional theory.
- M.A.L. Marques, M.J.T. Oliveira, T. Burnus, Computer Physics Communications 183, 2227 (2012).
- Comment: to be cited when LibXC is used (negative value of ixc)
- Strong suggestion to cite this paper.
- DOI and bibtex: see https://docs.abinit.org/theory/bibliography/#marques2012
-
- [3] The Abinit project: Impact, environment and recent developments.
- Computer Phys. Comm. 248, 107042 (2020).
- X.Gonze, B. Amadon, G. Antonius, F.Arnardi, L.Baguet, J.-M.Beuken,
- J.Bieder, F.Bottin, J.Bouchet, E.Bousquet, N.Brouwer, F.Bruneval,
- G.Brunin, T.Cavignac, J.-B. Charraud, Wei Chen, M.Cote, S.Cottenier,
- J.Denier, G.Geneste, Ph.Ghosez, M.Giantomassi, Y.Gillet, O.Gingras,
- D.R.Hamann, G.Hautier, Xu He, N.Helbig, N.Holzwarth, Y.Jia, F.Jollet,
- W.Lafargue-Dit-Hauret, K.Lejaeghere, M.A.L.Marques, A.Martin, C.Martins,
- H.P.C. Miranda, F.Naccarato, K. Persson, G.Petretto, V.Planes, Y.Pouillon,
- S.Prokhorenko, F.Ricci, G.-M.Rignanese, A.H.Romero, M.M.Schmitt, M.Torrent,
- M.J.van Setten, B.Van Troeye, M.J.Verstraete, G.Zerah and J.W.Zwanzig
- Comment: the fifth generic paper describing the ABINIT project.
- Note that a version of this paper, that is not formatted for Computer Phys. Comm. 
- is available at https://www.abinit.org/sites/default/files/ABINIT20.pdf .
- The licence allows the authors to put it on the Web.
- DOI and bibtex: see https://docs.abinit.org/theory/bibliography/#gonze2020
-
- [4] ABINIT: Overview, and focus on selected capabilities
- J. Chem. Phys. 152, 124102 (2020).
- A. Romero, D.C. Allan, B. Amadon, G. Antonius, T. Applencourt, L.Baguet,
- J.Bieder, F.Bottin, J.Bouchet, E.Bousquet, F.Bruneval,
- G.Brunin, D.Caliste, M.Cote,
- J.Denier, C. Dreyer, Ph.Ghosez, M.Giantomassi, Y.Gillet, O.Gingras,
- D.R.Hamann, G.Hautier, F.Jollet, G. Jomard,
- A.Martin, 
- H.P.C. Miranda, F.Naccarato, G.Petretto, N.A. Pike, V.Planes,
- S.Prokhorenko, T. Rangel, F.Ricci, G.-M.Rignanese, M.Royo, M.Stengel, M.Torrent,
- M.J.van Setten, B.Van Troeye, M.J.Verstraete, J.Wiktor, J.W.Zwanziger, and X.Gonze.
- Comment: a global overview of ABINIT, with focus on selected capabilities .
- Note that a version of this paper, that is not formatted for J. Chem. Phys 
- is available at https://www.abinit.org/sites/default/files/ABINIT20_JPC.pdf .
- The licence allows the authors to put it on the Web.
- DOI and bibtex: see https://docs.abinit.org/theory/bibliography/#romero2020
-
- [5] Recent developments in the ABINIT software package.
- Computer Phys. Comm. 205, 106 (2016).
- X.Gonze, F.Jollet, F.Abreu Araujo, D.Adams, B.Amadon, T.Applencourt,
- C.Audouze, J.-M.Beuken, J.Bieder, A.Bokhanchuk, E.Bousquet, F.Bruneval
- D.Caliste, M.Cote, F.Dahm, F.Da Pieve, M.Delaveau, M.Di Gennaro,
- B.Dorado, C.Espejo, G.Geneste, L.Genovese, A.Gerossier, M.Giantomassi,
- Y.Gillet, D.R.Hamann, L.He, G.Jomard, J.Laflamme Janssen, S.Le Roux,
- A.Levitt, A.Lherbier, F.Liu, I.Lukacevic, A.Martin, C.Martins,
- M.J.T.Oliveira, S.Ponce, Y.Pouillon, T.Rangel, G.-M.Rignanese,
- A.H.Romero, B.Rousseau, O.Rubel, A.A.Shukri, M.Stankovski, M.Torrent,
- M.J.Van Setten, B.Van Troeye, M.J.Verstraete, D.Waroquier, J.Wiktor,
- B.Xu, A.Zhou, J.W.Zwanziger.
- Comment: the fourth generic paper describing the ABINIT project.
- Note that a version of this paper, that is not formatted for Computer Phys. Comm. 
- is available at https://www.abinit.org/sites/default/files/ABINIT16.pdf .
- The licence allows the authors to put it on the Web.
- DOI and bibtex: see https://docs.abinit.org/theory/bibliography/#gonze2016
-
- Proc.   0 individual time (sec): cpu=      10387.0  wall=      10440.5

================================================================================

 Calculation completed.
.Delivered   0 WARNINGs and   6 COMMENTs to log file.
+Overall time at end (sec) : cpu=      41569.7  wall=      41762.0
