
.Version 9.2.2 of ABINIT 
.(MPI version, prepared for a x86_64_linux_gnu9.3 computer) 

.Copyright (C) 1998-2020 ABINIT group . 
 ABINIT comes with ABSOLUTELY NO WARRANTY.
 It is free software, and you are welcome to redistribute it
 under certain conditions (GNU General Public License,
 see ~abinit/COPYING or http://www.gnu.org/copyleft/gpl.txt).

 ABINIT is a project of the Universite Catholique de Louvain,
 Corning Inc. and other collaborators, see ~abinit/doc/developers/contributors.txt .
 Please read https://docs.abinit.org/theory/acknowledgments for suggested
 acknowledgments of the ABINIT effort.
 For more information, see https://www.abinit.org .

.Starting date : Tue 22 Nov 2022.
- ( at 09h50 )
  
- input  file    -> Cs2TiI6.in
- output file    -> Cs2TiI6.out
- root for input  files -> Cs2TiI6i
- root for output files -> Cs2TiI6o

- inpspheads : Reading pseudopotential header in XML form from 
-   ../../../Psps_for_tests/ATOMICDATA/Cs.GGA_PBE-JTH.xml
- inpspheads : Reading pseudopotential header in XML form from 
-   ../../../Psps_for_tests/ATOMICDATA/Cl.GGA_PBE-JTH.xml
- inpspheads : Reading pseudopotential header in XML form from 
-   ../../../Psps_for_tests/ATOMICDATA/Hf.GGA_PBE-JTH.xml

 DATASET    1 : space group Fm -3 m (#225); Bravais cF (face-center cubic)
================================================================================
 Values of the parameters that define the memory need for DATASET  1.
     intxc =       0    ionmov =       0      iscf =      17    lmnmax =      18
     lnmax =       6     mgfft =      60  mpssoang =       3    mqgrid =    3651
     natom =       9  nloc_mem =       2    nspden =       1   nspinor =       1
    nsppol =       1      nsym =      48    n1xccc =       1    ntypat =       3
    occopt =       1   xclevel =       2
-    mband =          42        mffmem =           1         mkmem =          18
       mpw =        8400          nfft =      216000          nkpt =          72
Pmy_natom=         3
 PAW method is used; the additional fine FFT grid is defined by:
   mgfftf=        90    nfftf =    729000
================================================================================
P This job should need less than                     320.915 Mbytes of memory.
  Rough estimation (10% accuracy) of disk space for files :
_ WF disk file :    387.600 Mbytes ; DEN or POT disk file :      5.564 Mbytes.
================================================================================


 DATASET    2 : space group Fm -3 m (#225); Bravais cF (face-center cubic)
================================================================================
 Values of the parameters that define the memory need for DATASET  2.
     intxc =       0    ionmov =       0      iscf =      17    lmnmax =      18
     lnmax =       6     mgfft =      60  mpssoang =       3    mqgrid =    3647
     natom =       9  nloc_mem =       2    nspden =       1   nspinor =       1
    nsppol =       1      nsym =      48    n1xccc =       1    ntypat =       3
    occopt =       1   xclevel =       2
-    mband =          42        mffmem =           1         mkmem =          18
       mpw =        8372          nfft =      216000          nkpt =          72
Pmy_natom=         3
 PAW method is used; the additional fine FFT grid is defined by:
   mgfftf=        90    nfftf =    729000
================================================================================
P This job should need less than                     320.569 Mbytes of memory.
  Rough estimation (10% accuracy) of disk space for files :
_ WF disk file :    386.308 Mbytes ; DEN or POT disk file :      5.564 Mbytes.
================================================================================


 DATASET    3 : space group Fm -3 m (#225); Bravais cF (face-center cubic)
================================================================================
 Values of the parameters that define the memory need for DATASET  3.
     intxc =       0    ionmov =       0      iscf =      17    lmnmax =      18
     lnmax =       6     mgfft =      60  mpssoang =       3    mqgrid =    3644
     natom =       9  nloc_mem =       2    nspden =       1   nspinor =       1
    nsppol =       1      nsym =      48    n1xccc =       1    ntypat =       3
    occopt =       1   xclevel =       2
-    mband =          42        mffmem =           1         mkmem =          18
       mpw =        8372          nfft =      216000          nkpt =          72
Pmy_natom=         3
 PAW method is used; the additional fine FFT grid is defined by:
   mgfftf=        90    nfftf =    729000
================================================================================
P This job should need less than                     320.588 Mbytes of memory.
  Rough estimation (10% accuracy) of disk space for files :
_ WF disk file :    386.308 Mbytes ; DEN or POT disk file :      5.564 Mbytes.
================================================================================


 DATASET    4 : space group Fm -3 m (#225); Bravais cF (face-center cubic)
================================================================================
 Values of the parameters that define the memory need for DATASET  4.
     intxc =       0    ionmov =       0      iscf =      17    lmnmax =      18
     lnmax =       6     mgfft =      60  mpssoang =       3    mqgrid =    3640
     natom =       9  nloc_mem =       2    nspden =       1   nspinor =       1
    nsppol =       1      nsym =      48    n1xccc =       1    ntypat =       3
    occopt =       1   xclevel =       2
-    mband =          42        mffmem =           1         mkmem =          18
       mpw =        8372          nfft =      216000          nkpt =          72
Pmy_natom=         3
 PAW method is used; the additional fine FFT grid is defined by:
   mgfftf=        90    nfftf =    729000
================================================================================
P This job should need less than                     320.606 Mbytes of memory.
  Rough estimation (10% accuracy) of disk space for files :
_ WF disk file :    386.308 Mbytes ; DEN or POT disk file :      5.564 Mbytes.
================================================================================


 DATASET    5 : space group Fm -3 m (#225); Bravais cF (face-center cubic)
================================================================================
 Values of the parameters that define the memory need for DATASET  5.
     intxc =       0    ionmov =       0      iscf =      17    lmnmax =      18
     lnmax =       6     mgfft =      60  mpssoang =       3    mqgrid =    3636
     natom =       9  nloc_mem =       2    nspden =       1   nspinor =       1
    nsppol =       1      nsym =      48    n1xccc =       1    ntypat =       3
    occopt =       1   xclevel =       2
-    mband =          42        mffmem =           1         mkmem =          18
       mpw =        8297          nfft =      216000          nkpt =          72
Pmy_natom=         3
 PAW method is used; the additional fine FFT grid is defined by:
   mgfftf=        90    nfftf =    729000
================================================================================
P This job should need less than                     319.650 Mbytes of memory.
  Rough estimation (10% accuracy) of disk space for files :
_ WF disk file :    382.847 Mbytes ; DEN or POT disk file :      5.564 Mbytes.
================================================================================


 DATASET    6 : space group Fm -3 m (#225); Bravais cF (face-center cubic)
================================================================================
 Values of the parameters that define the memory need for DATASET  6.
     intxc =       0    ionmov =       0      iscf =      17    lmnmax =      18
     lnmax =       6     mgfft =      60  mpssoang =       3    mqgrid =    3632
     natom =       9  nloc_mem =       2    nspden =       1   nspinor =       1
    nsppol =       1      nsym =      48    n1xccc =       1    ntypat =       3
    occopt =       1   xclevel =       2
-    mband =          42        mffmem =           1         mkmem =          18
       mpw =        8271          nfft =      216000          nkpt =          72
Pmy_natom=         3
 PAW method is used; the additional fine FFT grid is defined by:
   mgfftf=        90    nfftf =    729000
================================================================================
P This job should need less than                     319.331 Mbytes of memory.
  Rough estimation (10% accuracy) of disk space for files :
_ WF disk file :    381.647 Mbytes ; DEN or POT disk file :      5.564 Mbytes.
================================================================================


 DATASET    7 : space group Fm -3 m (#225); Bravais cF (face-center cubic)
================================================================================
 Values of the parameters that define the memory need for DATASET  7.
     intxc =       0    ionmov =       0      iscf =      17    lmnmax =      18
     lnmax =       6     mgfft =      60  mpssoang =       3    mqgrid =    3628
     natom =       9  nloc_mem =       2    nspden =       1   nspinor =       1
    nsppol =       1      nsym =      48    n1xccc =       1    ntypat =       3
    occopt =       1   xclevel =       2
-    mband =          42        mffmem =           1         mkmem =          18
       mpw =        8239          nfft =      216000          nkpt =          72
Pmy_natom=         3
 PAW method is used; the additional fine FFT grid is defined by:
   mgfftf=        90    nfftf =    729000
================================================================================
P This job should need less than                     318.934 Mbytes of memory.
  Rough estimation (10% accuracy) of disk space for files :
_ WF disk file :    380.171 Mbytes ; DEN or POT disk file :      5.564 Mbytes.
================================================================================


 DATASET    8 : space group Fm -3 m (#225); Bravais cF (face-center cubic)
================================================================================
 Values of the parameters that define the memory need for DATASET  8.
     intxc =       0    ionmov =       0      iscf =      17    lmnmax =      18
     lnmax =       6     mgfft =      60  mpssoang =       3    mqgrid =    3624
     natom =       9  nloc_mem =       2    nspden =       1   nspinor =       1
    nsppol =       1      nsym =      48    n1xccc =       1    ntypat =       3
    occopt =       1   xclevel =       2
-    mband =          42        mffmem =           1         mkmem =          18
       mpw =        8216          nfft =      216000          nkpt =          72
Pmy_natom=         3
 PAW method is used; the additional fine FFT grid is defined by:
   mgfftf=        90    nfftf =    729000
================================================================================
P This job should need less than                     318.654 Mbytes of memory.
  Rough estimation (10% accuracy) of disk space for files :
_ WF disk file :    379.109 Mbytes ; DEN or POT disk file :      5.564 Mbytes.
================================================================================


 DATASET    9 : space group Fm -3 m (#225); Bravais cF (face-center cubic)
================================================================================
 Values of the parameters that define the memory need for DATASET  9.
     intxc =       0    ionmov =       0      iscf =      17    lmnmax =      18
     lnmax =       6     mgfft =      60  mpssoang =       3    mqgrid =    3620
     natom =       9  nloc_mem =       2    nspden =       1   nspinor =       1
    nsppol =       1      nsym =      48    n1xccc =       1    ntypat =       3
    occopt =       1   xclevel =       2
-    mband =          42        mffmem =           1         mkmem =          18
       mpw =        8195          nfft =      216000          nkpt =          72
Pmy_natom=         3
 PAW method is used; the additional fine FFT grid is defined by:
   mgfftf=        90    nfftf =    729000
================================================================================
P This job should need less than                     318.400 Mbytes of memory.
  Rough estimation (10% accuracy) of disk space for files :
_ WF disk file :    378.140 Mbytes ; DEN or POT disk file :      5.564 Mbytes.
================================================================================

--------------------------------------------------------------------------------
------------- Echo of variables that govern the present computation ------------
--------------------------------------------------------------------------------
-
- outvars: echo of selected default values                                      
-   iomode0 =  0 , fftalg0 =112 , wfoptalg0 = 10
-
- outvars: echo of global parameters not present in the input file              
-  max_nthreads =    0
-
 -outvars: echo values of preprocessed input variables --------
            acell1     1.3656313766E+01  1.3656313766E+01  1.3656313766E+01 Bohr
            acell2     1.3641923552E+01  1.3641923552E+01  1.3641923552E+01 Bohr
            acell3     1.3627533337E+01  1.3627533337E+01  1.3627533337E+01 Bohr
            acell4     1.3613143122E+01  1.3613143122E+01  1.3613143122E+01 Bohr
            acell5     1.3598752907E+01  1.3598752907E+01  1.3598752907E+01 Bohr
            acell6     1.3584362693E+01  1.3584362693E+01  1.3584362693E+01 Bohr
            acell7     1.3569972478E+01  1.3569972478E+01  1.3569972478E+01 Bohr
            acell8     1.3555582263E+01  1.3555582263E+01  1.3555582263E+01 Bohr
            acell9     1.3541192049E+01  1.3541192049E+01  1.3541192049E+01 Bohr
              amu      1.32905430E+02  3.54527000E+01  1.78490000E+02
           diemac      1.20000000E+01
          dilatmx      1.15000000E+00
             ecut      1.60000000E+01 Hartree
           ecutsm      5.00000000E-01 Hartree
-          fftalg         112
           istwfk        2    0    0    0    0    0    3    0    0    0
                         0    0    0    0    0    0    0    0    0    0
                         0    0    0    0    0    0    0    0    0    0
                         0    0    0    0    0    0    0    0    0    0
                         0    0    7    0    0    0    0    0    0    0
                       outvar_i_n : Printing only first  50 k-points.
              ixc     -101130
           jdtset        1    2    3    4    5    6    7    8    9
              kpt      0.00000000E+00  0.00000000E+00  0.00000000E+00
                       8.33333333E-02  0.00000000E+00  0.00000000E+00
                       1.66666667E-01  0.00000000E+00  0.00000000E+00
                       2.50000000E-01  0.00000000E+00  0.00000000E+00
                       3.33333333E-01  0.00000000E+00  0.00000000E+00
                       4.16666667E-01  0.00000000E+00  0.00000000E+00
                       5.00000000E-01  0.00000000E+00  0.00000000E+00
                       8.33333333E-02  8.33333333E-02  0.00000000E+00
                       1.66666667E-01  8.33333333E-02  0.00000000E+00
                       2.50000000E-01  8.33333333E-02  0.00000000E+00
                       3.33333333E-01  8.33333333E-02  0.00000000E+00
                       4.16666667E-01  8.33333333E-02  0.00000000E+00
                       5.00000000E-01  8.33333333E-02  0.00000000E+00
                      -4.16666667E-01  8.33333333E-02  0.00000000E+00
                      -3.33333333E-01  8.33333333E-02  0.00000000E+00
                      -2.50000000E-01  8.33333333E-02  0.00000000E+00
                      -1.66666667E-01  8.33333333E-02  0.00000000E+00
                      -8.33333333E-02  8.33333333E-02  0.00000000E+00
                       1.66666667E-01  1.66666667E-01  0.00000000E+00
                       2.50000000E-01  1.66666667E-01  0.00000000E+00
                       3.33333333E-01  1.66666667E-01  0.00000000E+00
                       4.16666667E-01  1.66666667E-01  0.00000000E+00
                       5.00000000E-01  1.66666667E-01  0.00000000E+00
                      -4.16666667E-01  1.66666667E-01  0.00000000E+00
                      -3.33333333E-01  1.66666667E-01  0.00000000E+00
                      -2.50000000E-01  1.66666667E-01  0.00000000E+00
                      -1.66666667E-01  1.66666667E-01  0.00000000E+00
                       2.50000000E-01  2.50000000E-01  0.00000000E+00
                       3.33333333E-01  2.50000000E-01  0.00000000E+00
                       4.16666667E-01  2.50000000E-01  0.00000000E+00
                       5.00000000E-01  2.50000000E-01  0.00000000E+00
                      -4.16666667E-01  2.50000000E-01  0.00000000E+00
                      -3.33333333E-01  2.50000000E-01  0.00000000E+00
                      -2.50000000E-01  2.50000000E-01  0.00000000E+00
                       3.33333333E-01  3.33333333E-01  0.00000000E+00
                       4.16666667E-01  3.33333333E-01  0.00000000E+00
                       5.00000000E-01  3.33333333E-01  0.00000000E+00
                      -4.16666667E-01  3.33333333E-01  0.00000000E+00
                      -3.33333333E-01  3.33333333E-01  0.00000000E+00
                       4.16666667E-01  4.16666667E-01  0.00000000E+00
                       5.00000000E-01  4.16666667E-01  0.00000000E+00
                      -4.16666667E-01  4.16666667E-01  0.00000000E+00
                       5.00000000E-01  5.00000000E-01  0.00000000E+00
                       2.50000000E-01  1.66666667E-01  8.33333333E-02
                       3.33333333E-01  1.66666667E-01  8.33333333E-02
                       4.16666667E-01  1.66666667E-01  8.33333333E-02
                       5.00000000E-01  1.66666667E-01  8.33333333E-02
                      -4.16666667E-01  1.66666667E-01  8.33333333E-02
                       3.33333333E-01  2.50000000E-01  8.33333333E-02
                       4.16666667E-01  2.50000000E-01  8.33333333E-02
                       outvar_i_n : Printing only first  50 k-points.
         kptrlatt       12    0    0      0   12    0      0    0   12
          kptrlen1     1.63875765E+02
          kptrlen2     1.63703083E+02
          kptrlen3     1.63530400E+02
          kptrlen4     1.63357717E+02
          kptrlen5     1.63185035E+02
          kptrlen6     1.63012352E+02
          kptrlen7     1.62839670E+02
          kptrlen8     1.62666987E+02
          kptrlen9     1.62494305E+02
P           mkmem          18
            natom           9
            nband          42
           ndtset           9
            ngfft          60      60      60
          ngfftdg          90      90      90
             nkpt          72
            nstep        2500
             nsym          48
           ntypat           3
              occ      2.000000  2.000000  2.000000  2.000000  2.000000  2.000000
                       2.000000  2.000000  2.000000  2.000000  2.000000  2.000000
                       2.000000  2.000000  2.000000  2.000000  2.000000  2.000000
                       2.000000  2.000000  2.000000  2.000000  2.000000  2.000000
                       2.000000  2.000000  2.000000  2.000000  2.000000  2.000000
                       2.000000  2.000000  2.000000  2.000000  2.000000  2.000000
                       0.000000  0.000000  0.000000  0.000000  0.000000  0.000000
        pawecutdg      4.00000000E+01 Hartree
            prtwf           0
            rprim      0.0000000000E+00  7.0710678119E-01  7.0710678119E-01
                       7.0710678119E-01  0.0000000000E+00  7.0710678119E-01
                       7.0710678119E-01  7.0710678119E-01  0.0000000000E+00
          spgroup         225
           symrel      1  0  0   0  1  0   0  0  1      -1  0  0   0 -1  0   0  0 -1
                       0 -1  1   0 -1  0   1 -1  0       0  1 -1   0  1  0  -1  1  0
                      -1  0  0  -1  0  1  -1  1  0       1  0  0   1  0 -1   1 -1  0
                       0  1 -1   1  0 -1   0  0 -1       0 -1  1  -1  0  1   0  0  1
                      -1  0  0  -1  1  0  -1  0  1       1  0  0   1 -1  0   1  0 -1
                       0 -1  1   1 -1  0   0 -1  0       0  1 -1  -1  1  0   0  1  0
                       1  0  0   0  0  1   0  1  0      -1  0  0   0  0 -1   0 -1  0
                       0  1 -1   0  0 -1   1  0 -1       0 -1  1   0  0  1  -1  0  1
                      -1  0  1  -1  1  0  -1  0  0       1  0 -1   1 -1  0   1  0  0
                       0 -1  0   1 -1  0   0 -1  1       0  1  0  -1  1  0   0  1 -1
                       1  0 -1   0  0 -1   0  1 -1      -1  0  1   0  0  1   0 -1  1
                       0  1  0   0  0  1   1  0  0       0 -1  0   0  0 -1  -1  0  0
                       1  0 -1   0  1 -1   0  0 -1      -1  0  1   0 -1  1   0  0  1
                       0 -1  0   0 -1  1   1 -1  0       0  1  0   0  1 -1  -1  1  0
                      -1  0  1  -1  0  0  -1  1  0       1  0 -1   1  0  0   1 -1  0
                       0  1  0   1  0  0   0  0  1       0 -1  0  -1  0  0   0  0 -1
                       0  0 -1   0  1 -1   1  0 -1       0  0  1   0 -1  1  -1  0  1
                       1 -1  0   0 -1  1   0 -1  0      -1  1  0   0  1 -1   0  1  0
                       0  0  1   1  0  0   0  1  0       0  0 -1  -1  0  0   0 -1  0
                      -1  1  0  -1  0  0  -1  0  1       1 -1  0   1  0  0   1  0 -1
                       0  0  1   0  1  0   1  0  0       0  0 -1   0 -1  0  -1  0  0
                       1 -1  0   0 -1  0   0 -1  1      -1  1  0   0  1  0   0  1 -1
                       0  0 -1   1  0 -1   0  1 -1       0  0  1  -1  0  1   0 -1  1
                      -1  1  0  -1  0  1  -1  0  0       1 -1  0   1  0 -1   1  0  0
           toldfe      1.00000000E-08 Hartree
            typat      1  1  2  2  2  2  2  2  3
           useylm           1
              wtk        0.00058    0.00463    0.00463    0.00463    0.00463    0.00463
                         0.00231    0.00347    0.01389    0.01389    0.01389    0.01389
                         0.01389    0.01389    0.01389    0.01389    0.01389    0.00694
                         0.00347    0.01389    0.01389    0.01389    0.01389    0.01389
                         0.01389    0.01389    0.00694    0.00347    0.01389    0.01389
                         0.01389    0.01389    0.01389    0.00694    0.00347    0.01389
                         0.01389    0.01389    0.00694    0.00347    0.01389    0.00694
                         0.00174    0.01389    0.02778    0.02778    0.02778    0.01389
                         0.01389    0.02778
                       outvars : Printing only first  50 k-points.
           xangst1     2.5549924674E+00  2.5549924674E+00  2.5549924674E+00
                       7.6649774022E+00  7.6649774022E+00  7.6649774022E+00
                       5.1099849348E+00  7.7653588688E+00  5.1099849348E+00
                       5.1099849348E+00  5.1099849348E+00  2.4546110009E+00
                       5.1099849348E+00  5.1099849348E+00  7.7653588688E+00
                       5.1099849348E+00  2.4546110009E+00  5.1099849348E+00
                       7.7653588688E+00  5.1099849348E+00  5.1099849348E+00
                       2.4546110009E+00  5.1099849348E+00  5.1099849348E+00
                       4.3704536092E-20 -9.5105093647E-20 -2.6741241221E-20
           xangst2     2.5523001678E+00  2.5523001678E+00  2.5523001678E+00
                       7.6569005034E+00  7.6569005034E+00  7.6569005034E+00
                       5.1046003356E+00  7.7549597872E+00  5.1046003356E+00
                       5.1046003356E+00  5.1046003356E+00  2.4542408840E+00
                       5.1046003356E+00  5.1046003356E+00  7.7549597872E+00
                       5.1046003356E+00  2.4542408840E+00  5.1046003356E+00
                       7.7549597872E+00  5.1046003356E+00  5.1046003356E+00
                       2.4542408840E+00  5.1046003356E+00  5.1046003356E+00
                       2.8389554325E-20 -1.5487006605E-19 -1.8432357047E-20
           xangst3     2.5496078680E+00  2.5496078680E+00  2.5496078680E+00
                       7.6488236040E+00  7.6488236040E+00  7.6488236040E+00
                       5.0992157360E+00  7.7445800221E+00  5.0992157360E+00
                       5.0992157360E+00  5.0992157360E+00  2.4538514498E+00
                       5.0992157360E+00  5.0992157360E+00  7.7445800221E+00
                       5.0992157360E+00  2.4538514498E+00  5.0992157360E+00
                       7.7445800221E+00  5.0992157360E+00  5.0992157360E+00
                       2.4538514498E+00  5.0992157360E+00  5.0992157360E+00
                      -4.1180600428E-20 -2.2854756488E-19 -9.9913531113E-21
           xangst4     2.5469155682E+00  2.5469155682E+00  2.5469155682E+00
                       7.6407467045E+00  7.6407467045E+00  7.6407467045E+00
                       5.0938311364E+00  7.7341818146E+00  5.0938311364E+00
                       5.0938311364E+00  5.0938311364E+00  2.4534804581E+00
                       5.0938311364E+00  5.0938311364E+00  7.7341818146E+00
                       5.0938311364E+00  2.4534804581E+00  5.0938311364E+00
                       7.7341818146E+00  5.0938311364E+00  5.0938311364E+00
                       2.4534804581E+00  5.0938311364E+00  5.0938311364E+00
                       3.7124994022E-20  1.0140266861E-20 -3.2034722875E-20
           xangst5     2.5442232684E+00  2.5442232684E+00  2.5442232684E+00
                       7.6326698051E+00  7.6326698051E+00  7.6326698051E+00
                       5.0884465367E+00  7.7237691311E+00  5.0884465367E+00
                       5.0884465367E+00  5.0884465367E+00  2.4531239423E+00
                       5.0884465367E+00  5.0884465367E+00  7.7237691311E+00
                       5.0884465367E+00  2.4531239423E+00  5.0884465367E+00
                       7.7237691311E+00  5.0884465367E+00  5.0884465367E+00
                       2.4531239423E+00  5.0884465367E+00  5.0884465367E+00
                       1.0304796124E-19 -1.0165541638E-19 -1.1036796035E-20
           xangst6     2.5415309687E+00  2.5415309687E+00  2.5415309687E+00
                       7.6245929062E+00  7.6245929062E+00  7.6245929062E+00
                       5.0830619375E+00  7.7133648520E+00  5.0830619375E+00
                       5.0830619375E+00  5.0830619375E+00  2.4527590230E+00
                       5.0830619375E+00  5.0830619375E+00  7.7133648520E+00
                       5.0830619375E+00  2.4527590230E+00  5.0830619375E+00
                       7.7133648520E+00  5.0830619375E+00  5.0830619375E+00
                       2.4527590230E+00  5.0830619375E+00  5.0830619375E+00
                       3.7046505664E-20  1.0118828665E-20 -3.1966996189E-20
           xangst7     2.5388386689E+00  2.5388386689E+00  2.5388386689E+00
                       7.6165160068E+00  7.6165160068E+00  7.6165160068E+00
                       5.0776773379E+00  7.7029669833E+00  5.0776773379E+00
                       5.0776773379E+00  5.0776773379E+00  2.4523876924E+00
                       5.0776773379E+00  5.0776773379E+00  7.7029669833E+00
                       5.0776773379E+00  2.4523876924E+00  5.0776773379E+00
                       7.7029669833E+00  5.0776773379E+00  5.0776773379E+00
                       2.4523876924E+00  5.0776773379E+00  5.0776773379E+00
                       9.5601408072E-20 -4.3441207189E-21 -7.8548073660E-20
           xangst8     2.5361463691E+00  2.5361463691E+00  2.5361463691E+00
                       7.6084391074E+00  7.6084391074E+00  7.6084391074E+00
                       5.0722927383E+00  7.6925843530E+00  5.0722927383E+00
                       5.0722927383E+00  5.0722927383E+00  2.4520011235E+00
                       5.0722927383E+00  5.0722927383E+00  7.6925843530E+00
                       5.0722927383E+00  2.4520011235E+00  5.0722927383E+00
                       7.6925843530E+00  5.0722927383E+00  5.0722927383E+00
                       2.4520011235E+00  5.0722927383E+00  5.0722927383E+00
                       3.6968017303E-20  1.0097390468E-20 -3.1899269501E-20
           xangst9     2.5334540695E+00  2.5334540695E+00  2.5334540695E+00
                       7.6003622085E+00  7.6003622085E+00  7.6003622085E+00
                       5.0669081390E+00  7.6822001898E+00  5.0669081390E+00
                       5.0669081390E+00  5.0669081390E+00  2.4516160883E+00
                       5.0669081390E+00  5.0669081390E+00  7.6822001898E+00
                       5.0669081390E+00  2.4516160883E+00  5.0669081390E+00
                       7.6822001898E+00  5.0669081390E+00  5.0669081390E+00
                       2.4516160883E+00  5.0669081390E+00  5.0669081390E+00
                      -2.6954423950E-20  4.4202488470E-20 -6.5229250058E-20
            xcart1     4.8282360350E+00  4.8282360350E+00  4.8282360350E+00
                       1.4484708105E+01  1.4484708105E+01  1.4484708105E+01
                       9.6564720700E+00  1.4674401586E+01  9.6564720700E+00
                       9.6564720700E+00  9.6564720700E+00  4.6385425545E+00
                       9.6564720700E+00  9.6564720700E+00  1.4674401586E+01
                       9.6564720700E+00  4.6385425545E+00  9.6564720700E+00
                       1.4674401586E+01  9.6564720700E+00  9.6564720700E+00
                       4.6385425545E+00  9.6564720700E+00  9.6564720700E+00
                       8.2589603980E-20 -1.7972258084E-19 -5.0533622362E-20
            xcart2     4.8231483260E+00  4.8231483260E+00  4.8231483260E+00
                       1.4469444978E+01  1.4469444978E+01  1.4469444978E+01
                       9.6462966521E+00  1.4654750169E+01  9.6462966521E+00
                       9.6462966521E+00  9.6462966521E+00  4.6378431348E+00
                       9.6462966521E+00  9.6462966521E+00  1.4654750169E+01
                       9.6462966521E+00  4.6378431348E+00  9.6462966521E+00
                       1.4654750169E+01  9.6462966521E+00  9.6462966521E+00
                       4.6378431348E+00  9.6462966521E+00  9.6462966521E+00
                       5.3648482708E-20 -2.9266201102E-19 -3.4832106803E-20
            xcart3     4.8180606167E+00  4.8180606167E+00  4.8180606167E+00
                       1.4454181850E+01  1.4454181850E+01  1.4454181850E+01
                       9.6361212335E+00  1.4635135256E+01  9.6361212335E+00
                       9.6361212335E+00  9.6361212335E+00  4.6371072109E+00
                       9.6361212335E+00  9.6361212335E+00  1.4635135256E+01
                       9.6361212335E+00  4.6371072109E+00  9.6361212335E+00
                       1.4635135256E+01  9.6361212335E+00  9.6361212335E+00
                       4.6371072109E+00  9.6361212335E+00  9.6361212335E+00
                      -7.7820056797E-20 -4.3189230597E-19 -1.8880921077E-20
            xcart4     4.8129729074E+00  4.8129729074E+00  4.8129729074E+00
                       1.4438918722E+01  1.4438918722E+01  1.4438918722E+01
                       9.6259458149E+00  1.4615485492E+01  9.6259458149E+00
                       9.6259458149E+00  9.6259458149E+00  4.6364061382E+00
                       9.6259458149E+00  9.6259458149E+00  1.4615485492E+01
                       9.6259458149E+00  4.6364061382E+00  9.6259458149E+00
                       1.4615485492E+01  9.6259458149E+00  9.6259458149E+00
                       4.6364061382E+00  9.6259458149E+00  9.6259458149E+00
                       7.0156071387E-20  1.9162327282E-20 -6.0536852977E-20
            xcart5     4.8078851981E+00  4.8078851981E+00  4.8078851981E+00
                       1.4423655594E+01  1.4423655594E+01  1.4423655594E+01
                       9.6157703963E+00  1.4595808371E+01  9.6157703963E+00
                       9.6157703963E+00  9.6157703963E+00  4.6357324210E+00
                       9.6157703963E+00  9.6157703963E+00  1.4595808371E+01
                       9.6157703963E+00  4.6357324210E+00  9.6157703963E+00
                       1.4595808371E+01  9.6157703963E+00  9.6157703963E+00
                       4.6357324210E+00  9.6157703963E+00  9.6157703963E+00
                       1.9473242529E-19 -1.9210089689E-19 -2.0856521890E-20
            xcart6     4.8027974892E+00  4.8027974892E+00  4.8027974892E+00
                       1.4408392468E+01  1.4408392468E+01  1.4408392468E+01
                       9.6055949784E+00  1.4576147133E+01  9.6055949784E+00
                       9.6055949784E+00  9.6055949784E+00  4.6350428234E+00
                       9.6055949784E+00  9.6055949784E+00  1.4576147133E+01
                       9.6055949784E+00  4.6350428234E+00  9.6055949784E+00
                       1.4576147133E+01  9.6055949784E+00  9.6055949784E+00
                       4.6350428234E+00  9.6055949784E+00  9.6055949784E+00
                       7.0007749885E-20  1.9121814962E-20 -6.0408868089E-20
            xcart7     4.7977097799E+00  4.7977097799E+00  4.7977097799E+00
                       1.4393129340E+01  1.4393129340E+01  1.4393129340E+01
                       9.5954195598E+00  1.4556498009E+01  9.5954195598E+00
                       9.5954195598E+00  9.5954195598E+00  4.6343411103E+00
                       9.5954195598E+00  9.5954195598E+00  1.4556498009E+01
                       9.5954195598E+00  4.6343411103E+00  9.5954195598E+00
                       1.4556498009E+01  9.5954195598E+00  9.5954195598E+00
                       4.6343411103E+00  9.5954195598E+00  9.5954195598E+00
                       1.8066047917E-19 -8.2091984468E-21 -1.4843434748E-19
            xcart8     4.7926220706E+00  4.7926220706E+00  4.7926220706E+00
                       1.4377866212E+01  1.4377866212E+01  1.4377866212E+01
                       9.5852441411E+00  1.4536877681E+01  9.5852441411E+00
                       9.5852441411E+00  9.5852441411E+00  4.6336106010E+00
                       9.5852441411E+00  9.5852441411E+00  1.4536877681E+01
                       9.5852441411E+00  4.6336106010E+00  9.5852441411E+00
                       1.4536877681E+01  9.5852441411E+00  9.5852441411E+00
                       4.6336106010E+00  9.5852441411E+00  9.5852441411E+00
                       6.9859428378E-20  1.9081302642E-20 -6.0280883196E-20
            xcart9     4.7875343616E+00  4.7875343616E+00  4.7875343616E+00
                       1.4362603085E+01  1.4362603085E+01  1.4362603085E+01
                       9.5750687232E+00  1.4517254457E+01  9.5750687232E+00
                       9.5750687232E+00  9.5750687232E+00  4.6328829898E+00
                       9.5750687232E+00  9.5750687232E+00  1.4517254457E+01
                       9.5750687232E+00  4.6328829898E+00  9.5750687232E+00
                       1.4517254457E+01  9.5750687232E+00  9.5750687232E+00
                       4.6328829898E+00  9.5750687232E+00  9.5750687232E+00
                      -5.0936479334E-20  8.3530597601E-20 -1.2326541846E-19
             xred1     2.5000000000E-01  2.5000000000E-01  2.5000000000E-01
                       7.5000000000E-01  7.5000000000E-01  7.5000000000E-01
                       7.5982209026E-01  2.4017790974E-01  7.5982209026E-01
                       2.4017790974E-01  2.4017790974E-01  7.5982209026E-01
                       7.5982209026E-01  7.5982209026E-01  2.4017790974E-01
                       2.4017790974E-01  7.5982209026E-01  2.4017790974E-01
                       2.4017790974E-01  7.5982209026E-01  7.5982209026E-01
                       7.5982209026E-01  2.4017790974E-01  2.4017790974E-01
                      -1.6198763115E-20  1.0965628074E-20 -2.4128560698E-21
             xred2     2.5000000000E-01  2.5000000000E-01  2.5000000000E-01
                       7.5000000000E-01  7.5000000000E-01  7.5000000000E-01
                       7.5960499132E-01  2.4039500868E-01  7.5960499132E-01
                       2.4039500868E-01  2.4039500868E-01  7.5960499132E-01
                       7.5960499132E-01  7.5960499132E-01  2.4039500868E-01
                       2.4039500868E-01  7.5960499132E-01  2.4039500868E-01
                       2.4039500868E-01  7.5960499132E-01  7.5960499132E-01
                       7.5960499132E-01  2.4039500868E-01  2.4039500868E-01
                      -1.9755902927E-20  1.6144972426E-20 -1.0583409824E-20
             xred3     2.5000000000E-01  2.5000000000E-01  2.5000000000E-01
                       7.5000000000E-01  7.5000000000E-01  7.5000000000E-01
                       7.5938932800E-01  2.4061067200E-01  7.5938932800E-01
                       2.4061067200E-01  2.4061067200E-01  7.5938932800E-01
                       7.5938932800E-01  7.5938932800E-01  2.4061067200E-01
                       2.4061067200E-01  7.5938932800E-01  2.4061067200E-01
                       2.4061067200E-01  7.5938932800E-01  7.5938932800E-01
                       7.5938932800E-01  2.4061067200E-01  2.4061067200E-01
                      -1.9351830535E-20  1.7392440380E-20 -2.5468309800E-20
             xred4     2.5000000000E-01  2.5000000000E-01  2.5000000000E-01
                       7.5000000000E-01  7.5000000000E-01  7.5000000000E-01
                       7.5917139846E-01  2.4082860154E-01  7.5917139846E-01
                       2.4082860154E-01  2.4082860154E-01  7.5917139846E-01
                       7.5917139846E-01  7.5917139846E-01  2.4082860154E-01
                       2.4082860154E-01  7.5917139846E-01  2.4082860154E-01
                       2.4082860154E-01  7.5917139846E-01  7.5917139846E-01
                       7.5917139846E-01  2.4082860154E-01  2.4082860154E-01
                      -5.7932279709E-21 -4.9569720499E-22  7.7839234984E-21
             xred5     2.5000000000E-01  2.5000000000E-01  2.5000000000E-01
                       7.5000000000E-01  7.5000000000E-01  7.5000000000E-01
                       7.5895158526E-01  2.4104841474E-01  7.5895158526E-01
                       2.4104841474E-01  2.4104841474E-01  7.5895158526E-01
                       7.5895158526E-01  7.5895158526E-01  2.4104841474E-01
                       2.4104841474E-01  7.5895158526E-01  2.4104841474E-01
                       2.4104841474E-01  7.5895158526E-01  7.5895158526E-01
                       7.5895158526E-01  2.4104841474E-01  2.4104841474E-01
                      -2.1199021361E-20  1.9030030107E-20  1.2213296137E-21
             xred6     2.5000000000E-01  2.5000000000E-01  2.5000000000E-01
                       7.5000000000E-01  7.5000000000E-01  7.5000000000E-01
                       7.5873213300E-01  2.4126786700E-01  7.5873213300E-01
                       2.4126786700E-01  2.4126786700E-01  7.5873213300E-01
                       7.5873213300E-01  7.5873213300E-01  2.4126786700E-01
                       2.4126786700E-01  7.5873213300E-01  2.4126786700E-01
                       2.4126786700E-01  7.5873213300E-01  7.5873213300E-01
                       7.5873213300E-01  2.4126786700E-01  2.4126786700E-01
                      -5.7932279709E-21 -4.9569720499E-22  7.7839234984E-21
             xred7     2.5000000000E-01  2.5000000000E-01  2.5000000000E-01
                       7.5000000000E-01  7.5000000000E-01  7.5000000000E-01
                       7.5851284660E-01  2.4148715340E-01  7.5851284660E-01
                       2.4148715340E-01  2.4148715340E-01  7.5851284660E-01
                       7.5851284660E-01  7.5851284660E-01  2.4148715340E-01
                       2.4148715340E-01  7.5851284660E-01  2.4148715340E-01
                       2.4148715340E-01  7.5851284660E-01  7.5851284660E-01
                       7.5851284660E-01  2.4148715340E-01  2.4148715340E-01
                      -1.7576304142E-20  2.1070120950E-21  1.6720771104E-20
             xred8     2.5000000000E-01  2.5000000000E-01  2.5000000000E-01
                       7.5000000000E-01  7.5000000000E-01  7.5000000000E-01
                       7.5829459674E-01  2.4170540326E-01  7.5829459674E-01
                       2.4170540326E-01  2.4170540326E-01  7.5829459674E-01
                       7.5829459674E-01  7.5829459674E-01  2.4170540326E-01
                       2.4170540326E-01  7.5829459674E-01  2.4170540326E-01
                       2.4170540326E-01  7.5829459674E-01  7.5829459674E-01
                       7.5829459674E-01  2.4170540326E-01  2.4170540326E-01
                      -5.7932279709E-21 -4.9569720499E-22  7.7839234984E-21
             xred9     2.5000000000E-01  2.5000000000E-01  2.5000000000E-01
                       7.5000000000E-01  7.5000000000E-01  7.5000000000E-01
                       7.5807573169E-01  2.4192426831E-01  7.5807573169E-01
                       2.4192426831E-01  2.4192426831E-01  7.5807573169E-01
                       7.5807573169E-01  7.5807573169E-01  2.4192426831E-01
                       2.4192426831E-01  7.5807573169E-01  2.4192426831E-01
                       2.4192426831E-01  7.5807573169E-01  7.5807573169E-01
                       7.5807573169E-01  2.4192426831E-01  2.4192426831E-01
                       5.8493880290E-22 -1.3458519351E-20  8.1388207873E-21
            znucl       55.00000   17.00000   72.00000

================================================================================

 chkinp: Checking input parameters for consistency, jdtset=   1.

 chkinp: Checking input parameters for consistency, jdtset=   2.

 chkinp: Checking input parameters for consistency, jdtset=   3.

 chkinp: Checking input parameters for consistency, jdtset=   4.

 chkinp: Checking input parameters for consistency, jdtset=   5.

 chkinp: Checking input parameters for consistency, jdtset=   6.

 chkinp: Checking input parameters for consistency, jdtset=   7.

 chkinp: Checking input parameters for consistency, jdtset=   8.

 chkinp: Checking input parameters for consistency, jdtset=   9.

================================================================================
== DATASET  1 ==================================================================
-   mpi_nproc: 4, omp_nthreads: -1 (-1 if OMP is not activated)


--- !DatasetInfo
iteration_state: {dtset: 1, }
dimensions: {natom: 9, nkpt: 72, mband: 42, nsppol: 1, nspinor: 1, nspden: 1, mpw: 8400, }
cutoff_energies: {ecut:  16.0, pawecutdg:  40.0, }
electrons: {nelect:   7.20000000E+01, charge:   0.00000000E+00, occopt:   1.00000000E+00, tsmear:   1.00000000E-02, }
meta: {optdriver: 0, ionmov: 0, optcell: 0, iscf: 17, paral_kgb: 0, }
...

 Real(R)+Recip(G) space primitive vectors, cartesian coordinates (Bohr,Bohr^-1):
 R(1)=  0.0000000  9.6564721  9.6564721  G(1)= -0.0517787  0.0517787  0.0517787
 R(2)=  9.6564721  0.0000000  9.6564721  G(2)=  0.0517787 -0.0517787  0.0517787
 R(3)=  9.6564721  9.6564721  0.0000000  G(3)=  0.0517787  0.0517787 -0.0517787
 Unit cell volume ucvol=  1.8008828E+03 bohr^3
 Angles (23,13,12)=  6.00000000E+01  6.00000000E+01  6.00000000E+01 degrees

 Coarse grid specifications (used for wave-functions):

 getcut: wavevector=  0.0000  0.0000  0.0000  ngfft=  60  60  60
         ecut(hartree)=     21.160   => boxcut(ratio)=   2.12175

 Fine grid specifications (used for densities):

 getcut: wavevector=  0.0000  0.0000  0.0000  ngfft=  90  90  90
         ecut(hartree)=     52.900   => boxcut(ratio)=   2.01312

--- Pseudopotential description ------------------------------------------------
- pspini: atom type   1  psp file is ../../../Psps_for_tests/ATOMICDATA/Cs.GGA_PBE-JTH.xml
- pspatm: opening atomic psp file    ../../../Psps_for_tests/ATOMICDATA/Cs.GGA_PBE-JTH.xml
- pspatm : Reading pseudopotential header in XML form from ../../../Psps_for_tests/ATOMICDATA/Cs.GGA_PBE-JTH.xml
 Pseudopotential format is: paw10
 basis_size (lnmax)=  6 (lmn_size= 18), orbitals=   0   0   1   1   2   2
 Spheres core radius: rc_sph= 2.20660278
 1 radial meshes are used:
  - mesh 1: r(i)=AA*[exp(BB*(i-1))-1], size=1500 , AA= 0.15922E-03 BB= 0.87573E-02
 Shapefunction is SIN type: shapef(r)=[sin(pi*r/rshp)/(pi*r/rshp)]**2
 Radius for shape functions =  2.00394208
 mmax= 1500
 Radial grid used for partial waves is grid 1
 Radial grid used for projectors is grid 1
 Radial grid used for (t)core density is grid 1
 Radial grid used for Vloc is grid 1
 Radial grid used for pseudo valence density is grid 1
 Mesh size for Vloc has been set to 1341 to avoid numerical noise.
 Compensation charge density is not taken into account in XC energy/potential
 pspatm: atomic psp has been read  and splines computed

- pspini: atom type   2  psp file is ../../../Psps_for_tests/ATOMICDATA/Cl.GGA_PBE-JTH.xml
- pspatm: opening atomic psp file    ../../../Psps_for_tests/ATOMICDATA/Cl.GGA_PBE-JTH.xml
- pspatm : Reading pseudopotential header in XML form from ../../../Psps_for_tests/ATOMICDATA/Cl.GGA_PBE-JTH.xml
 Pseudopotential format is: paw10
 basis_size (lnmax)=  4 (lmn_size=  8), orbitals=   0   0   1   1
 Spheres core radius: rc_sph= 1.80315674
 1 radial meshes are used:
  - mesh 1: r(i)=AA*[exp(BB*(i-1))-1], size=1400 , AA= 0.50355E-03 BB= 0.85603E-02
 Shapefunction is SIN type: shapef(r)=[sin(pi*r/rshp)/(pi*r/rshp)]**2
 Radius for shape functions =  1.61320365
 mmax= 1400
 Radial grid used for partial waves is grid 1
 Radial grid used for projectors is grid 1
 Radial grid used for (t)core density is grid 1
 Radial grid used for Vloc is grid 1
 Radial grid used for pseudo valence density is grid 1
 Mesh size for Vloc has been set to 1238 to avoid numerical noise.
 Compensation charge density is not taken into account in XC energy/potential
 pspatm: atomic psp has been read  and splines computed

- pspini: atom type   3  psp file is ../../../Psps_for_tests/ATOMICDATA/Hf.GGA_PBE-JTH.xml
- pspatm: opening atomic psp file    ../../../Psps_for_tests/ATOMICDATA/Hf.GGA_PBE-JTH.xml
- pspatm : Reading pseudopotential header in XML form from ../../../Psps_for_tests/ATOMICDATA/Hf.GGA_PBE-JTH.xml
 Pseudopotential format is: paw10
 basis_size (lnmax)=  6 (lmn_size= 18), orbitals=   0   0   1   1   2   2
 Spheres core radius: rc_sph= 2.41000000
 1 radial meshes are used:
  - mesh 1: r(i)=AA*[exp(BB*(i-1))-1], size= 972 , AA= 0.19796E-03 BB= 0.14253E-01
 Shapefunction is SIN type: shapef(r)=[sin(pi*r/rshp)/(pi*r/rshp)]**2
 Radius for shape functions =  2.41000000
 mmax=  972
 Radial grid used for partial waves is grid 1
 Radial grid used for projectors is grid 1
 Radial grid used for (t)core density is grid 1
 Radial grid used for Vloc is grid 1
 Radial grid used for pseudo valence density is grid 1
 Mesh size for Vloc has been set to  809 to avoid numerical noise.
 Compensation charge density is not taken into account in XC energy/potential
 pspatm: atomic psp has been read  and splines computed

   1.56818020E+04                                ecore*ucvol(ha*bohr**3)
--------------------------------------------------------------------------------

_setup2: Arith. and geom. avg. npw (full set) are    8372.789    8372.778

================================================================================

--- !BeginCycle
iteration_state: {dtset: 1, }
solver: {iscf: 17, nstep: 2500, nline: 4, wfoptalg: 10, }
tolerances: {toldfe: 1.00E-08, }
...

     iter   Etot(hartree)      deltaE(h)  residm     nres2
 ETOT  1  -179.96284076733    -1.800E+02 7.302E+00 8.227E+00
 ETOT  2  -182.38490587189    -2.422E+00 3.902E-02 9.447E+00
 ETOT  3  -182.35005455413     3.485E-02 1.789E-02 1.706E+00
 ETOT  4  -182.34773827875     2.316E-03 8.575E-03 1.981E-01
 ETOT  5  -182.34834498569    -6.067E-04 4.169E-03 1.599E-02
 ETOT  6  -182.34843549171    -9.051E-05 4.156E-03 1.591E-03
 ETOT  7  -182.34844531810    -9.826E-06 2.420E-03 2.235E-04
 ETOT  8  -182.34844745028    -2.132E-06 4.075E-03 1.953E-05
 ETOT  9  -182.34844754704    -9.677E-08 1.841E-03 1.690E-06
 ETOT 10  -182.34844755978    -1.273E-08 1.992E-03 2.551E-07
 ETOT 11  -182.34844756017    -3.973E-10 8.821E-04 4.185E-08
 ETOT 12  -182.34844756025    -8.239E-11 1.030E-03 1.036E-08

 At SCF step   12, etot is converged : 
  for the second time, diff in etot=  8.239E-11 < toldfe=  1.000E-08

 Cartesian components of stress tensor (hartree/bohr^3)
  sigma(1 1)= -7.12581665E-05  sigma(3 2)=  0.00000000E+00
  sigma(2 2)= -7.12581665E-05  sigma(3 1)=  0.00000000E+00
  sigma(3 3)= -7.12581665E-05  sigma(2 1)=  0.00000000E+00


--- !ResultsGS
iteration_state: {dtset: 1, }
comment   : Summary of ground state results
lattice_vectors:
- [  0.0000000,   9.6564721,   9.6564721, ]
- [  9.6564721,   0.0000000,   9.6564721, ]
- [  9.6564721,   9.6564721,   0.0000000, ]
lattice_lengths: [  13.65631,   13.65631,   13.65631, ]
lattice_angles: [ 60.000,  60.000,  60.000, ] # degrees, (23, 13, 12)
lattice_volume:   1.8008828E+03
convergence: {deltae: -8.239E-11, res2:  1.036E-08, residm:  1.030E-03, diffor: null, }
etotal    :  -1.82348448E+02
entropy   :   0.00000000E+00
fermie    :  -1.67470605E-02
cartesian_stress_tensor: # hartree/bohr^3
- [ -7.12581665E-05,   0.00000000E+00,   0.00000000E+00, ]
- [  0.00000000E+00,  -7.12581665E-05,   0.00000000E+00, ]
- [  0.00000000E+00,   0.00000000E+00,  -7.12581665E-05, ]
pressure_GPa:   2.0965E+00
xred      :
- [  2.5000E-01,   2.5000E-01,   2.5000E-01, Cs]
- [  7.5000E-01,   7.5000E-01,   7.5000E-01, Cs]
- [  7.5982E-01,   2.4018E-01,   7.5982E-01, Cl]
- [  2.4018E-01,   2.4018E-01,   7.5982E-01, Cl]
- [  7.5982E-01,   7.5982E-01,   2.4018E-01, Cl]
- [  2.4018E-01,   7.5982E-01,   2.4018E-01, Cl]
- [  2.4018E-01,   7.5982E-01,   7.5982E-01, Cl]
- [  7.5982E-01,   2.4018E-01,   2.4018E-01, Cl]
- [ -1.6199E-20,   1.0966E-20,  -2.4129E-21, Hf]
cartesian_forces: # hartree/bohr
- [ -9.41147719E-23,   9.41147580E-23,   8.57752826E-23, ]
- [ -9.41147789E-23,   9.41147789E-23,   8.57752896E-23, ]
- [ -1.90593680E-23,  -6.84768098E-06,   1.07198786E-23, ]
- [ -1.51975629E-22,   1.51975629E-22,   6.84768098E-06, ]
- [  1.51251187E-21,  -1.51251187E-21,  -6.84768098E-06, ]
- [ -1.69170176E-22,   6.84768098E-06,   1.60830687E-22, ]
- [ -6.84768098E-06,   3.62539151E-23,   1.43636139E-22, ]
- [  6.84768098E-06,   9.99008576E-22,  -8.19118521E-22, ]
- [ -9.41147719E-23,   9.41147719E-23,   8.57752826E-23, ]
force_length_stats: {min:   1.58343226E-22, max:   6.84768098E-06, mean:   4.56512065E-06, }
...

 Integrated electronic density in atomic spheres:
 ------------------------------------------------
 Atom  Sphere_radius  Integrated_density
    1        2.20660          5.37128478
    2        2.20660          5.37128478
    3        1.80316          4.37042208
    4        1.80316          4.37042208
    5        1.80316          4.37042208
    6        1.80316          4.37042208
    7        1.80316          4.37042208
    8        1.80316          4.37042208
    9        2.41000          9.35928146

 PAW TEST:
 ==== Compensation charge inside spheres ============
 The following values must be close to each other ...
 Compensation charge over spherical meshes =     -1.454195571118791
 Compensation charge over fine fft grid    =     -1.454183696783419

 ==== Results concerning PAW augmentation regions ====

 Total pseudopotential strength Dij (hartree):
 Atom #  1
   0.40606  -0.13466   0.00000   0.00000   0.00000   0.00000   0.00000   0.00000   0.00000   0.00000   0.00000   0.00000 ...
  -0.13466   0.04033   0.00000   0.00000   0.00000   0.00000   0.00000   0.00000   0.00000   0.00000   0.00000   0.00000 ...
   0.00000   0.00000  -0.08938   0.00000   0.00000  -0.16908   0.00000   0.00000   0.00000   0.00000   0.00000  -0.00000 ...
   0.00000   0.00000   0.00000  -0.08938   0.00000   0.00000  -0.16908   0.00000  -0.00000   0.00000   0.00000   0.00000 ...
   0.00000   0.00000   0.00000   0.00000  -0.08938   0.00000   0.00000  -0.16908   0.00000  -0.00000   0.00000   0.00000 ...
   0.00000   0.00000  -0.16908   0.00000   0.00000   0.39367   0.00000   0.00000   0.00000   0.00000   0.00000   0.00000 ...
   0.00000   0.00000   0.00000  -0.16908   0.00000   0.00000   0.39367   0.00000   0.00000   0.00000   0.00000   0.00000 ...
   0.00000   0.00000   0.00000   0.00000  -0.16908   0.00000   0.00000   0.39367   0.00000   0.00000   0.00000   0.00000 ...
   0.00000   0.00000   0.00000  -0.00000   0.00000   0.00000   0.00000   0.00000   0.00582   0.00000   0.00000   0.00000 ...
   0.00000   0.00000   0.00000   0.00000  -0.00000   0.00000   0.00000   0.00000   0.00000   0.00582   0.00000   0.00000 ...
   0.00000   0.00000   0.00000   0.00000   0.00000   0.00000   0.00000   0.00000   0.00000   0.00000   0.00582   0.00000 ...
   0.00000   0.00000  -0.00000   0.00000   0.00000   0.00000   0.00000   0.00000   0.00000   0.00000   0.00000   0.00582 ...
   ...  only 12  components have been written...
 Atom #  9
  -3.46974   0.41081   0.00000   0.00000   0.00000   0.00000   0.00000   0.00000   0.00000   0.00000   0.00000   0.00000 ...
   0.41081   0.00625   0.00000   0.00000   0.00000   0.00000   0.00000   0.00000   0.00000   0.00000   0.00000   0.00000 ...
   0.00000   0.00000  -1.37622   0.00000   0.00000   0.10733   0.00000   0.00000   0.00000   0.00000   0.00000   0.00000 ...
   0.00000   0.00000   0.00000  -1.37622   0.00000   0.00000   0.10733   0.00000   0.00000   0.00000   0.00000   0.00000 ...
   0.00000   0.00000   0.00000   0.00000  -1.37622   0.00000   0.00000   0.10733   0.00000   0.00000   0.00000   0.00000 ...
   0.00000   0.00000   0.10733   0.00000   0.00000   0.01603   0.00000   0.00000   0.00000   0.00000   0.00000   0.00000 ...
   0.00000   0.00000   0.00000   0.10733   0.00000   0.00000   0.01603   0.00000   0.00000   0.00000   0.00000   0.00000 ...
   0.00000   0.00000   0.00000   0.00000   0.10733   0.00000   0.00000   0.01603   0.00000   0.00000   0.00000   0.00000 ...
   0.00000   0.00000   0.00000   0.00000   0.00000   0.00000   0.00000   0.00000  -0.37870   0.00000   0.00000   0.00000 ...
   0.00000   0.00000   0.00000   0.00000   0.00000   0.00000   0.00000   0.00000   0.00000  -0.37870   0.00000   0.00000 ...
   0.00000   0.00000   0.00000   0.00000   0.00000   0.00000   0.00000   0.00000   0.00000   0.00000  -0.37807   0.00000 ...
   0.00000   0.00000   0.00000   0.00000   0.00000   0.00000   0.00000   0.00000   0.00000   0.00000   0.00000  -0.37870 ...
   ...  only 12  components have been written...


 Augmentation waves occupancies Rhoij:
 Atom #  1
   1.99941  -0.01122   0.00000   0.00000   0.00000   0.00000   0.00000   0.00000   0.00000   0.00000   0.00000   0.00000 ...
  -0.01122   0.15599   0.00000   0.00000   0.00000   0.00000   0.00000   0.00000   0.00000   0.00000   0.00000   0.00000 ...
   0.00000   0.00000   2.01221   0.00000   0.00000  -0.00490   0.00000   0.00000   0.00000   0.00000   0.00000  -0.00039 ...
   0.00000   0.00000   0.00000   2.01221   0.00000   0.00000  -0.00490   0.00000  -0.00039   0.00000   0.00000   0.00000 ...
   0.00000   0.00000   0.00000   0.00000   2.01221   0.00000   0.00000  -0.00490   0.00000  -0.00039   0.00000   0.00000 ...
   0.00000   0.00000  -0.00490   0.00000   0.00000   0.00013   0.00000   0.00000   0.00000   0.00000   0.00000  -0.00017 ...
   0.00000   0.00000   0.00000  -0.00490   0.00000   0.00000   0.00013   0.00000  -0.00017   0.00000   0.00000   0.00000 ...
   0.00000   0.00000   0.00000   0.00000  -0.00490   0.00000   0.00000   0.00013   0.00000  -0.00017   0.00000   0.00000 ...
   0.00000   0.00000   0.00000  -0.00039   0.00000   0.00000  -0.00017   0.00000   0.05598   0.00000   0.00000   0.00000 ...
   0.00000   0.00000   0.00000   0.00000  -0.00039   0.00000   0.00000  -0.00017   0.00000   0.05598   0.00000   0.00000 ...
   0.00000   0.00000   0.00000   0.00000   0.00000   0.00000   0.00000   0.00000   0.00000   0.00000   0.03504   0.00000 ...
   0.00000   0.00000  -0.00039   0.00000   0.00000  -0.00017   0.00000   0.00000   0.00000   0.00000   0.00000   0.05598 ...
   ...  only 12  components have been written...
 Atom #  9
   1.99782  -0.02369   0.00000   0.00000   0.00000   0.00000   0.00000   0.00000   0.00000   0.00000   0.00000   0.00000 ...
  -0.02369   1.00622   0.00000   0.00000   0.00000   0.00000   0.00000   0.00000   0.00000   0.00000   0.00000   0.00000 ...
   0.00000   0.00000   1.99203   0.00000   0.00000  -0.07268   0.00000   0.00000   0.00000   0.00000   0.00000   0.00000 ...
   0.00000   0.00000   0.00000   1.99203   0.00000   0.00000  -0.07268   0.00000   0.00000   0.00000   0.00000   0.00000 ...
   0.00000   0.00000   0.00000   0.00000   1.99203   0.00000   0.00000  -0.07268   0.00000   0.00000   0.00000   0.00000 ...
   0.00000   0.00000  -0.07268   0.00000   0.00000   1.47350   0.00000   0.00000   0.00000   0.00000   0.00000   0.00000 ...
   0.00000   0.00000   0.00000  -0.07268   0.00000   0.00000   1.47350   0.00000   0.00000   0.00000   0.00000   0.00000 ...
   0.00000   0.00000   0.00000   0.00000  -0.07268   0.00000   0.00000   1.47350   0.00000   0.00000   0.00000   0.00000 ...
   0.00000   0.00000   0.00000   0.00000   0.00000   0.00000   0.00000   0.00000   0.55153   0.00000   0.00000   0.00000 ...
   0.00000   0.00000   0.00000   0.00000   0.00000   0.00000   0.00000   0.00000   0.00000   0.55153   0.00000   0.00000 ...
   0.00000   0.00000   0.00000   0.00000   0.00000   0.00000   0.00000   0.00000   0.00000   0.00000   1.70338   0.00000 ...
   0.00000   0.00000   0.00000   0.00000   0.00000   0.00000   0.00000   0.00000   0.00000   0.00000   0.00000   0.55153 ...
   ...  only 12  components have been written...


================================================================================

 ----iterations are completed or convergence reached----

 Mean square residual over all n,k,spin=   50.967E-07; max=  10.297E-04
 reduced coordinates (array xred) for    9 atoms
       0.250000000000      0.250000000000      0.250000000000
       0.750000000000      0.750000000000      0.750000000000
       0.759822090260      0.240177909740      0.759822090260
       0.240177909740      0.240177909740      0.759822090260
       0.759822090260      0.759822090260      0.240177909740
       0.240177909740      0.759822090260      0.240177909740
       0.240177909740      0.759822090260      0.759822090260
       0.759822090260      0.240177909740      0.240177909740
      -0.000000000000      0.000000000000     -0.000000000000
 rms dE/dt=  4.4083E-05; max dE/dt=  6.6124E-05; dE/dt below (all hartree)
    1       0.000000000000      0.000000000000      0.000000000000
    2      -0.000000000000      0.000000000000      0.000000000000
    3       0.000066124440      0.000000000000      0.000066124440
    4      -0.000066124440     -0.000066124440      0.000000000000
    5       0.000066124440      0.000066124440      0.000000000000
    6      -0.000066124440      0.000000000000     -0.000066124440
    7       0.000000000000      0.000066124440      0.000066124440
    8      -0.000000000000     -0.000066124440     -0.000066124440
    9       0.000000000000      0.000000000000      0.000000000000

 cartesian coordinates (angstrom) at end:
    1      2.55499246741414     2.55499246741414     2.55499246741414
    2      7.66497740224243     7.66497740224243     7.66497740224243
    3      5.10998493482828     7.76535886875667     5.10998493482828
    4      5.10998493482828     5.10998493482828     2.45461100089989
    5      5.10998493482828     5.10998493482828     7.76535886875667
    6      5.10998493482828     2.45461100089989     5.10998493482828
    7      7.76535886875667     5.10998493482828     5.10998493482828
    8      2.45461100089989     5.10998493482828     5.10998493482828
    9      0.00000000000000    -0.00000000000000    -0.00000000000000

 cartesian forces (hartree/bohr) at end:
    1     -0.00000000000000     0.00000000000000     0.00000000000000
    2     -0.00000000000000     0.00000000000000     0.00000000000000
    3     -0.00000000000000    -0.00000684768098     0.00000000000000
    4     -0.00000000000000     0.00000000000000     0.00000684768098
    5      0.00000000000000    -0.00000000000000    -0.00000684768098
    6     -0.00000000000000     0.00000684768098     0.00000000000000
    7     -0.00000684768098     0.00000000000000     0.00000000000000
    8      0.00000684768098     0.00000000000000    -0.00000000000000
    9     -0.00000000000000     0.00000000000000     0.00000000000000
 frms,max,avg= 3.2280278E-06 6.8476810E-06   0.000E+00  0.000E+00  0.000E+00 h/b

 cartesian forces (eV/Angstrom) at end:
    1     -0.00000000000000     0.00000000000000     0.00000000000000
    2     -0.00000000000000     0.00000000000000     0.00000000000000
    3     -0.00000000000000    -0.00035212188410     0.00000000000000
    4     -0.00000000000000     0.00000000000000     0.00035212188410
    5      0.00000000000000    -0.00000000000000    -0.00035212188410
    6     -0.00000000000000     0.00035212188410     0.00000000000000
    7     -0.00035212188410     0.00000000000000     0.00000000000000
    8      0.00035212188410     0.00000000000000    -0.00000000000000
    9     -0.00000000000000     0.00000000000000     0.00000000000000
 frms,max,avg= 1.6599185E-04 3.5212188E-04   0.000E+00  0.000E+00  0.000E+00 e/A
 length scales= 13.656313766000 13.656313766000 13.656313766000 bohr
              =  7.226609998321  7.226609998321  7.226609998321 angstroms
 prteigrs : about to open file Cs2TiI6o_DS1_EIG
 Fermi (or HOMO) energy (hartree) =  -0.01675   Average Vxc (hartree)=  -0.31375
 Eigenvalues (hartree) for nkpt=  72  k points:
 kpt#   1, nband= 42, wtk=  0.00058, kpt=  0.0000  0.0000  0.0000 (reduced coord)
  -2.26078   -1.10686   -1.10686   -1.10686   -0.70314   -0.70208   -0.50973   -0.48810
  -0.48810   -0.48645   -0.48645   -0.48645   -0.22986   -0.22986   -0.22986   -0.22205
  -0.22205   -0.22205   -0.14361   -0.08944   -0.08944   -0.08301   -0.08301   -0.08301
  -0.08234   -0.08234   -0.08234   -0.04276   -0.04276   -0.04276   -0.02276   -0.02276
  -0.02276   -0.01675   -0.01675   -0.01675    0.13577    0.13577    0.13577    0.21115
   0.22092    0.22092
 prteigrs : prtvol=0 or 1, do not print more k-points.


--- !EnergyTerms
iteration_state     : {dtset: 1, }
comment             : Components of total free energy in Hartree
kinetic             :  5.47614010169354E+01
hartree             :  3.98109452151966E+01
xc                  : -5.55367790159480E+01
Ewald energy        : -1.32476171741892E+02
psp_core            :  8.70784129763011E+00
local_psp           : -1.13429944492195E+02
spherical_terms     :  1.58142637693909E+01
total_energy        : -1.82348443950882E+02
total_energy_eV     : -4.96195350462114E+03
...


--- !EnergyTermsDC
iteration_state     : {dtset: 1, }
comment             : '"Double-counting" decomposition of free energy'
band_energy         : -2.48399209805065E+01
Ewald energy        : -1.32476171741892E+02
psp_core            :  8.70784129763011E+00
xc_dc               : -5.30325573124017E+01
spherical_terms     :  1.92923611769153E+01
total_energy_dc     : -1.82348447560255E+02
total_energy_dc_eV  : -4.96195360283718E+03
...


 Cartesian components of stress tensor (hartree/bohr^3)
  sigma(1 1)= -7.12581665E-05  sigma(3 2)=  0.00000000E+00
  sigma(2 2)= -7.12581665E-05  sigma(3 1)=  0.00000000E+00
  sigma(3 3)= -7.12581665E-05  sigma(2 1)=  0.00000000E+00

-Cartesian components of stress tensor (GPa)         [Pressure=  2.0965E+00 GPa]
- sigma(1 1)= -2.09648729E+00  sigma(3 2)=  0.00000000E+00
- sigma(2 2)= -2.09648729E+00  sigma(3 1)=  0.00000000E+00
- sigma(3 3)= -2.09648729E+00  sigma(2 1)=  0.00000000E+00

================================================================================
== DATASET  2 ==================================================================
-   mpi_nproc: 4, omp_nthreads: -1 (-1 if OMP is not activated)


--- !DatasetInfo
iteration_state: {dtset: 2, }
dimensions: {natom: 9, nkpt: 72, mband: 42, nsppol: 1, nspinor: 1, nspden: 1, mpw: 8372, }
cutoff_energies: {ecut:  16.0, pawecutdg:  40.0, }
electrons: {nelect:   7.20000000E+01, charge:   0.00000000E+00, occopt:   1.00000000E+00, tsmear:   1.00000000E-02, }
meta: {optdriver: 0, ionmov: 0, optcell: 0, iscf: 17, paral_kgb: 0, }
...

 Real(R)+Recip(G) space primitive vectors, cartesian coordinates (Bohr,Bohr^-1):
 R(1)=  0.0000000  9.6462967  9.6462967  G(1)= -0.0518334  0.0518334  0.0518334
 R(2)=  9.6462967  0.0000000  9.6462967  G(2)=  0.0518334 -0.0518334  0.0518334
 R(3)=  9.6462967  9.6462967  0.0000000  G(3)=  0.0518334  0.0518334 -0.0518334
 Unit cell volume ucvol=  1.7951959E+03 bohr^3
 Angles (23,13,12)=  6.00000000E+01  6.00000000E+01  6.00000000E+01 degrees

 Coarse grid specifications (used for wave-functions):

 getcut: wavevector=  0.0000  0.0000  0.0000  ngfft=  60  60  60
         ecut(hartree)=     21.160   => boxcut(ratio)=   2.12399

 Fine grid specifications (used for densities):

 getcut: wavevector=  0.0000  0.0000  0.0000  ngfft=  90  90  90
         ecut(hartree)=     52.900   => boxcut(ratio)=   2.01524

--- Pseudopotential description ------------------------------------------------
- pspini: atom type   1  psp file is ../../../Psps_for_tests/ATOMICDATA/Cs.GGA_PBE-JTH.xml
- pspatm: opening atomic psp file    ../../../Psps_for_tests/ATOMICDATA/Cs.GGA_PBE-JTH.xml
- pspatm : Reading pseudopotential header in XML form from ../../../Psps_for_tests/ATOMICDATA/Cs.GGA_PBE-JTH.xml
 Pseudopotential format is: paw10
 basis_size (lnmax)=  6 (lmn_size= 18), orbitals=   0   0   1   1   2   2
 Spheres core radius: rc_sph= 2.20660278
 1 radial meshes are used:
  - mesh 1: r(i)=AA*[exp(BB*(i-1))-1], size=1500 , AA= 0.15922E-03 BB= 0.87573E-02
 Shapefunction is SIN type: shapef(r)=[sin(pi*r/rshp)/(pi*r/rshp)]**2
 Radius for shape functions =  2.00394208
 mmax= 1500
 Radial grid used for partial waves is grid 1
 Radial grid used for projectors is grid 1
 Radial grid used for (t)core density is grid 1
 Radial grid used for Vloc is grid 1
 Radial grid used for pseudo valence density is grid 1
 Mesh size for Vloc has been set to 1341 to avoid numerical noise.
 Compensation charge density is not taken into account in XC energy/potential
 pspatm: atomic psp has been read  and splines computed

- pspini: atom type   2  psp file is ../../../Psps_for_tests/ATOMICDATA/Cl.GGA_PBE-JTH.xml
- pspatm: opening atomic psp file    ../../../Psps_for_tests/ATOMICDATA/Cl.GGA_PBE-JTH.xml
- pspatm : Reading pseudopotential header in XML form from ../../../Psps_for_tests/ATOMICDATA/Cl.GGA_PBE-JTH.xml
 Pseudopotential format is: paw10
 basis_size (lnmax)=  4 (lmn_size=  8), orbitals=   0   0   1   1
 Spheres core radius: rc_sph= 1.80315674
 1 radial meshes are used:
  - mesh 1: r(i)=AA*[exp(BB*(i-1))-1], size=1400 , AA= 0.50355E-03 BB= 0.85603E-02
 Shapefunction is SIN type: shapef(r)=[sin(pi*r/rshp)/(pi*r/rshp)]**2
 Radius for shape functions =  1.61320365
 mmax= 1400
 Radial grid used for partial waves is grid 1
 Radial grid used for projectors is grid 1
 Radial grid used for (t)core density is grid 1
 Radial grid used for Vloc is grid 1
 Radial grid used for pseudo valence density is grid 1
 Mesh size for Vloc has been set to 1238 to avoid numerical noise.
 Compensation charge density is not taken into account in XC energy/potential
 pspatm: atomic psp has been read  and splines computed

- pspini: atom type   3  psp file is ../../../Psps_for_tests/ATOMICDATA/Hf.GGA_PBE-JTH.xml
- pspatm: opening atomic psp file    ../../../Psps_for_tests/ATOMICDATA/Hf.GGA_PBE-JTH.xml
- pspatm : Reading pseudopotential header in XML form from ../../../Psps_for_tests/ATOMICDATA/Hf.GGA_PBE-JTH.xml
 Pseudopotential format is: paw10
 basis_size (lnmax)=  6 (lmn_size= 18), orbitals=   0   0   1   1   2   2
 Spheres core radius: rc_sph= 2.41000000
 1 radial meshes are used:
  - mesh 1: r(i)=AA*[exp(BB*(i-1))-1], size= 972 , AA= 0.19796E-03 BB= 0.14253E-01
 Shapefunction is SIN type: shapef(r)=[sin(pi*r/rshp)/(pi*r/rshp)]**2
 Radius for shape functions =  2.41000000
 mmax=  972
 Radial grid used for partial waves is grid 1
 Radial grid used for projectors is grid 1
 Radial grid used for (t)core density is grid 1
 Radial grid used for Vloc is grid 1
 Radial grid used for pseudo valence density is grid 1
 Mesh size for Vloc has been set to  809 to avoid numerical noise.
 Compensation charge density is not taken into account in XC energy/potential
 pspatm: atomic psp has been read  and splines computed

--------------------------------------------------------------------------------

_setup2: Arith. and geom. avg. npw (full set) are    8345.942    8345.931

================================================================================

--- !BeginCycle
iteration_state: {dtset: 2, }
solver: {iscf: 17, nstep: 2500, nline: 4, wfoptalg: 10, }
tolerances: {toldfe: 1.00E-08, }
...

     iter   Etot(hartree)      deltaE(h)  residm     nres2
 ETOT  1  -180.48099192088    -1.805E+02 8.301E+00 9.372E+00
 ETOT  2  -182.37058151897    -1.890E+00 3.103E-02 6.214E+00
 ETOT  3  -182.34597583655     2.461E-02 3.111E-02 8.035E-01
 ETOT  4  -182.34763347399    -1.658E-03 1.172E-02 1.746E-01
 ETOT  5  -182.34795912125    -3.256E-04 4.156E-03 1.182E-02
 ETOT  6  -182.34802142645    -6.231E-05 8.063E-03 1.664E-03
 ETOT  7  -182.34803638340    -1.496E-05 2.194E-03 1.360E-04
 ETOT  8  -182.34803739992    -1.017E-06 2.945E-03 2.066E-05
 ETOT  9  -182.34803761320    -2.133E-07 1.360E-03 1.647E-06
 ETOT 10  -182.34803762249    -9.292E-09 6.641E-04 1.758E-07
 ETOT 11  -182.34803762453    -2.040E-09 6.217E-04 2.692E-08

 At SCF step   11, etot is converged : 
  for the second time, diff in etot=  2.040E-09 < toldfe=  1.000E-08

 Cartesian components of stress tensor (hartree/bohr^3)
  sigma(1 1)= -7.34204183E-05  sigma(3 2)=  0.00000000E+00
  sigma(2 2)= -7.34204183E-05  sigma(3 1)=  0.00000000E+00
  sigma(3 3)= -7.34204183E-05  sigma(2 1)=  0.00000000E+00


--- !ResultsGS
iteration_state: {dtset: 2, }
comment   : Summary of ground state results
lattice_vectors:
- [  0.0000000,   9.6462967,   9.6462967, ]
- [  9.6462967,   0.0000000,   9.6462967, ]
- [  9.6462967,   9.6462967,   0.0000000, ]
lattice_lengths: [  13.64192,   13.64192,   13.64192, ]
lattice_angles: [ 60.000,  60.000,  60.000, ] # degrees, (23, 13, 12)
lattice_volume:   1.7951959E+03
convergence: {deltae: -2.040E-09, res2:  2.692E-08, residm:  6.217E-04, diffor: null, }
etotal    :  -1.82348038E+02
entropy   :   0.00000000E+00
fermie    :  -1.59782722E-02
cartesian_stress_tensor: # hartree/bohr^3
- [ -7.34204183E-05,   0.00000000E+00,   0.00000000E+00, ]
- [  0.00000000E+00,  -7.34204183E-05,   0.00000000E+00, ]
- [  0.00000000E+00,   0.00000000E+00,  -7.34204183E-05, ]
pressure_GPa:   2.1601E+00
xred      :
- [  2.5000E-01,   2.5000E-01,   2.5000E-01, Cs]
- [  7.5000E-01,   7.5000E-01,   7.5000E-01, Cs]
- [  7.5960E-01,   2.4040E-01,   7.5960E-01, Cl]
- [  2.4040E-01,   2.4040E-01,   7.5960E-01, Cl]
- [  7.5960E-01,   7.5960E-01,   2.4040E-01, Cl]
- [  2.4040E-01,   7.5960E-01,   2.4040E-01, Cl]
- [  2.4040E-01,   7.5960E-01,   7.5960E-01, Cl]
- [  7.5960E-01,   2.4040E-01,   2.4040E-01, Cl]
- [ -1.9756E-20,   1.6145E-20,  -1.0583E-20, Hf]
cartesian_forces: # hartree/bohr
- [ -1.88229460E-22,   1.88229516E-22,   1.29004440E-22, ]
- [ -1.88229628E-22,   1.88229348E-22,   1.29005054E-22, ]
- [  6.96030159E-22,  -4.80655645E-06,  -7.55254955E-22, ]
- [  4.24390995E-22,  -4.09756139E-22,   4.80655645E-06, ]
- [  3.25139456E-22,  -3.39774312E-22,  -4.80655645E-06, ]
- [ -7.21252714E-22,   4.80655645E-06,   6.62027917E-22, ]
- [ -4.80655645E-06,   4.32132950E-22,  -1.14898659E-22, ]
- [  4.80655645E-06,  -5.56738621E-23,   3.72908153E-22, ]
- [ -1.88229544E-22,   1.88229544E-22,   1.29004747E-22, ]
force_length_stats: {min:   2.95808766E-22, max:   4.80655645E-06, mean:   3.20437097E-06, }
...

 Integrated electronic density in atomic spheres:
 ------------------------------------------------
 Atom  Sphere_radius  Integrated_density
    1        2.20660          5.36247544
    2        2.20660          5.36247544
    3        1.80316          4.37224940
    4        1.80316          4.37224940
    5        1.80316          4.37224940
    6        1.80316          4.37224940
    7        1.80316          4.37224940
    8        1.80316          4.37224940
    9        2.41000          9.35355312

 PAW TEST:
 ==== Compensation charge inside spheres ============
 The following values must be close to each other ...
 Compensation charge over spherical meshes =     -1.454302906558593
 Compensation charge over fine fft grid    =     -1.454303515620979

 ==== Results concerning PAW augmentation regions ====

 Total pseudopotential strength Dij (hartree):
 Atom #  1
   0.40581  -0.13458   0.00000   0.00000   0.00000   0.00000   0.00000   0.00000   0.00000   0.00000   0.00000   0.00000 ...
  -0.13458   0.04030   0.00000   0.00000   0.00000   0.00000   0.00000   0.00000   0.00000   0.00000   0.00000   0.00000 ...
   0.00000   0.00000  -0.08934   0.00000   0.00000  -0.16910   0.00000   0.00000   0.00000   0.00000   0.00000  -0.00000 ...
   0.00000   0.00000   0.00000  -0.08934   0.00000   0.00000  -0.16910   0.00000  -0.00000   0.00000   0.00000   0.00000 ...
   0.00000   0.00000   0.00000   0.00000  -0.08934   0.00000   0.00000  -0.16910   0.00000  -0.00000   0.00000   0.00000 ...
   0.00000   0.00000  -0.16910   0.00000   0.00000   0.39360   0.00000   0.00000   0.00000   0.00000   0.00000   0.00000 ...
   0.00000   0.00000   0.00000  -0.16910   0.00000   0.00000   0.39360   0.00000   0.00000   0.00000   0.00000   0.00000 ...
   0.00000   0.00000   0.00000   0.00000  -0.16910   0.00000   0.00000   0.39360   0.00000   0.00000   0.00000   0.00000 ...
   0.00000   0.00000   0.00000  -0.00000   0.00000   0.00000   0.00000   0.00000   0.00582   0.00000   0.00000   0.00000 ...
   0.00000   0.00000   0.00000   0.00000  -0.00000   0.00000   0.00000   0.00000   0.00000   0.00582   0.00000   0.00000 ...
   0.00000   0.00000   0.00000   0.00000   0.00000   0.00000   0.00000   0.00000   0.00000   0.00000   0.00582   0.00000 ...
   0.00000   0.00000  -0.00000   0.00000   0.00000   0.00000   0.00000   0.00000   0.00000   0.00000   0.00000   0.00582 ...
   ...  only 12  components have been written...
 Atom #  9
  -3.46943   0.41070   0.00000   0.00000   0.00000   0.00000   0.00000   0.00000   0.00000   0.00000   0.00000   0.00000 ...
   0.41070   0.00627   0.00000   0.00000   0.00000   0.00000   0.00000   0.00000   0.00000   0.00000   0.00000   0.00000 ...
   0.00000   0.00000  -1.37571   0.00000   0.00000   0.10723   0.00000   0.00000   0.00000   0.00000   0.00000   0.00000 ...
   0.00000   0.00000   0.00000  -1.37571   0.00000   0.00000   0.10723   0.00000   0.00000   0.00000   0.00000   0.00000 ...
   0.00000   0.00000   0.00000   0.00000  -1.37571   0.00000   0.00000   0.10723   0.00000   0.00000   0.00000   0.00000 ...
   0.00000   0.00000   0.10723   0.00000   0.00000   0.01604   0.00000   0.00000   0.00000   0.00000   0.00000   0.00000 ...
   0.00000   0.00000   0.00000   0.10723   0.00000   0.00000   0.01604   0.00000   0.00000   0.00000   0.00000   0.00000 ...
   0.00000   0.00000   0.00000   0.00000   0.10723   0.00000   0.00000   0.01604   0.00000   0.00000   0.00000   0.00000 ...
   0.00000   0.00000   0.00000   0.00000   0.00000   0.00000   0.00000   0.00000  -0.37861   0.00000   0.00000   0.00000 ...
   0.00000   0.00000   0.00000   0.00000   0.00000   0.00000   0.00000   0.00000   0.00000  -0.37861   0.00000   0.00000 ...
   0.00000   0.00000   0.00000   0.00000   0.00000   0.00000   0.00000   0.00000   0.00000   0.00000  -0.37798   0.00000 ...
   0.00000   0.00000   0.00000   0.00000   0.00000   0.00000   0.00000   0.00000   0.00000   0.00000   0.00000  -0.37861 ...
   ...  only 12  components have been written...


 Augmentation waves occupancies Rhoij:
 Atom #  1
   1.99945  -0.01111   0.00000   0.00000   0.00000   0.00000   0.00000   0.00000   0.00000   0.00000   0.00000   0.00000 ...
  -0.01111   0.15728   0.00000   0.00000   0.00000   0.00000   0.00000   0.00000   0.00000   0.00000   0.00000   0.00000 ...
   0.00000   0.00000   2.01224   0.00000   0.00000  -0.00490   0.00000   0.00000   0.00000   0.00000   0.00000  -0.00046 ...
   0.00000   0.00000   0.00000   2.01224   0.00000   0.00000  -0.00490   0.00000  -0.00046   0.00000   0.00000   0.00000 ...
   0.00000   0.00000   0.00000   0.00000   2.01224   0.00000   0.00000  -0.00490   0.00000  -0.00046   0.00000   0.00000 ...
   0.00000   0.00000  -0.00490   0.00000   0.00000   0.00013   0.00000   0.00000   0.00000   0.00000   0.00000  -0.00017 ...
   0.00000   0.00000   0.00000  -0.00490   0.00000   0.00000   0.00013   0.00000  -0.00017   0.00000   0.00000   0.00000 ...
   0.00000   0.00000   0.00000   0.00000  -0.00490   0.00000   0.00000   0.00013   0.00000  -0.00017   0.00000   0.00000 ...
   0.00000   0.00000   0.00000  -0.00046   0.00000   0.00000  -0.00017   0.00000   0.05658   0.00000   0.00000   0.00000 ...
   0.00000   0.00000   0.00000   0.00000  -0.00046   0.00000   0.00000  -0.00017   0.00000   0.05658   0.00000   0.00000 ...
   0.00000   0.00000   0.00000   0.00000   0.00000   0.00000   0.00000   0.00000   0.00000   0.00000   0.03543   0.00000 ...
   0.00000   0.00000  -0.00046   0.00000   0.00000  -0.00017   0.00000   0.00000   0.00000   0.00000   0.00000   0.05658 ...
   ...  only 12  components have been written...
 Atom #  9
   1.99782  -0.02366   0.00000   0.00000   0.00000   0.00000   0.00000   0.00000   0.00000   0.00000   0.00000   0.00000 ...
  -0.02366   1.00659   0.00000   0.00000   0.00000   0.00000   0.00000   0.00000   0.00000   0.00000   0.00000   0.00000 ...
   0.00000   0.00000   1.99205   0.00000   0.00000  -0.07254   0.00000   0.00000   0.00000   0.00000   0.00000   0.00000 ...
   0.00000   0.00000   0.00000   1.99205   0.00000   0.00000  -0.07254   0.00000   0.00000   0.00000   0.00000   0.00000 ...
   0.00000   0.00000   0.00000   0.00000   1.99205   0.00000   0.00000  -0.07254   0.00000   0.00000   0.00000   0.00000 ...
   0.00000   0.00000  -0.07254   0.00000   0.00000   1.47476   0.00000   0.00000   0.00000   0.00000   0.00000   0.00000 ...
   0.00000   0.00000   0.00000  -0.07254   0.00000   0.00000   1.47476   0.00000   0.00000   0.00000   0.00000   0.00000 ...
   0.00000   0.00000   0.00000   0.00000  -0.07254   0.00000   0.00000   1.47476   0.00000   0.00000   0.00000   0.00000 ...
   0.00000   0.00000   0.00000   0.00000   0.00000   0.00000   0.00000   0.00000   0.55225   0.00000   0.00000   0.00000 ...
   0.00000   0.00000   0.00000   0.00000   0.00000   0.00000   0.00000   0.00000   0.00000   0.55225   0.00000   0.00000 ...
   0.00000   0.00000   0.00000   0.00000   0.00000   0.00000   0.00000   0.00000   0.00000   0.00000   1.70497   0.00000 ...
   0.00000   0.00000   0.00000   0.00000   0.00000   0.00000   0.00000   0.00000   0.00000   0.00000   0.00000   0.55225 ...
   ...  only 12  components have been written...


================================================================================

 ----iterations are completed or convergence reached----

 Mean square residual over all n,k,spin=   59.855E-07; max=  62.172E-05
 reduced coordinates (array xred) for    9 atoms
       0.250000000000      0.250000000000      0.250000000000
       0.750000000000      0.750000000000      0.750000000000
       0.759604991320      0.240395008680      0.759604991320
       0.240395008680      0.240395008680      0.759604991320
       0.759604991320      0.759604991320      0.240395008680
       0.240395008680      0.759604991320      0.240395008680
       0.240395008680      0.759604991320      0.759604991320
       0.759604991320      0.240395008680      0.240395008680
      -0.000000000000      0.000000000000     -0.000000000000
 rms dE/dt=  3.0910E-05; max dE/dt=  4.6365E-05; dE/dt below (all hartree)
    1       0.000000000000      0.000000000000     -0.000000000000
    2      -0.000000000000     -0.000000000000      0.000000000000
[...]
                       7.7133648520E+00  5.0830619375E+00  5.0830619375E+00
                       2.4527590230E+00  5.0830619375E+00  5.0830619375E+00
                       3.7046505664E-20  1.0118828665E-20 -3.1966996189E-20
           xangst7     2.5388386689E+00  2.5388386689E+00  2.5388386689E+00
                       7.6165160068E+00  7.6165160068E+00  7.6165160068E+00
                       5.0776773379E+00  7.7029669833E+00  5.0776773379E+00
                       5.0776773379E+00  5.0776773379E+00  2.4523876924E+00
                       5.0776773379E+00  5.0776773379E+00  7.7029669833E+00
                       5.0776773379E+00  2.4523876924E+00  5.0776773379E+00
                       7.7029669833E+00  5.0776773379E+00  5.0776773379E+00
                       2.4523876924E+00  5.0776773379E+00  5.0776773379E+00
                       9.5601408072E-20 -4.3441207189E-21 -7.8548073660E-20
           xangst8     2.5361463691E+00  2.5361463691E+00  2.5361463691E+00
                       7.6084391074E+00  7.6084391074E+00  7.6084391074E+00
                       5.0722927383E+00  7.6925843530E+00  5.0722927383E+00
                       5.0722927383E+00  5.0722927383E+00  2.4520011235E+00
                       5.0722927383E+00  5.0722927383E+00  7.6925843530E+00
                       5.0722927383E+00  2.4520011235E+00  5.0722927383E+00
                       7.6925843530E+00  5.0722927383E+00  5.0722927383E+00
                       2.4520011235E+00  5.0722927383E+00  5.0722927383E+00
                       3.6968017303E-20  1.0097390468E-20 -3.1899269501E-20
           xangst9     2.5334540695E+00  2.5334540695E+00  2.5334540695E+00
                       7.6003622085E+00  7.6003622085E+00  7.6003622085E+00
                       5.0669081390E+00  7.6822001898E+00  5.0669081390E+00
                       5.0669081390E+00  5.0669081390E+00  2.4516160883E+00
                       5.0669081390E+00  5.0669081390E+00  7.6822001898E+00
                       5.0669081390E+00  2.4516160883E+00  5.0669081390E+00
                       7.6822001898E+00  5.0669081390E+00  5.0669081390E+00
                       2.4516160883E+00  5.0669081390E+00  5.0669081390E+00
                      -2.6954423950E-20  4.4202488470E-20 -6.5229250058E-20
            xcart1     4.8282360350E+00  4.8282360350E+00  4.8282360350E+00
                       1.4484708105E+01  1.4484708105E+01  1.4484708105E+01
                       9.6564720700E+00  1.4674401586E+01  9.6564720700E+00
                       9.6564720700E+00  9.6564720700E+00  4.6385425545E+00
                       9.6564720700E+00  9.6564720700E+00  1.4674401586E+01
                       9.6564720700E+00  4.6385425545E+00  9.6564720700E+00
                       1.4674401586E+01  9.6564720700E+00  9.6564720700E+00
                       4.6385425545E+00  9.6564720700E+00  9.6564720700E+00
                       8.2589603980E-20 -1.7972258084E-19 -5.0533622362E-20
            xcart2     4.8231483260E+00  4.8231483260E+00  4.8231483260E+00
                       1.4469444978E+01  1.4469444978E+01  1.4469444978E+01
                       9.6462966521E+00  1.4654750169E+01  9.6462966521E+00
                       9.6462966521E+00  9.6462966521E+00  4.6378431348E+00
                       9.6462966521E+00  9.6462966521E+00  1.4654750169E+01
                       9.6462966521E+00  4.6378431348E+00  9.6462966521E+00
                       1.4654750169E+01  9.6462966521E+00  9.6462966521E+00
                       4.6378431348E+00  9.6462966521E+00  9.6462966521E+00
                       5.3648482708E-20 -2.9266201102E-19 -3.4832106803E-20
            xcart3     4.8180606167E+00  4.8180606167E+00  4.8180606167E+00
                       1.4454181850E+01  1.4454181850E+01  1.4454181850E+01
                       9.6361212335E+00  1.4635135256E+01  9.6361212335E+00
                       9.6361212335E+00  9.6361212335E+00  4.6371072109E+00
                       9.6361212335E+00  9.6361212335E+00  1.4635135256E+01
                       9.6361212335E+00  4.6371072109E+00  9.6361212335E+00
                       1.4635135256E+01  9.6361212335E+00  9.6361212335E+00
                       4.6371072109E+00  9.6361212335E+00  9.6361212335E+00
                      -7.7820056797E-20 -4.3189230597E-19 -1.8880921077E-20
            xcart4     4.8129729074E+00  4.8129729074E+00  4.8129729074E+00
                       1.4438918722E+01  1.4438918722E+01  1.4438918722E+01
                       9.6259458149E+00  1.4615485492E+01  9.6259458149E+00
                       9.6259458149E+00  9.6259458149E+00  4.6364061382E+00
                       9.6259458149E+00  9.6259458149E+00  1.4615485492E+01
                       9.6259458149E+00  4.6364061382E+00  9.6259458149E+00
                       1.4615485492E+01  9.6259458149E+00  9.6259458149E+00
                       4.6364061382E+00  9.6259458149E+00  9.6259458149E+00
                       7.0156071387E-20  1.9162327282E-20 -6.0536852977E-20
            xcart5     4.8078851981E+00  4.8078851981E+00  4.8078851981E+00
                       1.4423655594E+01  1.4423655594E+01  1.4423655594E+01
                       9.6157703963E+00  1.4595808371E+01  9.6157703963E+00
                       9.6157703963E+00  9.6157703963E+00  4.6357324210E+00
                       9.6157703963E+00  9.6157703963E+00  1.4595808371E+01
                       9.6157703963E+00  4.6357324210E+00  9.6157703963E+00
                       1.4595808371E+01  9.6157703963E+00  9.6157703963E+00
                       4.6357324210E+00  9.6157703963E+00  9.6157703963E+00
                       1.9473242529E-19 -1.9210089689E-19 -2.0856521890E-20
            xcart6     4.8027974892E+00  4.8027974892E+00  4.8027974892E+00
                       1.4408392468E+01  1.4408392468E+01  1.4408392468E+01
                       9.6055949784E+00  1.4576147133E+01  9.6055949784E+00
                       9.6055949784E+00  9.6055949784E+00  4.6350428234E+00
                       9.6055949784E+00  9.6055949784E+00  1.4576147133E+01
                       9.6055949784E+00  4.6350428234E+00  9.6055949784E+00
                       1.4576147133E+01  9.6055949784E+00  9.6055949784E+00
                       4.6350428234E+00  9.6055949784E+00  9.6055949784E+00
                       7.0007749885E-20  1.9121814962E-20 -6.0408868089E-20
            xcart7     4.7977097799E+00  4.7977097799E+00  4.7977097799E+00
                       1.4393129340E+01  1.4393129340E+01  1.4393129340E+01
                       9.5954195598E+00  1.4556498009E+01  9.5954195598E+00
                       9.5954195598E+00  9.5954195598E+00  4.6343411103E+00
                       9.5954195598E+00  9.5954195598E+00  1.4556498009E+01
                       9.5954195598E+00  4.6343411103E+00  9.5954195598E+00
                       1.4556498009E+01  9.5954195598E+00  9.5954195598E+00
                       4.6343411103E+00  9.5954195598E+00  9.5954195598E+00
                       1.8066047917E-19 -8.2091984468E-21 -1.4843434748E-19
            xcart8     4.7926220706E+00  4.7926220706E+00  4.7926220706E+00
                       1.4377866212E+01  1.4377866212E+01  1.4377866212E+01
                       9.5852441411E+00  1.4536877681E+01  9.5852441411E+00
                       9.5852441411E+00  9.5852441411E+00  4.6336106010E+00
                       9.5852441411E+00  9.5852441411E+00  1.4536877681E+01
                       9.5852441411E+00  4.6336106010E+00  9.5852441411E+00
                       1.4536877681E+01  9.5852441411E+00  9.5852441411E+00
                       4.6336106010E+00  9.5852441411E+00  9.5852441411E+00
                       6.9859428378E-20  1.9081302642E-20 -6.0280883196E-20
            xcart9     4.7875343616E+00  4.7875343616E+00  4.7875343616E+00
                       1.4362603085E+01  1.4362603085E+01  1.4362603085E+01
                       9.5750687232E+00  1.4517254457E+01  9.5750687232E+00
                       9.5750687232E+00  9.5750687232E+00  4.6328829898E+00
                       9.5750687232E+00  9.5750687232E+00  1.4517254457E+01
                       9.5750687232E+00  4.6328829898E+00  9.5750687232E+00
                       1.4517254457E+01  9.5750687232E+00  9.5750687232E+00
                       4.6328829898E+00  9.5750687232E+00  9.5750687232E+00
                      -5.0936479334E-20  8.3530597601E-20 -1.2326541846E-19
             xred1     2.5000000000E-01  2.5000000000E-01  2.5000000000E-01
                       7.5000000000E-01  7.5000000000E-01  7.5000000000E-01
                       7.5982209026E-01  2.4017790974E-01  7.5982209026E-01
                       2.4017790974E-01  2.4017790974E-01  7.5982209026E-01
                       7.5982209026E-01  7.5982209026E-01  2.4017790974E-01
                       2.4017790974E-01  7.5982209026E-01  2.4017790974E-01
                       2.4017790974E-01  7.5982209026E-01  7.5982209026E-01
                       7.5982209026E-01  2.4017790974E-01  2.4017790974E-01
                      -1.6198763115E-20  1.0965628074E-20 -2.4128560698E-21
             xred2     2.5000000000E-01  2.5000000000E-01  2.5000000000E-01
                       7.5000000000E-01  7.5000000000E-01  7.5000000000E-01
                       7.5960499132E-01  2.4039500868E-01  7.5960499132E-01
                       2.4039500868E-01  2.4039500868E-01  7.5960499132E-01
                       7.5960499132E-01  7.5960499132E-01  2.4039500868E-01
                       2.4039500868E-01  7.5960499132E-01  2.4039500868E-01
                       2.4039500868E-01  7.5960499132E-01  7.5960499132E-01
                       7.5960499132E-01  2.4039500868E-01  2.4039500868E-01
                      -1.9755902927E-20  1.6144972426E-20 -1.0583409824E-20
             xred3     2.5000000000E-01  2.5000000000E-01  2.5000000000E-01
                       7.5000000000E-01  7.5000000000E-01  7.5000000000E-01
                       7.5938932800E-01  2.4061067200E-01  7.5938932800E-01
                       2.4061067200E-01  2.4061067200E-01  7.5938932800E-01
                       7.5938932800E-01  7.5938932800E-01  2.4061067200E-01
                       2.4061067200E-01  7.5938932800E-01  2.4061067200E-01
                       2.4061067200E-01  7.5938932800E-01  7.5938932800E-01
                       7.5938932800E-01  2.4061067200E-01  2.4061067200E-01
                      -1.9351830535E-20  1.7392440380E-20 -2.5468309800E-20
             xred4     2.5000000000E-01  2.5000000000E-01  2.5000000000E-01
                       7.5000000000E-01  7.5000000000E-01  7.5000000000E-01
                       7.5917139846E-01  2.4082860154E-01  7.5917139846E-01
                       2.4082860154E-01  2.4082860154E-01  7.5917139846E-01
                       7.5917139846E-01  7.5917139846E-01  2.4082860154E-01
                       2.4082860154E-01  7.5917139846E-01  2.4082860154E-01
                       2.4082860154E-01  7.5917139846E-01  7.5917139846E-01
                       7.5917139846E-01  2.4082860154E-01  2.4082860154E-01
                      -5.7932279709E-21 -4.9569720499E-22  7.7839234984E-21
             xred5     2.5000000000E-01  2.5000000000E-01  2.5000000000E-01
                       7.5000000000E-01  7.5000000000E-01  7.5000000000E-01
                       7.5895158526E-01  2.4104841474E-01  7.5895158526E-01
                       2.4104841474E-01  2.4104841474E-01  7.5895158526E-01
                       7.5895158526E-01  7.5895158526E-01  2.4104841474E-01
                       2.4104841474E-01  7.5895158526E-01  2.4104841474E-01
                       2.4104841474E-01  7.5895158526E-01  7.5895158526E-01
                       7.5895158526E-01  2.4104841474E-01  2.4104841474E-01
                      -2.1199021361E-20  1.9030030107E-20  1.2213296137E-21
             xred6     2.5000000000E-01  2.5000000000E-01  2.5000000000E-01
                       7.5000000000E-01  7.5000000000E-01  7.5000000000E-01
                       7.5873213300E-01  2.4126786700E-01  7.5873213300E-01
                       2.4126786700E-01  2.4126786700E-01  7.5873213300E-01
                       7.5873213300E-01  7.5873213300E-01  2.4126786700E-01
                       2.4126786700E-01  7.5873213300E-01  2.4126786700E-01
                       2.4126786700E-01  7.5873213300E-01  7.5873213300E-01
                       7.5873213300E-01  2.4126786700E-01  2.4126786700E-01
                      -5.7932279709E-21 -4.9569720499E-22  7.7839234984E-21
             xred7     2.5000000000E-01  2.5000000000E-01  2.5000000000E-01
                       7.5000000000E-01  7.5000000000E-01  7.5000000000E-01
                       7.5851284660E-01  2.4148715340E-01  7.5851284660E-01
                       2.4148715340E-01  2.4148715340E-01  7.5851284660E-01
                       7.5851284660E-01  7.5851284660E-01  2.4148715340E-01
                       2.4148715340E-01  7.5851284660E-01  2.4148715340E-01
                       2.4148715340E-01  7.5851284660E-01  7.5851284660E-01
                       7.5851284660E-01  2.4148715340E-01  2.4148715340E-01
                      -1.7576304142E-20  2.1070120950E-21  1.6720771104E-20
             xred8     2.5000000000E-01  2.5000000000E-01  2.5000000000E-01
                       7.5000000000E-01  7.5000000000E-01  7.5000000000E-01
                       7.5829459674E-01  2.4170540326E-01  7.5829459674E-01
                       2.4170540326E-01  2.4170540326E-01  7.5829459674E-01
                       7.5829459674E-01  7.5829459674E-01  2.4170540326E-01
                       2.4170540326E-01  7.5829459674E-01  2.4170540326E-01
                       2.4170540326E-01  7.5829459674E-01  7.5829459674E-01
                       7.5829459674E-01  2.4170540326E-01  2.4170540326E-01
                      -5.7932279709E-21 -4.9569720499E-22  7.7839234984E-21
             xred9     2.5000000000E-01  2.5000000000E-01  2.5000000000E-01
                       7.5000000000E-01  7.5000000000E-01  7.5000000000E-01
                       7.5807573169E-01  2.4192426831E-01  7.5807573169E-01
                       2.4192426831E-01  2.4192426831E-01  7.5807573169E-01
                       7.5807573169E-01  7.5807573169E-01  2.4192426831E-01
                       2.4192426831E-01  7.5807573169E-01  2.4192426831E-01
                       2.4192426831E-01  7.5807573169E-01  7.5807573169E-01
                       7.5807573169E-01  2.4192426831E-01  2.4192426831E-01
                       5.8493880290E-22 -1.3458519351E-20  8.1388207873E-21
            znucl       55.00000   17.00000   72.00000

================================================================================


- Timing analysis has been suppressed with timopt=0



================================================================================

 Suggested references for the acknowledgment of ABINIT usage.

 The users of ABINIT have little formal obligations with respect to the ABINIT group
 (those specified in the GNU General Public License, http://www.gnu.org/copyleft/gpl.txt).
 However, it is common practice in the scientific literature,
 to acknowledge the efforts of people that have made the research possible.
 In this spirit, please find below suggested citations of work written by ABINIT developers,
 corresponding to implementations inside of ABINIT that you have used in the present run.
 Note also that it will be of great value to readers of publications presenting these results,
 to read papers enabling them to understand the theoretical formalism and details
 of the ABINIT implementation.
 For information on why they are suggested, see also https://docs.abinit.org/theory/acknowledgments.
-
- [1] Implementation of the Projector Augmented-Wave Method in the ABINIT code.
- M. Torrent, F. Jollet, F. Bottin, G. Zerah, and X. Gonze Comput. Mat. Science 42, 337, (2008).
- Comment: PAW calculations. Strong suggestion to cite this paper.
- DOI and bibtex: see https://docs.abinit.org/theory/bibliography/#torrent2008
-
- [2] Libxc: A library of exchange and correlation functionals for density functional theory.
- M.A.L. Marques, M.J.T. Oliveira, T. Burnus, Computer Physics Communications 183, 2227 (2012).
- Comment: to be cited when LibXC is used (negative value of ixc)
- Strong suggestion to cite this paper.
- DOI and bibtex: see https://docs.abinit.org/theory/bibliography/#marques2012
-
- [3] The Abinit project: Impact, environment and recent developments.
- Computer Phys. Comm. 248, 107042 (2020).
- X.Gonze, B. Amadon, G. Antonius, F.Arnardi, L.Baguet, J.-M.Beuken,
- J.Bieder, F.Bottin, J.Bouchet, E.Bousquet, N.Brouwer, F.Bruneval,
- G.Brunin, T.Cavignac, J.-B. Charraud, Wei Chen, M.Cote, S.Cottenier,
- J.Denier, G.Geneste, Ph.Ghosez, M.Giantomassi, Y.Gillet, O.Gingras,
- D.R.Hamann, G.Hautier, Xu He, N.Helbig, N.Holzwarth, Y.Jia, F.Jollet,
- W.Lafargue-Dit-Hauret, K.Lejaeghere, M.A.L.Marques, A.Martin, C.Martins,
- H.P.C. Miranda, F.Naccarato, K. Persson, G.Petretto, V.Planes, Y.Pouillon,
- S.Prokhorenko, F.Ricci, G.-M.Rignanese, A.H.Romero, M.M.Schmitt, M.Torrent,
- M.J.van Setten, B.Van Troeye, M.J.Verstraete, G.Zerah and J.W.Zwanzig
- Comment: the fifth generic paper describing the ABINIT project.
- Note that a version of this paper, that is not formatted for Computer Phys. Comm. 
- is available at https://www.abinit.org/sites/default/files/ABINIT20.pdf .
- The licence allows the authors to put it on the Web.
- DOI and bibtex: see https://docs.abinit.org/theory/bibliography/#gonze2020
-
- [4] ABINIT: Overview, and focus on selected capabilities
- J. Chem. Phys. 152, 124102 (2020).
- A. Romero, D.C. Allan, B. Amadon, G. Antonius, T. Applencourt, L.Baguet,
- J.Bieder, F.Bottin, J.Bouchet, E.Bousquet, F.Bruneval,
- G.Brunin, D.Caliste, M.Cote,
- J.Denier, C. Dreyer, Ph.Ghosez, M.Giantomassi, Y.Gillet, O.Gingras,
- D.R.Hamann, G.Hautier, F.Jollet, G. Jomard,
- A.Martin, 
- H.P.C. Miranda, F.Naccarato, G.Petretto, N.A. Pike, V.Planes,
- S.Prokhorenko, T. Rangel, F.Ricci, G.-M.Rignanese, M.Royo, M.Stengel, M.Torrent,
- M.J.van Setten, B.Van Troeye, M.J.Verstraete, J.Wiktor, J.W.Zwanziger, and X.Gonze.
- Comment: a global overview of ABINIT, with focus on selected capabilities .
- Note that a version of this paper, that is not formatted for J. Chem. Phys 
- is available at https://www.abinit.org/sites/default/files/ABINIT20_JPC.pdf .
- The licence allows the authors to put it on the Web.
- DOI and bibtex: see https://docs.abinit.org/theory/bibliography/#romero2020
-
- [5] Recent developments in the ABINIT software package.
- Computer Phys. Comm. 205, 106 (2016).
- X.Gonze, F.Jollet, F.Abreu Araujo, D.Adams, B.Amadon, T.Applencourt,
- C.Audouze, J.-M.Beuken, J.Bieder, A.Bokhanchuk, E.Bousquet, F.Bruneval
- D.Caliste, M.Cote, F.Dahm, F.Da Pieve, M.Delaveau, M.Di Gennaro,
- B.Dorado, C.Espejo, G.Geneste, L.Genovese, A.Gerossier, M.Giantomassi,
- Y.Gillet, D.R.Hamann, L.He, G.Jomard, J.Laflamme Janssen, S.Le Roux,
- A.Levitt, A.Lherbier, F.Liu, I.Lukacevic, A.Martin, C.Martins,
- M.J.T.Oliveira, S.Ponce, Y.Pouillon, T.Rangel, G.-M.Rignanese,
- A.H.Romero, B.Rousseau, O.Rubel, A.A.Shukri, M.Stankovski, M.Torrent,
- M.J.Van Setten, B.Van Troeye, M.J.Verstraete, D.Waroquier, J.Wiktor,
- B.Xu, A.Zhou, J.W.Zwanziger.
- Comment: the fourth generic paper describing the ABINIT project.
- Note that a version of this paper, that is not formatted for Computer Phys. Comm. 
- is available at https://www.abinit.org/sites/default/files/ABINIT16.pdf .
- The licence allows the authors to put it on the Web.
- DOI and bibtex: see https://docs.abinit.org/theory/bibliography/#gonze2016
-
- Proc.   0 individual time (sec): cpu=       8061.5  wall=       8134.1

================================================================================

 Calculation completed.
.Delivered   0 WARNINGs and   9 COMMENTs to log file.
+Overall time at end (sec) : cpu=      32245.1  wall=      32536.1
