
.Version 9.2.2 of ABINIT 
.(MPI version, prepared for a x86_64_linux_gnu9.3 computer) 

.Copyright (C) 1998-2020 ABINIT group . 
 ABINIT comes with ABSOLUTELY NO WARRANTY.
 It is free software, and you are welcome to redistribute it
 under certain conditions (GNU General Public License,
 see ~abinit/COPYING or http://www.gnu.org/copyleft/gpl.txt).

 ABINIT is a project of the Universite Catholique de Louvain,
 Corning Inc. and other collaborators, see ~abinit/doc/developers/contributors.txt .
 Please read https://docs.abinit.org/theory/acknowledgments for suggested
 acknowledgments of the ABINIT effort.
 For more information, see https://www.abinit.org .

.Starting date : Tue 22 Nov 2022.
- ( at 16h48 )
  
- input  file    -> Cs2TiI6.in
- output file    -> Cs2TiI6.out
- root for input  files -> Cs2TiI6i
- root for output files -> Cs2TiI6o

- inpspheads : Reading pseudopotential header in XML form from 
-   ../../../Psps_for_tests/ATOMICDATA/Cs.GGA_PBE-JTH.xml
- inpspheads : Reading pseudopotential header in XML form from 
-   ../../../Psps_for_tests/ATOMICDATA/I.GGA_PBE-JTH.xml
- inpspheads : Reading pseudopotential header in XML form from 
-   ../../../Psps_for_tests/ATOMICDATA/Hf.GGA_PBE-JTH.xml
- inpspheads : Reading pseudopotential header in XML form from 
-   ../../../Psps_for_tests/ATOMICDATA/Br.GGA_PBE-JTH.xml

 DATASET    1 : space group I4/m m m (#139); Bravais tI (body-center tetrag.)
================================================================================
 Values of the parameters that define the memory need for DATASET  1.
     intxc =       0    ionmov =       0      iscf =      17    lmnmax =      18
     lnmax =       6     mgfft =      64  mpssoang =       3    mqgrid =    3909
     natom =       9  nloc_mem =       2    nspden =       1   nspinor =       1
    nsppol =       1      nsym =      16    n1xccc =       1    ntypat =       4
    occopt =       1   xclevel =       2
-    mband =          42        mffmem =           1         mkmem =          28
       mpw =       10316          nfft =      262144          nkpt =         163
Pmy_natom=         2
 PAW method is used; the additional fine FFT grid is defined by:
   mgfftf=        96    nfftf =    884736
================================================================================
P This job should need less than                     463.726 Mbytes of memory.
  Rough estimation (10% accuracy) of disk space for files :
_ WF disk file :   1077.629 Mbytes ; DEN or POT disk file :      6.752 Mbytes.
================================================================================


 DATASET    2 : space group I4/m m m (#139); Bravais tI (body-center tetrag.)
================================================================================
 Values of the parameters that define the memory need for DATASET  2.
     intxc =       0    ionmov =       0      iscf =      17    lmnmax =      18
     lnmax =       6     mgfft =      64  mpssoang =       3    mqgrid =    3905
     natom =       9  nloc_mem =       2    nspden =       1   nspinor =       1
    nsppol =       1      nsym =      16    n1xccc =       1    ntypat =       4
    occopt =       1   xclevel =       2
-    mband =          42        mffmem =           1         mkmem =          28
       mpw =       10280          nfft =      262144          nkpt =         163
Pmy_natom=         2
 PAW method is used; the additional fine FFT grid is defined by:
   mgfftf=        96    nfftf =    884736
================================================================================
P This job should need less than                     463.014 Mbytes of memory.
  Rough estimation (10% accuracy) of disk space for files :
_ WF disk file :   1073.868 Mbytes ; DEN or POT disk file :      6.752 Mbytes.
================================================================================


 DATASET    3 : space group I4/m m m (#139); Bravais tI (body-center tetrag.)
================================================================================
 Values of the parameters that define the memory need for DATASET  3.
     intxc =       0    ionmov =       0      iscf =      17    lmnmax =      18
     lnmax =       6     mgfft =      64  mpssoang =       3    mqgrid =    3901
     natom =       9  nloc_mem =       2    nspden =       1   nspinor =       1
    nsppol =       1      nsym =      16    n1xccc =       1    ntypat =       4
    occopt =       1   xclevel =       2
-    mband =          42        mffmem =           1         mkmem =          28
       mpw =       10254          nfft =      262144          nkpt =         163
Pmy_natom=         2
 PAW method is used; the additional fine FFT grid is defined by:
   mgfftf=        96    nfftf =    884736
================================================================================
P This job should need less than                     462.504 Mbytes of memory.
  Rough estimation (10% accuracy) of disk space for files :
_ WF disk file :   1071.152 Mbytes ; DEN or POT disk file :      6.752 Mbytes.
================================================================================


 DATASET    4 : space group I4/m m m (#139); Bravais tI (body-center tetrag.)
================================================================================
 Values of the parameters that define the memory need for DATASET  4.
     intxc =       0    ionmov =       0      iscf =      17    lmnmax =      18
     lnmax =       6     mgfft =      64  mpssoang =       3    mqgrid =    3897
     natom =       9  nloc_mem =       2    nspden =       1   nspinor =       1
    nsppol =       1      nsym =      16    n1xccc =       1    ntypat =       4
    occopt =       1   xclevel =       2
-    mband =          42        mffmem =           1         mkmem =          28
       mpw =       10214          nfft =      262144          nkpt =         163
Pmy_natom=         2
 PAW method is used; the additional fine FFT grid is defined by:
   mgfftf=        96    nfftf =    884736
================================================================================
P This job should need less than                     461.712 Mbytes of memory.
  Rough estimation (10% accuracy) of disk space for files :
_ WF disk file :   1066.973 Mbytes ; DEN or POT disk file :      6.752 Mbytes.
================================================================================


 DATASET    5 : space group I4/m m m (#139); Bravais tI (body-center tetrag.)
================================================================================
 Values of the parameters that define the memory need for DATASET  5.
     intxc =       0    ionmov =       0      iscf =      17    lmnmax =      18
     lnmax =       6     mgfft =      64  mpssoang =       3    mqgrid =    3894
     natom =       9  nloc_mem =       2    nspden =       1   nspinor =       1
    nsppol =       1      nsym =      16    n1xccc =       1    ntypat =       4
    occopt =       1   xclevel =       2
-    mband =          42        mffmem =           1         mkmem =          28
       mpw =       10189          nfft =      262144          nkpt =         163
Pmy_natom=         2
 PAW method is used; the additional fine FFT grid is defined by:
   mgfftf=        96    nfftf =    884736
================================================================================
P This job should need less than                     461.222 Mbytes of memory.
  Rough estimation (10% accuracy) of disk space for files :
_ WF disk file :   1064.362 Mbytes ; DEN or POT disk file :      6.752 Mbytes.
================================================================================


 DATASET    6 : space group I4/m m m (#139); Bravais tI (body-center tetrag.)
================================================================================
 Values of the parameters that define the memory need for DATASET  6.
     intxc =       0    ionmov =       0      iscf =      17    lmnmax =      18
     lnmax =       6     mgfft =      64  mpssoang =       3    mqgrid =    3890
     natom =       9  nloc_mem =       2    nspden =       1   nspinor =       1
    nsppol =       1      nsym =      16    n1xccc =       1    ntypat =       4
    occopt =       1   xclevel =       2
-    mband =          42        mffmem =           1         mkmem =          28
       mpw =       10173          nfft =      262144          nkpt =         163
Pmy_natom=         2
 PAW method is used; the additional fine FFT grid is defined by:
   mgfftf=        96    nfftf =    884736
================================================================================
P This job should need less than                     460.915 Mbytes of memory.
  Rough estimation (10% accuracy) of disk space for files :
_ WF disk file :   1062.691 Mbytes ; DEN or POT disk file :      6.752 Mbytes.
================================================================================


 DATASET    7 : space group I4/m m m (#139); Bravais tI (body-center tetrag.)
================================================================================
 Values of the parameters that define the memory need for DATASET  7.
     intxc =       0    ionmov =       0      iscf =      17    lmnmax =      18
     lnmax =       6     mgfft =      64  mpssoang =       3    mqgrid =    3886
     natom =       9  nloc_mem =       2    nspden =       1   nspinor =       1
    nsppol =       1      nsym =      16    n1xccc =       1    ntypat =       4
    occopt =       1   xclevel =       2
-    mband =          42        mffmem =           1         mkmem =          28
       mpw =       10129          nfft =      262144          nkpt =         163
Pmy_natom=         2
 PAW method is used; the additional fine FFT grid is defined by:
   mgfftf=        96    nfftf =    884736
================================================================================
P This job should need less than                     460.042 Mbytes of memory.
  Rough estimation (10% accuracy) of disk space for files :
_ WF disk file :   1058.094 Mbytes ; DEN or POT disk file :      6.752 Mbytes.
================================================================================


 DATASET    8 : space group I4/m m m (#139); Bravais tI (body-center tetrag.)
================================================================================
 Values of the parameters that define the memory need for DATASET  8.
     intxc =       0    ionmov =       0      iscf =      17    lmnmax =      18
     lnmax =       6     mgfft =      64  mpssoang =       3    mqgrid =    3882
     natom =       9  nloc_mem =       2    nspden =       1   nspinor =       1
    nsppol =       1      nsym =      16    n1xccc =       1    ntypat =       4
    occopt =       1   xclevel =       2
-    mband =          42        mffmem =           1         mkmem =          28
       mpw =       10097          nfft =      262144          nkpt =         163
Pmy_natom=         2
 PAW method is used; the additional fine FFT grid is defined by:
   mgfftf=        96    nfftf =    884736
================================================================================
P This job should need less than                     459.411 Mbytes of memory.
  Rough estimation (10% accuracy) of disk space for files :
_ WF disk file :   1054.751 Mbytes ; DEN or POT disk file :      6.752 Mbytes.
================================================================================


 DATASET    9 : space group I4/m m m (#139); Bravais tI (body-center tetrag.)
================================================================================
 Values of the parameters that define the memory need for DATASET  9.
     intxc =       0    ionmov =       0      iscf =      17    lmnmax =      18
     lnmax =       6     mgfft =      64  mpssoang =       3    mqgrid =    3878
     natom =       9  nloc_mem =       2    nspden =       1   nspinor =       1
    nsppol =       1      nsym =      16    n1xccc =       1    ntypat =       4
    occopt =       1   xclevel =       2
-    mband =          42        mffmem =           1         mkmem =          28
       mpw =       10081          nfft =      262144          nkpt =         163
Pmy_natom=         2
 PAW method is used; the additional fine FFT grid is defined by:
   mgfftf=        96    nfftf =    884736
================================================================================
P This job should need less than                     459.104 Mbytes of memory.
  Rough estimation (10% accuracy) of disk space for files :
_ WF disk file :   1053.080 Mbytes ; DEN or POT disk file :      6.752 Mbytes.
================================================================================


 DATASET   10 : space group I4/m m m (#139); Bravais tI (body-center tetrag.)
================================================================================
 Values of the parameters that define the memory need for DATASET 10.
     intxc =       0    ionmov =       0      iscf =      17    lmnmax =      18
     lnmax =       6     mgfft =      64  mpssoang =       3    mqgrid =    3874
     natom =       9  nloc_mem =       2    nspden =       1   nspinor =       1
    nsppol =       1      nsym =      16    n1xccc =       1    ntypat =       4
    occopt =       1   xclevel =       2
-    mband =          42        mffmem =           1         mkmem =          28
       mpw =       10044          nfft =      262144          nkpt =         163
Pmy_natom=         2
 PAW method is used; the additional fine FFT grid is defined by:
   mgfftf=        96    nfftf =    884736
================================================================================
P This job should need less than                     458.372 Mbytes of memory.
  Rough estimation (10% accuracy) of disk space for files :
_ WF disk file :   1049.215 Mbytes ; DEN or POT disk file :      6.752 Mbytes.
================================================================================

--------------------------------------------------------------------------------
------------- Echo of variables that govern the present computation ------------
--------------------------------------------------------------------------------
-
- outvars: echo of selected default values                                      
-   iomode0 =  0 , fftalg0 =112 , wfoptalg0 = 10
-
- outvars: echo of global parameters not present in the input file              
-  max_nthreads =    0
-
 -outvars: echo values of preprocessed input variables --------
            acell1     1.4604925450E+01  1.4654488771E+01  1.4604925450E+01 Bohr
            acell2     1.4590281655E+01  1.4639869292E+01  1.4590281655E+01 Bohr
            acell3     1.4575645349E+01  1.4625234472E+01  1.4575645349E+01 Bohr
            acell4     1.4560989111E+01  1.4610640487E+01  1.4560989111E+01 Bohr
            acell5     1.4546353645E+01  1.4596003950E+01  1.4546353645E+01 Bohr
            acell6     1.4531755197E+01  1.4581291568E+01  1.4531755197E+01 Bohr
            acell7     1.4517161845E+01  1.4566568747E+01  1.4517161845E+01 Bohr
            acell8     1.4502578087E+01  1.4551826274E+01  1.4502578087E+01 Bohr
            acell9     1.4488920449E+01  1.4535187974E+01  1.4488920449E+01 Bohr
            acell10    1.4474878111E+01  1.4519338571E+01  1.4474878111E+01 Bohr
              amu      1.32905430E+02  1.26904470E+02  1.78490000E+02
                       7.99040000E+01
           diemac      1.20000000E+01
          dilatmx      1.15000000E+00
             ecut      1.60000000E+01 Hartree
           ecutsm      5.00000000E-01 Hartree
-          fftalg         112
           istwfk        2    0    0    0    0    0    3    0    0    0
                         0    0    0    0    0    0    0    0    0    0
                         0    0    0    0    0    0    0    0    0    0
                         0    0    0    0    0    0    0    0    0    0
                         0    0    7    0    0    0    0    0    0    0
                       outvar_i_n : Printing only first  50 k-points.
              ixc     -101130
           jdtset        1    2    3    4    5    6    7    8    9   10
              kpt      0.00000000E+00  0.00000000E+00  0.00000000E+00
                       8.33333333E-02  0.00000000E+00  0.00000000E+00
                       1.66666667E-01  0.00000000E+00  0.00000000E+00
                       2.50000000E-01  0.00000000E+00  0.00000000E+00
                       3.33333333E-01  0.00000000E+00  0.00000000E+00
                       4.16666667E-01  0.00000000E+00  0.00000000E+00
                       5.00000000E-01  0.00000000E+00  0.00000000E+00
                       8.33333333E-02  8.33333333E-02  0.00000000E+00
                       1.66666667E-01  8.33333333E-02  0.00000000E+00
                       2.50000000E-01  8.33333333E-02  0.00000000E+00
                       3.33333333E-01  8.33333333E-02  0.00000000E+00
                       4.16666667E-01  8.33333333E-02  0.00000000E+00
                       5.00000000E-01  8.33333333E-02  0.00000000E+00
                      -4.16666667E-01  8.33333333E-02  0.00000000E+00
                      -3.33333333E-01  8.33333333E-02  0.00000000E+00
                      -2.50000000E-01  8.33333333E-02  0.00000000E+00
                      -1.66666667E-01  8.33333333E-02  0.00000000E+00
                      -8.33333333E-02  8.33333333E-02  0.00000000E+00
                       1.66666667E-01  1.66666667E-01  0.00000000E+00
                       2.50000000E-01  1.66666667E-01  0.00000000E+00
                       3.33333333E-01  1.66666667E-01  0.00000000E+00
                       4.16666667E-01  1.66666667E-01  0.00000000E+00
                       5.00000000E-01  1.66666667E-01  0.00000000E+00
                      -4.16666667E-01  1.66666667E-01  0.00000000E+00
                      -3.33333333E-01  1.66666667E-01  0.00000000E+00
                      -2.50000000E-01  1.66666667E-01  0.00000000E+00
                      -1.66666667E-01  1.66666667E-01  0.00000000E+00
                       2.50000000E-01  2.50000000E-01  0.00000000E+00
                       3.33333333E-01  2.50000000E-01  0.00000000E+00
                       4.16666667E-01  2.50000000E-01  0.00000000E+00
                       5.00000000E-01  2.50000000E-01  0.00000000E+00
                      -4.16666667E-01  2.50000000E-01  0.00000000E+00
                      -3.33333333E-01  2.50000000E-01  0.00000000E+00
                      -2.50000000E-01  2.50000000E-01  0.00000000E+00
                       3.33333333E-01  3.33333333E-01  0.00000000E+00
                       4.16666667E-01  3.33333333E-01  0.00000000E+00
                       5.00000000E-01  3.33333333E-01  0.00000000E+00
                      -4.16666667E-01  3.33333333E-01  0.00000000E+00
                      -3.33333333E-01  3.33333333E-01  0.00000000E+00
                       4.16666667E-01  4.16666667E-01  0.00000000E+00
                       5.00000000E-01  4.16666667E-01  0.00000000E+00
                      -4.16666667E-01  4.16666667E-01  0.00000000E+00
                       5.00000000E-01  5.00000000E-01  0.00000000E+00
                       8.33333333E-02  0.00000000E+00  8.33333333E-02
                       1.66666667E-01  0.00000000E+00  8.33333333E-02
                       2.50000000E-01  0.00000000E+00  8.33333333E-02
                       3.33333333E-01  0.00000000E+00  8.33333333E-02
                       4.16666667E-01  0.00000000E+00  8.33333333E-02
                       5.00000000E-01  0.00000000E+00  8.33333333E-02
                      -4.16666667E-01  0.00000000E+00  8.33333333E-02
                       outvar_i_n : Printing only first  50 k-points.
         kptrlatt       12    0    0      0   12    0      0    0   12
          kptrlen1     1.75259105E+02
          kptrlen2     1.75083380E+02
          kptrlen3     1.74907744E+02
          kptrlen4     1.74731869E+02
          kptrlen5     1.74556244E+02
          kptrlen6     1.74381062E+02
          kptrlen7     1.74205942E+02
          kptrlen8     1.74030937E+02
          kptrlen9     1.73867045E+02
          kptrlen10    1.73698537E+02
P           mkmem          28
            natom           9
            nband          42
           ndtset          10
            ngfft          64      64      64
          ngfftdg          96      96      96
             nkpt         163
            nstep        2500
             nsym          16
           ntypat           4
              occ      2.000000  2.000000  2.000000  2.000000  2.000000  2.000000
                       2.000000  2.000000  2.000000  2.000000  2.000000  2.000000
                       2.000000  2.000000  2.000000  2.000000  2.000000  2.000000
                       2.000000  2.000000  2.000000  2.000000  2.000000  2.000000
                       2.000000  2.000000  2.000000  2.000000  2.000000  2.000000
                       2.000000  2.000000  2.000000  2.000000  2.000000  2.000000
                       0.000000  0.000000  0.000000  0.000000  0.000000  0.000000
        pawecutdg      4.00000000E+01 Hartree
            prtwf           0
            rprim1     0.0000000000E+00  7.0469897013E-01  7.0950642104E-01
                       7.0710678119E-01  0.0000000000E+00  7.0710678119E-01
                       7.0950642104E-01  7.0469897013E-01  0.0000000000E+00
            rprim2     0.0000000000E+00  7.0469535876E-01  7.0951000792E-01
                       7.0710678119E-01  0.0000000000E+00  7.0710678119E-01
                       7.0951000792E-01  7.0469535876E-01  0.0000000000E+00
            rprim3     0.0000000000E+00  7.0469285641E-01  7.0951249328E-01
                       7.0710678119E-01  0.0000000000E+00  7.0710678119E-01
                       7.0951249328E-01  7.0469285641E-01  0.0000000000E+00
            rprim4     0.0000000000E+00  7.0468737459E-01  7.0951793782E-01
                       7.0710678119E-01  0.0000000000E+00  7.0710678119E-01
                       7.0951793782E-01  7.0468737459E-01  0.0000000000E+00
            rprim5     0.0000000000E+00  7.0468498446E-01  7.0952031167E-01
                       7.0710678119E-01  0.0000000000E+00  7.0710678119E-01
                       7.0952031167E-01  7.0468498446E-01  0.0000000000E+00
            rprim6     0.0000000000E+00  7.0468812518E-01  7.0951719234E-01
                       7.0710678119E-01  0.0000000000E+00  7.0710678119E-01
                       7.0951719234E-01  7.0468812518E-01  0.0000000000E+00
            rprim7     0.0000000000E+00  7.0469203493E-01  7.0951330918E-01
                       7.0710678119E-01  0.0000000000E+00  7.0710678119E-01
                       7.0951330918E-01  7.0469203493E-01  0.0000000000E+00
            rprim8     0.0000000000E+00  7.0469738977E-01  7.0950799069E-01
                       7.0710678119E-01  0.0000000000E+00  7.0710678119E-01
                       7.0950799069E-01  7.0469738977E-01  0.0000000000E+00
            rprim9     0.0000000000E+00  7.0484154072E-01  7.0936478802E-01
                       7.0710678119E-01  0.0000000000E+00  7.0710678119E-01
                       7.0936478802E-01  7.0484154072E-01  0.0000000000E+00
            rprim10    0.0000000000E+00  7.0492816830E-01  7.0927870230E-01
                       7.0710678119E-01  0.0000000000E+00  7.0710678119E-01
                       7.0927870230E-01  7.0492816830E-01  0.0000000000E+00
          spgroup         139
           symrel      1  0  0   0  1  0   0  0  1      -1  0  0   0 -1  0   0  0 -1
                       0  0 -1   0 -1  0  -1  0  0       0  0  1   0  1  0   1  0  0
                       0 -1  1   0 -1  0   1 -1  0       0  1 -1   0  1  0  -1  1  0
                      -1  1  0   0  1  0   0  1 -1       1 -1  0   0 -1  0   0 -1  1
                       0 -1  1  -1  0  1   0  0  1       0  1 -1   1  0 -1   0  0 -1
                       0  0 -1   1  0 -1   0  1 -1       0  0  1  -1  0  1   0 -1  1
                       1  0  0   1  0 -1   1 -1  0      -1  0  0  -1  0  1  -1  1  0
                      -1  1  0  -1  0  1  -1  0  0       1 -1  0   1  0 -1   1  0  0
           toldfe      1.00000000E-08 Hartree
            typat      1  1  2  4  4  2  4  4  3
           useylm           1
              wtk        0.00058    0.00463    0.00463    0.00463    0.00463    0.00463
                         0.00231    0.00231    0.00926    0.00926    0.00926    0.00926
                         0.00926    0.00926    0.00926    0.00926    0.00926    0.00463
                         0.00231    0.00926    0.00926    0.00926    0.00926    0.00926
                         0.00926    0.00926    0.00463    0.00231    0.00926    0.00926
                         0.00926    0.00926    0.00926    0.00463    0.00231    0.00926
                         0.00926    0.00926    0.00463    0.00231    0.00926    0.00463
                         0.00116    0.00116    0.00463    0.00463    0.00463    0.00463
                         0.00463    0.00463
                       outvars : Printing only first  50 k-points.
           xangst1     2.7417434211E+00  2.7231660039E+00  2.7417434211E+00
                       8.2252302634E+00  8.1694980116E+00  8.2252302634E+00
                       5.4834868424E+00  8.0443506072E+00  5.4834868424E+00
                       5.4834868424E+00  5.4463320078E+00  2.6054522311E+00
                       5.4834868422E+00  5.4463320078E+00  8.3615214535E+00
                       5.4834868422E+00  2.8483134084E+00  5.4834868422E+00
                       8.3615214535E+00  5.4463320078E+00  5.4834868422E+00
                       2.6054522311E+00  5.4463320078E+00  5.4834868424E+00
                       3.9774041552E-21 -5.6942629127E-21  3.4075204611E-21
           xangst2     2.7390082278E+00  2.7204216490E+00  2.7390082278E+00
                       8.2170246833E+00  8.1612649471E+00  8.2170246833E+00
                       5.4780164556E+00  8.0342543549E+00  5.4780164556E+00
                       5.4780164556E+00  5.4408432981E+00  2.6050480360E+00
                       5.4780164554E+00  5.4408432981E+00  8.3509848750E+00
                       5.4780164554E+00  2.8474322412E+00  5.4780164554E+00
                       8.3509848750E+00  5.4408432981E+00  5.4780164554E+00
                       2.6050480360E+00  5.4408432981E+00  5.4780164556E+00
                       3.9734362532E-21 -5.6885243430E-21  3.4041210814E-21
           xangst3     2.7362701643E+00  2.7176829955E+00  2.7362701643E+00
                       8.2088104929E+00  8.1530489865E+00  8.2088104929E+00
                       5.4725403287E+00  8.0242423703E+00  5.4725403287E+00
                       5.4725403287E+00  5.4353659910E+00  2.6046401836E+00
                       5.4725403284E+00  5.4353659910E+00  8.3404404736E+00
                       5.4725403284E+00  2.8464896117E+00  5.4725403284E+00
                       8.3404404736E+00  5.4353659910E+00  5.4725403284E+00
                       2.6046401836E+00  5.4353659910E+00  5.4725403287E+00
                       3.9694641872E-21 -5.6827976950E-21  3.4007181342E-21
           xangst4     2.7335397406E+00  2.7149291661E+00  2.7335397406E+00
                       8.2006192219E+00  8.1447874982E+00  8.2006192219E+00
                       5.4670794813E+00  8.0141904146E+00  5.4670794813E+00
                       5.4670794814E+00  5.4298583321E+00  2.6042112634E+00
                       5.4670794811E+00  5.4298583321E+00  8.3299476991E+00
                       5.4670794811E+00  2.8455262496E+00  5.4670794811E+00
                       8.3299476991E+00  5.4298583321E+00  5.4670794811E+00
                       2.6042112634E+00  5.4298583321E+00  5.4670794814E+00
                       3.9655032046E-21 -5.6770393134E-21  3.3973246824E-21
           xangst5     2.7308013558E+00  2.7121911514E+00  2.7308013558E+00
                       8.1924040674E+00  8.1365734541E+00  8.1924040674E+00
                       5.4616027117E+00  8.0042216469E+00  5.4616027117E+00
                       5.4616027117E+00  5.4243823028E+00  2.6037976700E+00
                       5.4616027115E+00  5.4243823028E+00  8.3194077533E+00
                       5.4616027116E+00  2.8445429586E+00  5.4616027116E+00
                       8.3194077533E+00  5.4243823028E+00  5.4616027115E+00
                       2.6037976700E+00  5.4243823028E+00  5.4616027117E+00
                       3.9615306728E-21 -5.6713140012E-21  3.3939213362E-21
           xangst6     2.7280487811E+00  2.7094813230E+00  2.7280487811E+00
                       8.1841463432E+00  8.1284439691E+00  8.1841463432E+00
                       5.4560975622E+00  7.9943905655E+00  5.4560975622E+00
                       5.4560975622E+00  5.4189626460E+00  2.6033856118E+00
                       5.4560975620E+00  5.4189626460E+00  8.3088095124E+00
                       5.4560975620E+00  2.8435347266E+00  5.4560975620E+00
                       8.3088095124E+00  5.4189626460E+00  5.4560975620E+00
                       2.6033856118E+00  5.4189626460E+00  5.4560975622E+00
                       3.9575375557E-21 -5.6656476279E-21  3.3905003541E-21
           xangst7     2.7252942532E+00  2.7067753745E+00  2.7252942532E+00
                       8.1758827596E+00  8.1203261234E+00  8.1758827596E+00
                       5.4505885065E+00  7.9846166513E+00  5.4505885065E+00
                       5.4505885065E+00  5.4135507489E+00  2.6028815237E+00
                       5.4505885063E+00  5.4135507489E+00  8.2982954891E+00
                       5.4505885063E+00  2.8424848466E+00  5.4505885063E+00
                       8.2982954891E+00  5.4135507489E+00  5.4505885063E+00
                       2.6028815237E+00  5.4135507489E+00  5.4505885065E+00
                       3.9535416053E-21 -5.6599893675E-21  3.3870769447E-21
           xangst8     2.7225360486E+00  2.7040767297E+00  2.7225360486E+00
                       8.1676081459E+00  8.1122301891E+00  8.1676081459E+00
                       5.4450720974E+00  7.9747978320E+00  5.4450720974E+00
                       5.4450720975E+00  5.4081534594E+00  2.6024237413E+00
                       5.4450720971E+00  5.4081534594E+00  8.2877204532E+00
                       5.4450720971E+00  2.8415090868E+00  5.4450720971E+00
                       8.2877204532E+00  5.4081534594E+00  5.4450720971E+00
                       2.6024237413E+00  5.4081534594E+00  5.4450720975E+00
                       3.9495403211E-21 -5.6543463796E-21  3.3836489657E-21
           xangst9     2.7194231491E+00  2.7020828137E+00  2.7194231491E+00
                       8.1582694474E+00  8.1062484412E+00  8.1582694474E+00
                       5.4388462984E+00  7.9677831736E+00  5.4388462984E+00
                       5.4388462984E+00  5.4041656275E+00  2.6019065566E+00
                       5.4388462982E+00  5.4041656275E+00  8.2757860400E+00
                       5.4388462982E+00  2.8405480813E+00  5.4388462982E+00
                       8.2757860400E+00  5.4041656275E+00  5.4388462982E+00
                       2.6019065566E+00  5.4041656275E+00  5.4388462984E+00
                       3.9450244869E-21 -5.6501770114E-21  3.3797801617E-21
           xangst10    2.7164578463E+00  2.6997957893E+00  2.7164578463E+00
                       8.1493735390E+00  8.0993873680E+00  8.1493735390E+00
                       5.4329156928E+00  7.9596342289E+00  5.4329156928E+00
                       5.4329156928E+00  5.3995915787E+00  2.6014171980E+00
                       5.4329156926E+00  5.3995915787E+00  8.2644141873E+00
                       5.4329156926E+00  2.8395489285E+00  5.4329156926E+00
                       8.2644141873E+00  5.3995915787E+00  5.4329156926E+00
                       2.6014171980E+00  5.3995915787E+00  5.4329156928E+00
                       3.7832463392E-21 -5.8024930616E-21  2.9449727216E-21
            xcart1     5.1811441926E+00  5.1460379617E+00  5.1811441926E+00
                       1.5543432578E+01  1.5438113885E+01  1.5543432578E+01
                       1.0362288385E+01  1.5201619564E+01  1.0362288385E+01
                       1.0362288385E+01  1.0292075923E+01  4.9235911690E+00
                       1.0362288385E+01  1.0292075923E+01  1.5800985601E+01
                       1.0362288385E+01  5.3825322824E+00  1.0362288385E+01
                       1.5800985601E+01  1.0292075923E+01  1.0362288385E+01
                       4.9235911690E+00  1.0292075923E+01  1.0362288385E+01
                       7.5162045731E-21 -1.0760597434E-20  6.4392804637E-21
            xcart2     5.1759754262E+00  5.1408518826E+00  5.1759754262E+00
                       1.5527926279E+01  1.5422555648E+01  1.5527926279E+01
                       1.0351950852E+01  1.5182540413E+01  1.0351950852E+01
                       1.0351950852E+01  1.0281703765E+01  4.9228273511E+00
                       1.0351950852E+01  1.0281703765E+01  1.5781074354E+01
                       1.0351950852E+01  5.3808671178E+00  1.0351950852E+01
                       1.5781074354E+01  1.0281703765E+01  1.0351950852E+01
                       4.9228273511E+00  1.0281703765E+01  1.0351950852E+01
                       7.5087063250E-21 -1.0749753108E-20  6.4328565670E-21
            xcart3     5.1708012361E+00  5.1356765775E+00  5.1708012361E+00
                       1.5512403708E+01  1.5407029733E+01  1.5512403708E+01
                       1.0341602472E+01  1.5163620504E+01  1.0341602472E+01
                       1.0341602472E+01  1.0271353155E+01  4.9220566216E+00
                       1.0341602472E+01  1.0271353155E+01  1.5761148323E+01
                       1.0341602472E+01  5.3790858063E+00  1.0341602472E+01
                       1.5761148323E+01  1.0271353155E+01  1.0341602472E+01
                       4.9220566216E+00  1.0271353155E+01  1.0341602472E+01
                       7.5012002082E-21 -1.0738931312E-20  6.4264259287E-21
            xcart4     5.1656414831E+00  5.1304725940E+00  5.1656414831E+00
                       1.5496924449E+01  1.5391417782E+01  1.5496924449E+01
                       1.0331282966E+01  1.5144625060E+01  1.0331282966E+01
                       1.0331282966E+01  1.0260945188E+01  4.9212460800E+00
                       1.0331282966E+01  1.0260945188E+01  1.5741319853E+01
                       1.0331282966E+01  5.3772653157E+00  1.0331282966E+01
                       1.5741319853E+01  1.0260945188E+01  1.0331282966E+01
                       4.9212460800E+00  1.0260945188E+01  1.0331282966E+01
                       7.4937150358E-21 -1.0728049548E-20  6.4200132342E-21
            xcart5     5.1604666858E+00  5.1252984961E+00  5.1604666858E+00
                       1.5481400057E+01  1.5375895488E+01  1.5481400057E+01
                       1.0320933372E+01  1.5125786820E+01  1.0320933372E+01
                       1.0320933372E+01  1.0250596992E+01  4.9204645017E+00
                       1.0320933371E+01  1.0250596992E+01  1.5721402242E+01
                       1.0320933371E+01  5.3754071650E+00  1.0320933371E+01
                       1.5721402242E+01  1.0250596992E+01  1.0320933371E+01
                       4.9204645017E+00  1.0250596992E+01  1.0320933372E+01
                       7.4862080387E-21 -1.0717230276E-20  6.4135818420E-21
            xcart6     5.1552650733E+00  5.1201776627E+00  5.1552650733E+00
                       1.5465795220E+01  1.5360532988E+01  1.5465795220E+01
                       1.0310530147E+01  1.5107208768E+01  1.0310530147E+01
                       1.0310530147E+01  1.0240355325E+01  4.9196858246E+00
                       1.0310530146E+01  1.0240355325E+01  1.5701374469E+01
                       1.0310530146E+01  5.3735018826E+00  1.0310530146E+01
                       1.5701374469E+01  1.0240355325E+01  1.0310530146E+01
                       4.9196858246E+00  1.0240355325E+01  1.0310530147E+01
                       7.4786621408E-21 -1.0706522382E-20  6.4071171227E-21
            xcart7     5.1500597701E+00  5.1150641610E+00  5.1500597701E+00
                       1.5450179310E+01  1.5345192483E+01  1.5450179310E+01
                       1.0300119540E+01  1.5088738747E+01  1.0300119540E+01
                       1.0300119540E+01  1.0230128322E+01  4.9187332361E+00
                       1.0300119540E+01  1.0230128322E+01  1.5681505844E+01
                       1.0300119540E+01  5.3715178969E+00  1.0300119540E+01
                       1.5681505844E+01  1.0230128322E+01  1.0300119540E+01
                       4.9187332361E+00  1.0230128322E+01  1.0300119540E+01
                       7.4711108890E-21 -1.0695829820E-20  6.4006478166E-21
            xcart8     5.1448475188E+00  5.1099644614E+00  5.1448475188E+00
                       1.5434542557E+01  1.5329893384E+01  1.5434542557E+01
                       1.0289695038E+01  1.5070183868E+01  1.0289695038E+01
                       1.0289695038E+01  1.0219928923E+01  4.9178681528E+00
                       1.0289695037E+01  1.0219928923E+01  1.5661521923E+01
                       1.0289695037E+01  5.3696739781E+00  1.0289695037E+01
                       1.5661521923E+01  1.0219928923E+01  1.0289695037E+01
                       4.9178681528E+00  1.0219928923E+01  1.0289695038E+01
                       7.4635495577E-21 -1.0685166118E-20  6.3941698750E-21
            xcart9     5.1389649913E+00  5.1061965063E+00  5.1389649913E+00
                       1.5416894974E+01  1.5318589519E+01  1.5416894974E+01
                       1.0277929983E+01  1.5056928084E+01  1.0277929983E+01
                       1.0277929983E+01  1.0212393013E+01  4.9168908154E+00
                       1.0277929982E+01  1.0212393013E+01  1.5638969150E+01
                       1.0277929982E+01  5.3678579409E+00  1.0277929982E+01
                       1.5638969150E+01  1.0212393013E+01  1.0277929982E+01
                       4.9168908154E+00  1.0212393013E+01  1.0277929983E+01
                       7.4550158678E-21 -1.0677287154E-20  6.3868588950E-21
            xcart10    5.1333613811E+00  5.1018746566E+00  5.1333613811E+00
                       1.5400084143E+01  1.5305623970E+01  1.5400084143E+01
                       1.0266722762E+01  1.5041528810E+01  1.0266722762E+01
                       1.0266722762E+01  1.0203749313E+01  4.9159660617E+00
                       1.0266722762E+01  1.0203749313E+01  1.5617479463E+01
                       1.0266722762E+01  5.3659698158E+00  1.0266722762E+01
                       1.5617479463E+01  1.0203749313E+01  1.0266722762E+01
                       4.9159660617E+00  1.0203749313E+01  1.0266722762E+01
                       7.1492994744E-21 -1.0965122774E-20  5.5651919127E-21
             xred1     2.5000000000E-01  2.5000000000E-01  2.5000000000E-01
                       7.5000000000E-01  7.5000000000E-01  7.5000000000E-01
                       7.3851085425E-01  2.6148914575E-01  7.3851085425E-01
                       2.3757257982E-01  2.3757257982E-01  7.6242742018E-01
                       7.6242742018E-01  7.6242742018E-01  2.3757257982E-01
                       2.6148914575E-01  7.3851085425E-01  2.6148914575E-01
                       2.3757257982E-01  7.6242742018E-01  7.6242742018E-01
                       7.6242742018E-01  2.3757257982E-01  2.3757257982E-01
                      -5.7472489725E-22  1.1961398034E-21 -4.7079764978E-22
             xred2     2.5000000000E-01  2.5000000000E-01  2.5000000000E-01
                       7.5000000000E-01  7.5000000000E-01  7.5000000000E-01
                       7.3832804170E-01  2.6167195830E-01  7.3832804170E-01
                       2.3777292905E-01  2.3777292905E-01  7.6222707095E-01
                       7.6222707095E-01  7.6222707095E-01  2.3777292905E-01
                       2.6167195830E-01  7.3832804170E-01  2.6167195830E-01
                       2.3777292905E-01  7.6222707095E-01  7.6222707095E-01
                       7.6222707095E-01  2.3777292905E-01  2.3777292905E-01
                      -5.7472489725E-22  1.1961398034E-21 -4.7079764978E-22
             xred3     2.5000000000E-01  2.5000000000E-01  2.5000000000E-01
                       7.5000000000E-01  7.5000000000E-01  7.5000000000E-01
                       7.3815106320E-01  2.6184893680E-01  7.3815106320E-01
                       2.3797359427E-01  2.3797359427E-01  7.6202640573E-01
                       7.6202640573E-01  7.6202640573E-01  2.3797359427E-01
                       2.6184893680E-01  7.3815106320E-01  2.6184893680E-01
                       2.3797359427E-01  7.6202640573E-01  7.6202640573E-01
                       7.6202640573E-01  2.3797359427E-01  2.3797359427E-01
                      -5.7472489725E-22  1.1961398034E-21 -4.7079764978E-22
             xred4     2.5000000000E-01  2.5000000000E-01  2.5000000000E-01
                       7.5000000000E-01  7.5000000000E-01  7.5000000000E-01
                       7.3797417211E-01  2.6202582789E-01  7.3797417211E-01
                       2.3817206905E-01  2.3817206905E-01  7.6182793095E-01
                       7.6182793095E-01  7.6182793095E-01  2.3817206905E-01
                       2.6202582789E-01  7.3797417211E-01  2.6202582789E-01
                       2.3817206905E-01  7.6182793095E-01  7.6182793095E-01
                       7.6182793095E-01  2.3817206905E-01  2.3817206905E-01
                      -5.7472489725E-22  1.1961398034E-21 -4.7079764978E-22
             xred5     2.5000000000E-01  2.5000000000E-01  2.5000000000E-01
                       7.5000000000E-01  7.5000000000E-01  7.5000000000E-01
                       7.3780028768E-01  2.6219971232E-01  7.3780028768E-01
                       2.3837303878E-01  2.3837303878E-01  7.6162696122E-01
                       7.6162696122E-01  7.6162696122E-01  2.3837303878E-01
                       2.6219971232E-01  7.3780028768E-01  2.6219971232E-01
                       2.3837303878E-01  7.6162696122E-01  7.6162696122E-01
                       7.6162696122E-01  2.3837303878E-01  2.3837303878E-01
                      -5.7472489725E-22  1.1961398034E-21 -4.7079764978E-22
             xred6     2.5000000000E-01  2.5000000000E-01  2.5000000000E-01
                       7.5000000000E-01  7.5000000000E-01  7.5000000000E-01
                       7.3763108252E-01  2.6236891748E-01  7.3763108252E-01
                       2.3857579361E-01  2.3857579361E-01  7.6142420639E-01
                       7.6142420639E-01  7.6142420639E-01  2.3857579361E-01
                       2.6236891748E-01  7.3763108252E-01  2.6236891748E-01
                       2.3857579361E-01  7.6142420639E-01  7.6142420639E-01
                       7.6142420639E-01  2.3857579361E-01  2.3857579361E-01
                      -5.7472489725E-22  1.1961398034E-21 -4.7079764978E-22
             xred7     2.5000000000E-01  2.5000000000E-01  2.5000000000E-01
                       7.5000000000E-01  7.5000000000E-01  7.5000000000E-01
                       7.3746576153E-01  2.6253423847E-01  7.3746576153E-01
                       2.3877068693E-01  2.3877068693E-01  7.6122931307E-01
                       7.6122931307E-01  7.6122931307E-01  2.3877068693E-01
                       2.6253423847E-01  7.3746576153E-01  2.6253423847E-01
                       2.3877068693E-01  7.6122931307E-01  7.6122931307E-01
                       7.6122931307E-01  2.3877068693E-01  2.3877068693E-01
                      -5.7472489725E-22  1.1961398034E-21 -4.7079764978E-22
             xred8     2.5000000000E-01  2.5000000000E-01  2.5000000000E-01
                       7.5000000000E-01  7.5000000000E-01  7.5000000000E-01
                       7.3729396659E-01  2.6270603341E-01  7.3729396659E-01
                       2.3897054941E-01  2.3897054941E-01  7.6102945059E-01
                       7.6102945059E-01  7.6102945059E-01  2.3897054941E-01
                       2.6270603341E-01  7.3729396659E-01  2.6270603341E-01
                       2.3897054941E-01  7.6102945059E-01  7.6102945059E-01
                       7.6102945059E-01  2.3897054941E-01  2.3897054941E-01
                      -5.7472489725E-22  1.1961398034E-21 -4.7079764978E-22
             xred9     2.5000000000E-01  2.5000000000E-01  2.5000000000E-01
                       7.5000000000E-01  7.5000000000E-01  7.5000000000E-01
                       7.3718902444E-01  2.6281097556E-01  7.3718902444E-01
                       2.3919655143E-01  2.3919655143E-01  7.6080344857E-01
                       7.6080344857E-01  7.6080344857E-01  2.3919655143E-01
                       2.6281097556E-01  7.3718902444E-01  2.6281097556E-01
                       2.3919655143E-01  7.6080344857E-01  7.6080344857E-01
                       7.6080344857E-01  2.3919655143E-01  2.3919655143E-01
                      -5.7472489725E-22  1.1961398034E-21 -4.7079764978E-22
             xred10    2.5000000000E-01  2.5000000000E-01  2.5000000000E-01
                       7.5000000000E-01  7.5000000000E-01  7.5000000000E-01
                       7.3705891574E-01  2.6294108426E-01  7.3705891574E-01
                       2.3941262346E-01  2.3941262346E-01  7.6058737654E-01
                       7.6058737654E-01  7.6058737654E-01  2.3941262346E-01
                       2.6294108426E-01  7.3705891574E-01  2.6294108426E-01
                       2.3941262346E-01  7.6058737654E-01  7.6058737654E-01
                       7.6058737654E-01  2.3941262346E-01  2.3941262346E-01
                      -6.1445618865E-22  1.1565173743E-21 -4.6016084063E-22
            znucl       55.00000   53.00000   72.00000   35.00000

================================================================================

 chkinp: Checking input parameters for consistency, jdtset=   1.

 chkinp: Checking input parameters for consistency, jdtset=   2.

 chkinp: Checking input parameters for consistency, jdtset=   3.

 chkinp: Checking input parameters for consistency, jdtset=   4.

 chkinp: Checking input parameters for consistency, jdtset=   5.

 chkinp: Checking input parameters for consistency, jdtset=   6.

 chkinp: Checking input parameters for consistency, jdtset=   7.

 chkinp: Checking input parameters for consistency, jdtset=   8.

 chkinp: Checking input parameters for consistency, jdtset=   9.

 chkinp: Checking input parameters for consistency, jdtset=  10.

================================================================================
== DATASET  1 ==================================================================
-   mpi_nproc: 6, omp_nthreads: -1 (-1 if OMP is not activated)


--- !DatasetInfo
iteration_state: {dtset: 1, }
dimensions: {natom: 9, nkpt: 163, mband: 42, nsppol: 1, nspinor: 1, nspden: 1, mpw: 10316, }
cutoff_energies: {ecut:  16.0, pawecutdg:  40.0, }
electrons: {nelect:   7.20000000E+01, charge:   0.00000000E+00, occopt:   1.00000000E+00, tsmear:   1.00000000E-02, }
meta: {optdriver: 0, ionmov: 0, optcell: 0, iscf: 17, paral_kgb: 0, }
...

 Real(R)+Recip(G) space primitive vectors, cartesian coordinates (Bohr,Bohr^-1):
 R(1)=  0.0000000 10.2920759 10.3622884  G(1)= -0.0482519  0.0485811  0.0482519
 R(2)= 10.3622884  0.0000000 10.3622884  G(2)=  0.0482519 -0.0485811  0.0482519
 R(3)= 10.3622884 10.2920759  0.0000000  G(3)=  0.0482519  0.0485811 -0.0482519
 Unit cell volume ucvol=  2.2102649E+03 bohr^3
 Angles (23,13,12)=  5.98876769E+01  6.02246463E+01  5.98876769E+01 degrees

 Coarse grid specifications (used for wave-functions):

 getcut: wavevector=  0.0000  0.0000  0.0000  ngfft=  64  64  64
         ecut(hartree)=     21.160   => boxcut(ratio)=   2.10905

 Fine grid specifications (used for densities):

 getcut: wavevector=  0.0000  0.0000  0.0000  ngfft=  96  96  96
         ecut(hartree)=     52.900   => boxcut(ratio)=   2.00082

--- Pseudopotential description ------------------------------------------------
- pspini: atom type   1  psp file is ../../../Psps_for_tests/ATOMICDATA/Cs.GGA_PBE-JTH.xml
- pspatm: opening atomic psp file    ../../../Psps_for_tests/ATOMICDATA/Cs.GGA_PBE-JTH.xml
- pspatm : Reading pseudopotential header in XML form from ../../../Psps_for_tests/ATOMICDATA/Cs.GGA_PBE-JTH.xml
 Pseudopotential format is: paw10
 basis_size (lnmax)=  6 (lmn_size= 18), orbitals=   0   0   1   1   2   2
 Spheres core radius: rc_sph= 2.20660278
 1 radial meshes are used:
  - mesh 1: r(i)=AA*[exp(BB*(i-1))-1], size=1500 , AA= 0.15922E-03 BB= 0.87573E-02
 Shapefunction is SIN type: shapef(r)=[sin(pi*r/rshp)/(pi*r/rshp)]**2
 Radius for shape functions =  2.00394208
 mmax= 1500
 Radial grid used for partial waves is grid 1
 Radial grid used for projectors is grid 1
 Radial grid used for (t)core density is grid 1
 Radial grid used for Vloc is grid 1
 Radial grid used for pseudo valence density is grid 1
 Mesh size for Vloc has been set to 1341 to avoid numerical noise.
 Compensation charge density is not taken into account in XC energy/potential
 pspatm: atomic psp has been read  and splines computed

- pspini: atom type   2  psp file is ../../../Psps_for_tests/ATOMICDATA/I.GGA_PBE-JTH.xml
- pspatm: opening atomic psp file    ../../../Psps_for_tests/ATOMICDATA/I.GGA_PBE-JTH.xml
- pspatm : Reading pseudopotential header in XML form from ../../../Psps_for_tests/ATOMICDATA/I.GGA_PBE-JTH.xml
 Pseudopotential format is: paw10
 basis_size (lnmax)=  4 (lmn_size=  8), orbitals=   0   0   1   1
 Spheres core radius: rc_sph= 2.30022271
 1 radial meshes are used:
  - mesh 1: r(i)=AA*[exp(BB*(i-1))-1], size=2000 , AA= 0.12610E-03 BB= 0.66836E-02
 Shapefunction is SIN type: shapef(r)=[sin(pi*r/rshp)/(pi*r/rshp)]**2
 Radius for shape functions =  2.10879093
 mmax= 2000
 Radial grid used for partial waves is grid 1
 Radial grid used for projectors is grid 1
 Radial grid used for (t)core density is grid 1
 Radial grid used for Vloc is grid 1
 Radial grid used for pseudo valence density is grid 1
 Mesh size for Vloc has been set to 1792 to avoid numerical noise.
 Compensation charge density is not taken into account in XC energy/potential
 pspatm: atomic psp has been read  and splines computed

- pspini: atom type   3  psp file is ../../../Psps_for_tests/ATOMICDATA/Hf.GGA_PBE-JTH.xml
- pspatm: opening atomic psp file    ../../../Psps_for_tests/ATOMICDATA/Hf.GGA_PBE-JTH.xml
- pspatm : Reading pseudopotential header in XML form from ../../../Psps_for_tests/ATOMICDATA/Hf.GGA_PBE-JTH.xml
 Pseudopotential format is: paw10
 basis_size (lnmax)=  6 (lmn_size= 18), orbitals=   0   0   1   1   2   2
 Spheres core radius: rc_sph= 2.41000000
 1 radial meshes are used:
  - mesh 1: r(i)=AA*[exp(BB*(i-1))-1], size= 972 , AA= 0.19796E-03 BB= 0.14253E-01
 Shapefunction is SIN type: shapef(r)=[sin(pi*r/rshp)/(pi*r/rshp)]**2
 Radius for shape functions =  2.41000000
 mmax=  972
 Radial grid used for partial waves is grid 1
 Radial grid used for projectors is grid 1
 Radial grid used for (t)core density is grid 1
 Radial grid used for Vloc is grid 1
 Radial grid used for pseudo valence density is grid 1
 Mesh size for Vloc has been set to  809 to avoid numerical noise.
 Compensation charge density is not taken into account in XC energy/potential
 pspatm: atomic psp has been read  and splines computed

- pspini: atom type   4  psp file is ../../../Psps_for_tests/ATOMICDATA/Br.GGA_PBE-JTH.xml
- pspatm: opening atomic psp file    ../../../Psps_for_tests/ATOMICDATA/Br.GGA_PBE-JTH.xml
- pspatm : Reading pseudopotential header in XML form from ../../../Psps_for_tests/ATOMICDATA/Br.GGA_PBE-JTH.xml
 Pseudopotential format is: paw10
 basis_size (lnmax)=  4 (lmn_size=  8), orbitals=   0   0   1   1
 Spheres core radius: rc_sph= 2.20000000
 1 radial meshes are used:
  - mesh 1: r(i)=AA*[exp(BB*(i-1))-1], size= 927 , AA= 0.40483E-03 BB= 0.14169E-01
 Shapefunction is BESSEL type: shapef(r,l)=aa(1,l)*jl(q(1,l)*r)+aa(2,l)*jl(q(2,l)*r)
 Radius for shape functions =  2.02066386
 mmax=  927
 Radial grid used for partial waves is grid 1
 Radial grid used for projectors is grid 1
 Radial grid used for (t)core density is grid 1
 Radial grid used for Vloc is grid 1
 Radial grid used for pseudo valence density is grid 1
 Mesh size for Vloc has been set to  763 to avoid numerical noise.
 Compensation charge density is not taken into account in XC energy/potential
 pspatm: atomic psp has been read  and splines computed

   3.47331270E+04                                ecore*ucvol(ha*bohr**3)
--------------------------------------------------------------------------------

_setup2: Arith. and geom. avg. npw (full set) are   10275.455   10275.449

================================================================================

--- !BeginCycle
iteration_state: {dtset: 1, }
solver: {iscf: 17, nstep: 2500, nline: 4, wfoptalg: 10, }
tolerances: {toldfe: 1.00E-08, }
...

     iter   Etot(hartree)      deltaE(h)  residm     nres2
 ETOT  1  -167.47953176764    -1.675E+02 9.430E+00 7.552E+00
 ETOT  2  -169.18746626519    -1.708E+00 3.499E-02 3.232E+00
 ETOT  3  -169.17631720827     1.115E-02 2.107E-02 5.397E-01
 ETOT  4  -169.17710961123    -7.924E-04 6.347E-03 1.170E-01
 ETOT  5  -169.17713904675    -2.944E-05 4.962E-03 9.098E-03
 ETOT  6  -169.17720989058    -7.084E-05 3.671E-03 9.664E-04
 ETOT  7  -169.17721932835    -9.438E-06 3.090E-03 2.143E-04
 ETOT  8  -169.17722198132    -2.653E-06 1.948E-03 6.599E-06
 ETOT  9  -169.17722210764    -1.263E-07 1.044E-03 1.076E-06
 ETOT 10  -169.17722212727    -1.962E-08 1.095E-03 1.298E-07
 ETOT 11  -169.17722212879    -1.529E-09 6.770E-04 2.899E-08
 ETOT 12  -169.17722212883    -3.854E-11 1.018E-03 3.202E-09

 At SCF step   12, etot is converged : 
  for the second time, diff in etot=  3.854E-11 < toldfe=  1.000E-08

 Cartesian components of stress tensor (hartree/bohr^3)
  sigma(1 1)= -6.60813886E-05  sigma(3 2)= -2.52774409E-13
  sigma(2 2)= -6.61027338E-05  sigma(3 1)=  5.02123072E-13
  sigma(3 3)= -6.60813886E-05  sigma(2 1)= -2.52773314E-13


--- !ResultsGS
iteration_state: {dtset: 1, }
comment   : Summary of ground state results
lattice_vectors:
- [  0.0000000,  10.2920759,  10.3622884, ]
- [ 10.3622884,   0.0000000,  10.3622884, ]
- [ 10.3622884,  10.2920759,   0.0000000, ]
lattice_lengths: [  14.60493,   14.65449,   14.60493, ]
lattice_angles: [ 59.888,  60.225,  59.888, ] # degrees, (23, 13, 12)
lattice_volume:   2.2102649E+03
convergence: {deltae: -3.854E-11, res2:  3.202E-09, residm:  1.018E-03, diffor: null, }
etotal    :  -1.69177222E+02
entropy   :   0.00000000E+00
fermie    :  -7.55123103E-02
cartesian_stress_tensor: # hartree/bohr^3
- [ -6.60813886E-05,  -2.52773314E-13,   5.02123072E-13, ]
- [ -2.52773314E-13,  -6.61027338E-05,  -2.52774409E-13, ]
- [  5.02123072E-13,  -2.52774409E-13,  -6.60813886E-05, ]
pressure_GPa:   1.9444E+00
xred      :
- [  2.5000E-01,   2.5000E-01,   2.5000E-01, Cs]
- [  7.5000E-01,   7.5000E-01,   7.5000E-01, Cs]
- [  7.3851E-01,   2.6149E-01,   7.3851E-01,  I]
- [  2.3757E-01,   2.3757E-01,   7.6243E-01, Br]
- [  7.6243E-01,   7.6243E-01,   2.3757E-01, Br]
- [  2.6149E-01,   7.3851E-01,   2.6149E-01,  I]
- [  2.3757E-01,   7.6243E-01,   7.6243E-01, Br]
- [  7.6243E-01,   2.3757E-01,   2.3757E-01, Br]
- [ -5.7472E-22,   1.1961E-21,  -4.7080E-22, Hf]
cartesian_forces: # hartree/bohr
- [ -7.05872093E-23,  -6.52431884E-24,   2.77019108E-23, ]
- [ -7.05860400E-23,  -6.52424036E-24,   2.77010533E-23, ]
- [ -3.68167577E-22,  -8.24591623E-06,   3.25282279E-22, ]
- [  5.59369740E-17,  -5.63186970E-17,   1.56933892E-06, ]
- [ -5.59369517E-17,   5.63185193E-17,  -1.56933892E-06, ]
- [  2.26995419E-22,   8.24591623E-06,  -2.69880718E-22, ]
- [ -1.56933892E-06,   5.63186839E-17,  -5.59370169E-17, ]
- [  1.56933892E-06,  -5.63186383E-17,   5.59371206E-17, ]
- [ -7.05860789E-23,  -6.52443657E-24,   2.77007805E-23, ]
force_length_stats: {min:   7.61071353E-23, max:   8.24591623E-06, mean:   2.52990979E-06, }
...

 Integrated electronic density in atomic spheres:
 ------------------------------------------------
 Atom  Sphere_radius  Integrated_density
    1        2.20660          5.36800785
    2        2.20660          5.36800785
    3        2.30022          4.03861629
    4        2.20000          4.94103700
    5        2.20000          4.94103700
    6        2.30022          4.03861629
    7        2.20000          4.94103700
    8        2.20000          4.94103700
    9        2.41000          9.30238967

 PAW TEST:
 ==== Compensation charge inside spheres ============
 The following values must be close to each other ...
 Compensation charge over spherical meshes =     -0.380845422298568
 Compensation charge over fine fft grid    =     -0.380849372526164

 ==== Results concerning PAW augmentation regions ====

 Total pseudopotential strength Dij (hartree):
 Atom #  1
   0.43343  -0.14356   0.00000   0.00000   0.00000   0.00000   0.00000   0.00000   0.00000   0.00000  -0.00000   0.00000 ...
  -0.14356   0.04321   0.00000   0.00000   0.00000   0.00000   0.00000   0.00000   0.00000   0.00000   0.00000   0.00000 ...
   0.00000   0.00000  -0.09273   0.00000   0.00000  -0.16708   0.00000   0.00000   0.00000   0.00000   0.00000  -0.00000 ...
   0.00000   0.00000   0.00000  -0.09273   0.00000   0.00000  -0.16708   0.00000  -0.00000   0.00000   0.00000   0.00000 ...
   0.00000   0.00000   0.00000   0.00000  -0.09273   0.00000   0.00000  -0.16708   0.00000  -0.00000   0.00000   0.00000 ...
   0.00000   0.00000  -0.16708   0.00000   0.00000   0.40197   0.00000   0.00000   0.00000   0.00000   0.00000   0.00000 ...
   0.00000   0.00000   0.00000  -0.16708   0.00000   0.00000   0.40196   0.00000   0.00000   0.00000   0.00000   0.00000 ...
   0.00000   0.00000   0.00000   0.00000  -0.16708   0.00000   0.00000   0.40196   0.00000   0.00000   0.00000   0.00000 ...
   0.00000   0.00000   0.00000  -0.00000   0.00000   0.00000   0.00000   0.00000   0.00534   0.00000   0.00000   0.00000 ...
   0.00000   0.00000   0.00000   0.00000  -0.00000   0.00000   0.00000   0.00000   0.00000   0.00534   0.00000   0.00000 ...
  -0.00000   0.00000   0.00000   0.00000   0.00000   0.00000   0.00000   0.00000   0.00000   0.00000   0.00534   0.00000 ...
   0.00000   0.00000  -0.00000   0.00000   0.00000   0.00000   0.00000   0.00000   0.00000   0.00000   0.00000   0.00534 ...
   ...  only 12  components have been written...
 Atom #  9
  -3.51033   0.42534   0.00000   0.00000   0.00000   0.00000   0.00000   0.00000   0.00000   0.00000   0.00004   0.00000 ...
   0.42534   0.00342   0.00000   0.00000   0.00000   0.00000   0.00000   0.00000   0.00000   0.00000  -0.00001   0.00000 ...
   0.00000   0.00000  -1.44289   0.00000   0.00000   0.12074   0.00000   0.00000   0.00000   0.00000   0.00000   0.00000 ...
   0.00000   0.00000   0.00000  -1.44260   0.00000   0.00000   0.12069   0.00000   0.00000   0.00000   0.00000   0.00000 ...
   0.00000   0.00000   0.00000   0.00000  -1.44260   0.00000   0.00000   0.12069   0.00000   0.00000   0.00000   0.00000 ...
   0.00000   0.00000   0.12074   0.00000   0.00000   0.01383   0.00000   0.00000   0.00000   0.00000   0.00000   0.00000 ...
   0.00000   0.00000   0.00000   0.12069   0.00000   0.00000   0.01383   0.00000   0.00000   0.00000   0.00000   0.00000 ...
   0.00000   0.00000   0.00000   0.00000   0.12069   0.00000   0.00000   0.01383   0.00000   0.00000   0.00000   0.00000 ...
   0.00000   0.00000   0.00000   0.00000   0.00000   0.00000   0.00000   0.00000  -0.39148   0.00000   0.00000   0.00000 ...
   0.00000   0.00000   0.00000   0.00000   0.00000   0.00000   0.00000   0.00000   0.00000  -0.39148   0.00000   0.00000 ...
   0.00004  -0.00001   0.00000   0.00000   0.00000   0.00000   0.00000   0.00000   0.00000   0.00000  -0.39078   0.00000 ...
   0.00000   0.00000   0.00000   0.00000   0.00000   0.00000   0.00000   0.00000   0.00000   0.00000   0.00000  -0.39142 ...
   ...  only 12  components have been written...


 Augmentation waves occupancies Rhoij:
 Atom #  1
   1.99801  -0.01412   0.00000   0.00000   0.00000   0.00000   0.00000   0.00000   0.00000   0.00000  -0.00123   0.00000 ...
  -0.01412   0.17116   0.00000   0.00000   0.00000   0.00000   0.00000   0.00000   0.00000   0.00000   0.01177   0.00000 ...
   0.00000   0.00000   2.00648   0.00000   0.00000  -0.00467   0.00000   0.00000   0.00000   0.00000   0.00000  -0.00107 ...
   0.00000   0.00000   0.00000   2.00938   0.00000   0.00000  -0.00515   0.00000  -0.00120   0.00000   0.00000   0.00000 ...
   0.00000   0.00000   0.00000   0.00000   2.00938   0.00000   0.00000  -0.00515   0.00000  -0.00120   0.00000   0.00000 ...
   0.00000   0.00000  -0.00467   0.00000   0.00000   0.00010   0.00000   0.00000   0.00000   0.00000   0.00000   0.00003 ...
   0.00000   0.00000   0.00000  -0.00515   0.00000   0.00000   0.00014   0.00000   0.00004   0.00000   0.00000   0.00000 ...
   0.00000   0.00000   0.00000   0.00000  -0.00515   0.00000   0.00000   0.00014   0.00000   0.00004   0.00000   0.00000 ...
   0.00000   0.00000   0.00000  -0.00120   0.00000   0.00000   0.00004   0.00000   0.04645   0.00000   0.00000   0.00000 ...
   0.00000   0.00000   0.00000   0.00000  -0.00120   0.00000   0.00000   0.00004   0.00000   0.04645   0.00000   0.00000 ...
  -0.00123   0.01177   0.00000   0.00000   0.00000   0.00000   0.00000   0.00000   0.00000   0.00000   0.03496   0.00000 ...
   0.00000   0.00000  -0.00107   0.00000   0.00000   0.00003   0.00000   0.00000   0.00000   0.00000   0.00000   0.08277 ...
   ...  only 12  components have been written...
 Atom #  9
   1.99790  -0.02126   0.00000   0.00000   0.00000   0.00000   0.00000   0.00000   0.00000   0.00000  -0.00006   0.00000 ...
  -0.02126   1.01122   0.00000   0.00000   0.00000   0.00000   0.00000   0.00000   0.00000   0.00000   0.01773   0.00000 ...
   0.00000   0.00000   1.99268   0.00000   0.00000  -0.06076   0.00000   0.00000   0.00000   0.00000   0.00000   0.00000 ...
   0.00000   0.00000   0.00000   1.99242   0.00000   0.00000  -0.06577   0.00000   0.00000   0.00000   0.00000   0.00000 ...
   0.00000   0.00000   0.00000   0.00000   1.99242   0.00000   0.00000  -0.06577   0.00000   0.00000   0.00000   0.00000 ...
   0.00000   0.00000  -0.06076   0.00000   0.00000   1.18712   0.00000   0.00000   0.00000   0.00000   0.00000   0.00000 ...
   0.00000   0.00000   0.00000  -0.06577   0.00000   0.00000   1.35054   0.00000   0.00000   0.00000   0.00000   0.00000 ...
   0.00000   0.00000   0.00000   0.00000  -0.06577   0.00000   0.00000   1.35054   0.00000   0.00000   0.00000   0.00000 ...
   0.00000   0.00000   0.00000   0.00000   0.00000   0.00000   0.00000   0.00000   0.48255   0.00000   0.00000   0.00000 ...
   0.00000   0.00000   0.00000   0.00000   0.00000   0.00000   0.00000   0.00000   0.00000   0.48255   0.00000   0.00000 ...
  -0.00006   0.01773   0.00000   0.00000   0.00000   0.00000   0.00000   0.00000   0.00000   0.00000   1.51345   0.00000 ...
   0.00000   0.00000   0.00000   0.00000   0.00000   0.00000   0.00000   0.00000   0.00000   0.00000   0.00000   0.50491 ...
   ...  only 12  components have been written...


================================================================================

 ----iterations are completed or convergence reached----

 Mean square residual over all n,k,spin=   23.037E-07; max=  10.185E-04
 reduced coordinates (array xred) for    9 atoms
       0.250000000000      0.250000000000      0.250000000000
       0.750000000000      0.750000000000      0.750000000000
       0.738510854250      0.261489145750      0.738510854250
       0.237572579820      0.237572579820      0.762427420180
       0.762427420180      0.762427420180      0.237572579820
       0.261489145750      0.738510854250      0.261489145750
       0.237572579820      0.762427420180      0.762427420180
       0.762427420180      0.237572579820      0.237572579820
      -0.000000000000      0.000000000000     -0.000000000000
 rms dE/dt=  3.3844E-05; max dE/dt=  8.4868E-05; dE/dt below (all hartree)
    1      -0.000000000000      0.000000000000      0.000000000000
    2      -0.000000000000     -0.000000000000     -0.000000000000
    3       0.000084867596      0.000000000000      0.000084867596
    4      -0.000016261942     -0.000016261942      0.000000000000
    5       0.000016261942      0.000016261942      0.000000000000
    6      -0.000084867596      0.000000000000     -0.000084867596
    7       0.000000000000      0.000016261942      0.000016261942
    8      -0.000000000000     -0.000016261942     -0.000016261942
    9       0.000000000000      0.000000000000      0.000000000000

 cartesian coordinates (angstrom) at end:
    1      2.74174342114663     2.72316600388128     2.74174342114663
    2      8.22523026343990     8.16949801164383     8.22523026343990
    3      5.48348684238650     8.04435060716368     5.48348684238650
    4      5.48348684239585     5.44633200776255     2.60545223106527
    5      5.48348684219068     5.44633200776255     8.36152145352126
    6      5.48348684220003     2.84831340836142     5.48348684220003
    7      8.36152145352126     5.44633200776255     5.48348684219068
    8      2.60545223106527     5.44633200776255     5.48348684239585
    9      0.00000000000000    -0.00000000000000     0.00000000000000

 cartesian forces (hartree/bohr) at end:
    1     -0.00000000000000    -0.00000000000000     0.00000000000000
    2     -0.00000000000000    -0.00000000000000     0.00000000000000
    3     -0.00000000000000    -0.00000824591623     0.00000000000000
    4      0.00000000000000    -0.00000000000000     0.00000156933892
    5     -0.00000000000000     0.00000000000000    -0.00000156933892
    6      0.00000000000000     0.00000824591623    -0.00000000000000
    7     -0.00000156933892     0.00000000000000    -0.00000000000000
    8      0.00000156933892    -0.00000000000000     0.00000000000000
    9     -0.00000000000000    -0.00000000000000     0.00000000000000
 frms,max,avg= 2.3241212E-06 8.2459162E-06   0.000E+00  0.000E+00  0.000E+00 h/b

 cartesian forces (eV/Angstrom) at end:
    1     -0.00000000000000    -0.00000000000000     0.00000000000000
    2     -0.00000000000000    -0.00000000000000     0.00000000000000
    3     -0.00000000000000    -0.00042402202540     0.00000000000000
    4      0.00000000000000    -0.00000000000000     0.00008069864508
    5     -0.00000000000000     0.00000000000000    -0.00008069864508
    6      0.00000000000000     0.00042402202540    -0.00000000000000
    7     -0.00008069864508     0.00000000000000    -0.00000000000000
    8      0.00008069864508    -0.00000000000000     0.00000000000000
    9     -0.00000000000000    -0.00000000000000     0.00000000000000
 frms,max,avg= 1.1951111E-04 4.2402203E-04   0.000E+00  0.000E+00  0.000E+00 e/A
 length scales= 14.604925450000 14.654488771000 14.604925450000 bohr
              =  7.728593681296  7.754821461151  7.728593681296 angstroms
 prteigrs : about to open file Cs2TiI6o_DS1_EIG
 Fermi (or HOMO) energy (hartree) =  -0.07551   Average Vxc (hartree)=  -0.30996
 Eigenvalues (hartree) for nkpt= 163  k points:
 kpt#   1, nband= 42, wtk=  0.00058, kpt=  0.0000  0.0000  0.0000 (reduced coord)
  -2.36580   -1.21074   -1.21074   -1.21005   -0.81315   -0.81276   -0.58973   -0.57545
  -0.57545   -0.57520   -0.48625   -0.48268   -0.33537   -0.33537   -0.33434   -0.33116
  -0.33116   -0.33046   -0.23288   -0.17292   -0.17142   -0.17119   -0.17119   -0.16769
  -0.16579   -0.16579   -0.14206   -0.12540   -0.11752   -0.11752   -0.09793   -0.08659
  -0.08659   -0.08218   -0.07551   -0.07551    0.01705    0.01705    0.02472    0.09053
   0.09429    0.09741
 prteigrs : prtvol=0 or 1, do not print more k-points.


--- !EnergyTerms
iteration_state     : {dtset: 1, }
comment             : Components of total free energy in Hartree
kinetic             :  4.18788839404002E+01
hartree             :  3.37781080846378E+01
xc                  : -6.59437270264992E+01
Ewald energy        : -1.25477547433646E+02
psp_core            :  1.57144634753578E+01
local_psp           : -7.34322771297730E+01
spherical_terms     :  4.30486450096402E+00
total_energy        : -1.69177231588559E+02
total_energy_eV     : -4.60354658912839E+03
...


--- !EnergyTermsDC
iteration_state     : {dtset: 1, }
comment             : '"Double-counting" decomposition of free energy'
band_energy         : -3.08437442130150E+01
Ewald energy        : -1.25477547433646E+02
psp_core            :  1.57144634753578E+01
xc_dc               : -6.02562012377171E+01
spherical_terms     :  3.16858072801875E+01
total_energy_dc     : -1.69177222128833E+02
total_energy_dc_eV  : -4.60354633171617E+03
...


 Cartesian components of stress tensor (hartree/bohr^3)
  sigma(1 1)= -6.60813886E-05  sigma(3 2)= -2.52774409E-13
  sigma(2 2)= -6.61027338E-05  sigma(3 1)=  5.02123072E-13
  sigma(3 3)= -6.60813886E-05  sigma(2 1)= -2.52773314E-13

-Cartesian components of stress tensor (GPa)         [Pressure=  1.9444E+00 GPa]
- sigma(1 1)= -1.94418125E+00  sigma(3 2)= -7.43687863E-09
- sigma(2 2)= -1.94480924E+00  sigma(3 1)=  1.47729683E-08
- sigma(3 3)= -1.94418125E+00  sigma(2 1)= -7.43684641E-09

================================================================================
== DATASET  2 ==================================================================
-   mpi_nproc: 6, omp_nthreads: -1 (-1 if OMP is not activated)


--- !DatasetInfo
iteration_state: {dtset: 2, }
dimensions: {natom: 9, nkpt: 163, mband: 42, nsppol: 1, nspinor: 1, nspden: 1, mpw: 10280, }
cutoff_energies: {ecut:  16.0, pawecutdg:  40.0, }
electrons: {nelect:   7.20000000E+01, charge:   0.00000000E+00, occopt:   1.00000000E+00, tsmear:   1.00000000E-02, }
meta: {optdriver: 0, ionmov: 0, optcell: 0, iscf: 17, paral_kgb: 0, }
...

 Real(R)+Recip(G) space primitive vectors, cartesian coordinates (Bohr,Bohr^-1):
 R(1)=  0.0000000 10.2817038 10.3519509  G(1)= -0.0483001  0.0486301  0.0483001
 R(2)= 10.3519509  0.0000000 10.3519509  G(2)=  0.0483001 -0.0486301  0.0483001
 R(3)= 10.3519509 10.2817038  0.0000000  G(3)=  0.0483001  0.0486301 -0.0483001
 Unit cell volume ucvol=  2.2036341E+03 bohr^3
 Angles (23,13,12)=  5.98875089E+01  6.02249822E+01  5.98875089E+01 degrees

 Coarse grid specifications (used for wave-functions):

 getcut: wavevector=  0.0000  0.0000  0.0000  ngfft=  64  64  64
         ecut(hartree)=     21.160   => boxcut(ratio)=   2.11115

 Fine grid specifications (used for densities):

 getcut: wavevector=  0.0000  0.0000  0.0000  ngfft=  96  96  96
         ecut(hartree)=     52.900   => boxcut(ratio)=   2.00282

--- Pseudopotential description ------------------------------------------------
- pspini: atom type   1  psp file is ../../../Psps_for_tests/ATOMICDATA/Cs.GGA_PBE-JTH.xml
- pspatm: opening atomic psp file    ../../../Psps_for_tests/ATOMICDATA/Cs.GGA_PBE-JTH.xml
- pspatm : Reading pseudopotential header in XML form from ../../../Psps_for_tests/ATOMICDATA/Cs.GGA_PBE-JTH.xml
 Pseudopotential format is: paw10
 basis_size (lnmax)=  6 (lmn_size= 18), orbitals=   0   0   1   1   2   2
 Spheres core radius: rc_sph= 2.20660278
 1 radial meshes are used:
  - mesh 1: r(i)=AA*[exp(BB*(i-1))-1], size=1500 , AA= 0.15922E-03 BB= 0.87573E-02
 Shapefunction is SIN type: shapef(r)=[sin(pi*r/rshp)/(pi*r/rshp)]**2
 Radius for shape functions =  2.00394208
 mmax= 1500
 Radial grid used for partial waves is grid 1
 Radial grid used for projectors is grid 1
 Radial grid used for (t)core density is grid 1
 Radial grid used for Vloc is grid 1
 Radial grid used for pseudo valence density is grid 1
 Mesh size for Vloc has been set to 1341 to avoid numerical noise.
 Compensation charge density is not taken into account in XC energy/potential
 pspatm: atomic psp has been read  and splines computed

- pspini: atom type   2  psp file is ../../../Psps_for_tests/ATOMICDATA/I.GGA_PBE-JTH.xml
- pspatm: opening atomic psp file    ../../../Psps_for_tests/ATOMICDATA/I.GGA_PBE-JTH.xml
- pspatm : Reading pseudopotential header in XML form from ../../../Psps_for_tests/ATOMICDATA/I.GGA_PBE-JTH.xml
 Pseudopotential format is: paw10
 basis_size (lnmax)=  4 (lmn_size=  8), orbitals=   0   0   1   1
 Spheres core radius: rc_sph= 2.30022271
 1 radial meshes are used:
  - mesh 1: r(i)=AA*[exp(BB*(i-1))-1], size=2000 , AA= 0.12610E-03 BB= 0.66836E-02
 Shapefunction is SIN type: shapef(r)=[sin(pi*r/rshp)/(pi*r/rshp)]**2
 Radius for shape functions =  2.10879093
 mmax= 2000
 Radial grid used for partial waves is grid 1
 Radial grid used for projectors is grid 1
 Radial grid used for (t)core density is grid 1
 Radial grid used for Vloc is grid 1
 Radial grid used for pseudo valence density is grid 1
 Mesh size for Vloc has been set to 1792 to avoid numerical noise.
 Compensation charge density is not taken into account in XC energy/potential
 pspatm: atomic psp has been read  and splines computed

- pspini: atom type   3  psp file is ../../../Psps_for_tests/ATOMICDATA/Hf.GGA_PBE-JTH.xml
- pspatm: opening atomic psp file    ../../../Psps_for_tests/ATOMICDATA/Hf.GGA_PBE-JTH.xml
- pspatm : Reading pseudopotential header in XML form from ../../../Psps_for_tests/ATOMICDATA/Hf.GGA_PBE-JTH.xml
 Pseudopotential format is: paw10
 basis_size (lnmax)=  6 (lmn_size= 18), orbitals=   0   0   1   1   2   2
 Spheres core radius: rc_sph= 2.41000000
 1 radial meshes are used:
  - mesh 1: r(i)=AA*[exp(BB*(i-1))-1], size= 972 , AA= 0.19796E-03 BB= 0.14253E-01
 Shapefunction is SIN type: shapef(r)=[sin(pi*r/rshp)/(pi*r/rshp)]**2
 Radius for shape functions =  2.41000000
 mmax=  972
 Radial grid used for partial waves is grid 1
 Radial grid used for projectors is grid 1
 Radial grid used for (t)core density is grid 1
 Radial grid used for Vloc is grid 1
 Radial grid used for pseudo valence density is grid 1
 Mesh size for Vloc has been set to  809 to avoid numerical noise.
 Compensation charge density is not taken into account in XC energy/potential
 pspatm: atomic psp has been read  and splines computed

- pspini: atom type   4  psp file is ../../../Psps_for_tests/ATOMICDATA/Br.GGA_PBE-JTH.xml
- pspatm: opening atomic psp file    ../../../Psps_for_tests/ATOMICDATA/Br.GGA_PBE-JTH.xml
- pspatm : Reading pseudopotential header in XML form from ../../../Psps_for_tests/ATOMICDATA/Br.GGA_PBE-JTH.xml
 Pseudopotential format is: paw10
 basis_size (lnmax)=  4 (lmn_size=  8), orbitals=   0   0   1   1
 Spheres core radius: rc_sph= 2.20000000
 1 radial meshes are used:
  - mesh 1: r(i)=AA*[exp(BB*(i-1))-1], size= 927 , AA= 0.40483E-03 BB= 0.14169E-01
 Shapefunction is BESSEL type: shapef(r,l)=aa(1,l)*jl(q(1,l)*r)+aa(2,l)*jl(q(2,l)*r)
 Radius for shape functions =  2.02066386
 mmax=  927
 Radial grid used for partial waves is grid 1
 Radial grid used for projectors is grid 1
 Radial grid used for (t)core density is grid 1
 Radial grid used for Vloc is grid 1
 Radial grid used for pseudo valence density is grid 1
 Mesh size for Vloc has been set to  763 to avoid numerical noise.
 Compensation charge density is not taken into account in XC energy/potential
 pspatm: atomic psp has been read  and splines computed

--------------------------------------------------------------------------------

_setup2: Arith. and geom. avg. npw (full set) are   10245.555   10245.548

================================================================================

--- !BeginCycle
iteration_state: {dtset: 2, }
solver: {iscf: 17, nstep: 2500, nline: 4, wfoptalg: 10, }
tolerances: {toldfe: 1.00E-08, }
...

     iter   Etot(hartree)      deltaE(h)  residm     nres2
 ETOT  1  -167.43235533137    -1.674E+02 9.124E+00 7.462E+00
 ETOT  2  -169.18751473245    -1.755E+00 3.165E-02 3.357E+00
 ETOT  3  -169.17586257240     1.165E-02 1.749E-02 5.587E-01
 ETOT  4  -169.17665334822    -7.908E-04 6.743E-03 1.203E-01
 ETOT  5  -169.17668851648    -3.517E-05 5.769E-03 9.488E-03
 ETOT  6  -169.17676013445    -7.162E-05 3.657E-03 9.684E-04
 ETOT  7  -169.17676956688    -9.432E-06 2.104E-03 2.226E-04
 ETOT  8  -169.17677234184    -2.775E-06 1.730E-03 6.623E-06
 ETOT  9  -169.17677246454    -1.227E-07 1.301E-03 1.153E-06
 ETOT 10  -169.17677248550    -2.096E-08 8.762E-04 1.358E-07
 ETOT 11  -169.17677248706    -1.552E-09 5.474E-04 3.238E-08
 ETOT 12  -169.17677248710    -4.189E-11 5.521E-04 3.477E-09

 At SCF step   12, etot is converged : 
  for the second time, diff in etot=  4.189E-11 < toldfe=  1.000E-08

 Cartesian components of stress tensor (hartree/bohr^3)
  sigma(1 1)= -6.80401139E-05  sigma(3 2)= -1.67311891E-13
  sigma(2 2)= -6.80366629E-05  sigma(3 1)=  3.32356376E-13
  sigma(3 3)= -6.80401139E-05  sigma(2 1)= -1.67313806E-13


--- !ResultsGS
iteration_state: {dtset: 2, }
comment   : Summary of ground state results
lattice_vectors:
- [  0.0000000,  10.2817038,  10.3519509, ]
- [ 10.3519509,   0.0000000,  10.3519509, ]
- [ 10.3519509,  10.2817038,   0.0000000, ]
lattice_lengths: [  14.59028,   14.63987,   14.59028, ]
lattice_angles: [ 59.888,  60.225,  59.888, ] # degrees, (23, 13, 12)
lattice_volume:   2.2036341E+03
convergence: {deltae: -4.189E-11, res2:  3.477E-09, residm:  5.521E-04, diffor: null, }
etotal    :  -1.69176772E+02
entropy   :   0.00000000E+00
fermie    :  -7.49778697E-02
cartesian_stress_tensor: # hartree/bohr^3
- [ -6.80401139E-05,  -1.67313806E-13,   3.32356376E-13, ]
- [ -1.67313806E-13,  -6.80366629E-05,  -1.67311891E-13, ]
- [  3.32356376E-13,  -1.67311891E-13,  -6.80401139E-05, ]
pressure_GPa:   2.0018E+00
xred      :
- [  2.5000E-01,   2.5000E-01,   2.5000E-01, Cs]
- [  7.5000E-01,   7.5000E-01,   7.5000E-01, Cs]
- [  7.3833E-01,   2.6167E-01,   7.3833E-01,  I]
- [  2.3777E-01,   2.3777E-01,   7.6223E-01, Br]
- [  7.6223E-01,   7.6223E-01,   2.3777E-01, Br]
- [  2.6167E-01,   7.3833E-01,   2.6167E-01,  I]
- [  2.3777E-01,   7.6223E-01,   7.6223E-01, Br]
- [  7.6223E-01,   2.3777E-01,   2.3777E-01, Br]
- [ -5.7472E-22,   1.1961E-21,  -4.7080E-22, Hf]
cartesian_forces: # hartree/bohr
- [ -9.41147329E-23,  -1.32221168E-24,  -7.41446820E-24, ]
- [ -9.41156108E-23,  -1.32144566E-24,  -7.41359033E-24, ]
- [ -9.47233954E-23,  -7.27337808E-07,  -6.80580574E-24, ]
- [ -1.18931067E-16,   1.19743434E-16,  -5.07029860E-06, ]
- [  1.18930879E-16,  -1.19743436E-16,   5.07029860E-06, ]
- [ -6.46221983E-23,   7.27337808E-07,  -3.69070028E-23, ]
- [  5.07029860E-06,  -1.19743013E-16,   1.18930966E-16, ]
- [ -5.07029860E-06,   1.19742916E-16,  -1.18930884E-16, ]
- [ -9.41147719E-23,  -1.32142602E-24,  -7.41442919E-24, ]
force_length_stats: {min:   9.44156000E-23, max:   5.07029860E-06, mean:   2.41509667E-06, }
...

 Integrated electronic density in atomic spheres:
 ------------------------------------------------
 Atom  Sphere_radius  Integrated_density
    1        2.20660          5.36211609
    2        2.20660          5.36211609
    3        2.30022          4.03897094
    4        2.20000          4.94198289
    5        2.20000          4.94198289
    6        2.30022          4.03897094
    7        2.20000          4.94198289
    8        2.20000          4.94198289
    9        2.41000          9.30374303

 PAW TEST:
 ==== Compensation charge inside spheres ============
 The following values must be close to each other ...
 Compensation charge over spherical meshes =     -0.381027758576716
 Compensation charge over fine fft grid    =     -0.381032231823536

 ==== Results concerning PAW augmentation regions ====

 Total pseudopotential strength Dij (hartree):
 Atom #  1
   0.43328  -0.14351   0.00000   0.00000   0.00000   0.00000   0.00000   0.00000   0.00000   0.00000  -0.00000   0.00000 ...
  -0.14351   0.04320   0.00000   0.00000   0.00000   0.00000   0.00000   0.00000   0.00000   0.00000   0.00000   0.00000 ...
   0.00000   0.00000  -0.09271   0.00000   0.00000  -0.16709   0.00000   0.00000   0.00000   0.00000   0.00000  -0.00000 ...
   0.00000   0.00000   0.00000  -0.09271   0.00000   0.00000  -0.16709   0.00000  -0.00000   0.00000   0.00000   0.00000 ...
[...]
                       8.2757860400E+00  5.4041656275E+00  5.4388462982E+00
                       2.6019065566E+00  5.4041656275E+00  5.4388462984E+00
                       3.9450244869E-21 -5.6501770114E-21  3.3797801617E-21
           xangst10    2.7164578463E+00  2.6997957893E+00  2.7164578463E+00
                       8.1493735390E+00  8.0993873680E+00  8.1493735390E+00
                       5.4329156928E+00  7.9596342289E+00  5.4329156928E+00
                       5.4329156928E+00  5.3995915787E+00  2.6014171980E+00
                       5.4329156926E+00  5.3995915787E+00  8.2644141873E+00
                       5.4329156926E+00  2.8395489285E+00  5.4329156926E+00
                       8.2644141873E+00  5.3995915787E+00  5.4329156926E+00
                       2.6014171980E+00  5.3995915787E+00  5.4329156928E+00
                       3.7832463392E-21 -5.8024930616E-21  2.9449727216E-21
            xcart1     5.1811441926E+00  5.1460379617E+00  5.1811441926E+00
                       1.5543432578E+01  1.5438113885E+01  1.5543432578E+01
                       1.0362288385E+01  1.5201619564E+01  1.0362288385E+01
                       1.0362288385E+01  1.0292075923E+01  4.9235911690E+00
                       1.0362288385E+01  1.0292075923E+01  1.5800985601E+01
                       1.0362288385E+01  5.3825322824E+00  1.0362288385E+01
                       1.5800985601E+01  1.0292075923E+01  1.0362288385E+01
                       4.9235911690E+00  1.0292075923E+01  1.0362288385E+01
                       7.5162045731E-21 -1.0760597434E-20  6.4392804637E-21
            xcart2     5.1759754262E+00  5.1408518826E+00  5.1759754262E+00
                       1.5527926279E+01  1.5422555648E+01  1.5527926279E+01
                       1.0351950852E+01  1.5182540413E+01  1.0351950852E+01
                       1.0351950852E+01  1.0281703765E+01  4.9228273511E+00
                       1.0351950852E+01  1.0281703765E+01  1.5781074354E+01
                       1.0351950852E+01  5.3808671178E+00  1.0351950852E+01
                       1.5781074354E+01  1.0281703765E+01  1.0351950852E+01
                       4.9228273511E+00  1.0281703765E+01  1.0351950852E+01
                       7.5087063250E-21 -1.0749753108E-20  6.4328565670E-21
            xcart3     5.1708012361E+00  5.1356765775E+00  5.1708012361E+00
                       1.5512403708E+01  1.5407029733E+01  1.5512403708E+01
                       1.0341602472E+01  1.5163620504E+01  1.0341602472E+01
                       1.0341602472E+01  1.0271353155E+01  4.9220566216E+00
                       1.0341602472E+01  1.0271353155E+01  1.5761148323E+01
                       1.0341602472E+01  5.3790858063E+00  1.0341602472E+01
                       1.5761148323E+01  1.0271353155E+01  1.0341602472E+01
                       4.9220566216E+00  1.0271353155E+01  1.0341602472E+01
                       7.5012002082E-21 -1.0738931312E-20  6.4264259287E-21
            xcart4     5.1656414831E+00  5.1304725940E+00  5.1656414831E+00
                       1.5496924449E+01  1.5391417782E+01  1.5496924449E+01
                       1.0331282966E+01  1.5144625060E+01  1.0331282966E+01
                       1.0331282966E+01  1.0260945188E+01  4.9212460800E+00
                       1.0331282966E+01  1.0260945188E+01  1.5741319853E+01
                       1.0331282966E+01  5.3772653157E+00  1.0331282966E+01
                       1.5741319853E+01  1.0260945188E+01  1.0331282966E+01
                       4.9212460800E+00  1.0260945188E+01  1.0331282966E+01
                       7.4937150358E-21 -1.0728049548E-20  6.4200132342E-21
            xcart5     5.1604666858E+00  5.1252984961E+00  5.1604666858E+00
                       1.5481400057E+01  1.5375895488E+01  1.5481400057E+01
                       1.0320933372E+01  1.5125786820E+01  1.0320933372E+01
                       1.0320933372E+01  1.0250596992E+01  4.9204645017E+00
                       1.0320933371E+01  1.0250596992E+01  1.5721402242E+01
                       1.0320933371E+01  5.3754071650E+00  1.0320933371E+01
                       1.5721402242E+01  1.0250596992E+01  1.0320933371E+01
                       4.9204645017E+00  1.0250596992E+01  1.0320933372E+01
                       7.4862080387E-21 -1.0717230276E-20  6.4135818420E-21
            xcart6     5.1552650733E+00  5.1201776627E+00  5.1552650733E+00
                       1.5465795220E+01  1.5360532988E+01  1.5465795220E+01
                       1.0310530147E+01  1.5107208768E+01  1.0310530147E+01
                       1.0310530147E+01  1.0240355325E+01  4.9196858246E+00
                       1.0310530146E+01  1.0240355325E+01  1.5701374469E+01
                       1.0310530146E+01  5.3735018826E+00  1.0310530146E+01
                       1.5701374469E+01  1.0240355325E+01  1.0310530146E+01
                       4.9196858246E+00  1.0240355325E+01  1.0310530147E+01
                       7.4786621408E-21 -1.0706522382E-20  6.4071171227E-21
            xcart7     5.1500597701E+00  5.1150641610E+00  5.1500597701E+00
                       1.5450179310E+01  1.5345192483E+01  1.5450179310E+01
                       1.0300119540E+01  1.5088738747E+01  1.0300119540E+01
                       1.0300119540E+01  1.0230128322E+01  4.9187332361E+00
                       1.0300119540E+01  1.0230128322E+01  1.5681505844E+01
                       1.0300119540E+01  5.3715178969E+00  1.0300119540E+01
                       1.5681505844E+01  1.0230128322E+01  1.0300119540E+01
                       4.9187332361E+00  1.0230128322E+01  1.0300119540E+01
                       7.4711108890E-21 -1.0695829820E-20  6.4006478166E-21
            xcart8     5.1448475188E+00  5.1099644614E+00  5.1448475188E+00
                       1.5434542557E+01  1.5329893384E+01  1.5434542557E+01
                       1.0289695038E+01  1.5070183868E+01  1.0289695038E+01
                       1.0289695038E+01  1.0219928923E+01  4.9178681528E+00
                       1.0289695037E+01  1.0219928923E+01  1.5661521923E+01
                       1.0289695037E+01  5.3696739781E+00  1.0289695037E+01
                       1.5661521923E+01  1.0219928923E+01  1.0289695037E+01
                       4.9178681528E+00  1.0219928923E+01  1.0289695038E+01
                       7.4635495577E-21 -1.0685166118E-20  6.3941698750E-21
            xcart9     5.1389649913E+00  5.1061965063E+00  5.1389649913E+00
                       1.5416894974E+01  1.5318589519E+01  1.5416894974E+01
                       1.0277929983E+01  1.5056928084E+01  1.0277929983E+01
                       1.0277929983E+01  1.0212393013E+01  4.9168908154E+00
                       1.0277929982E+01  1.0212393013E+01  1.5638969150E+01
                       1.0277929982E+01  5.3678579409E+00  1.0277929982E+01
                       1.5638969150E+01  1.0212393013E+01  1.0277929982E+01
                       4.9168908154E+00  1.0212393013E+01  1.0277929983E+01
                       7.4550158678E-21 -1.0677287154E-20  6.3868588950E-21
            xcart10    5.1333613811E+00  5.1018746566E+00  5.1333613811E+00
                       1.5400084143E+01  1.5305623970E+01  1.5400084143E+01
                       1.0266722762E+01  1.5041528810E+01  1.0266722762E+01
                       1.0266722762E+01  1.0203749313E+01  4.9159660617E+00
                       1.0266722762E+01  1.0203749313E+01  1.5617479463E+01
                       1.0266722762E+01  5.3659698158E+00  1.0266722762E+01
                       1.5617479463E+01  1.0203749313E+01  1.0266722762E+01
                       4.9159660617E+00  1.0203749313E+01  1.0266722762E+01
                       7.1492994744E-21 -1.0965122774E-20  5.5651919127E-21
             xred1     2.5000000000E-01  2.5000000000E-01  2.5000000000E-01
                       7.5000000000E-01  7.5000000000E-01  7.5000000000E-01
                       7.3851085425E-01  2.6148914575E-01  7.3851085425E-01
                       2.3757257982E-01  2.3757257982E-01  7.6242742018E-01
                       7.6242742018E-01  7.6242742018E-01  2.3757257982E-01
                       2.6148914575E-01  7.3851085425E-01  2.6148914575E-01
                       2.3757257982E-01  7.6242742018E-01  7.6242742018E-01
                       7.6242742018E-01  2.3757257982E-01  2.3757257982E-01
                      -5.7472489725E-22  1.1961398034E-21 -4.7079764978E-22
             xred2     2.5000000000E-01  2.5000000000E-01  2.5000000000E-01
                       7.5000000000E-01  7.5000000000E-01  7.5000000000E-01
                       7.3832804170E-01  2.6167195830E-01  7.3832804170E-01
                       2.3777292905E-01  2.3777292905E-01  7.6222707095E-01
                       7.6222707095E-01  7.6222707095E-01  2.3777292905E-01
                       2.6167195830E-01  7.3832804170E-01  2.6167195830E-01
                       2.3777292905E-01  7.6222707095E-01  7.6222707095E-01
                       7.6222707095E-01  2.3777292905E-01  2.3777292905E-01
                      -5.7472489725E-22  1.1961398034E-21 -4.7079764978E-22
             xred3     2.5000000000E-01  2.5000000000E-01  2.5000000000E-01
                       7.5000000000E-01  7.5000000000E-01  7.5000000000E-01
                       7.3815106320E-01  2.6184893680E-01  7.3815106320E-01
                       2.3797359427E-01  2.3797359427E-01  7.6202640573E-01
                       7.6202640573E-01  7.6202640573E-01  2.3797359427E-01
                       2.6184893680E-01  7.3815106320E-01  2.6184893680E-01
                       2.3797359427E-01  7.6202640573E-01  7.6202640573E-01
                       7.6202640573E-01  2.3797359427E-01  2.3797359427E-01
                      -5.7472489725E-22  1.1961398034E-21 -4.7079764978E-22
             xred4     2.5000000000E-01  2.5000000000E-01  2.5000000000E-01
                       7.5000000000E-01  7.5000000000E-01  7.5000000000E-01
                       7.3797417211E-01  2.6202582789E-01  7.3797417211E-01
                       2.3817206905E-01  2.3817206905E-01  7.6182793095E-01
                       7.6182793095E-01  7.6182793095E-01  2.3817206905E-01
                       2.6202582789E-01  7.3797417211E-01  2.6202582789E-01
                       2.3817206905E-01  7.6182793095E-01  7.6182793095E-01
                       7.6182793095E-01  2.3817206905E-01  2.3817206905E-01
                      -5.7472489725E-22  1.1961398034E-21 -4.7079764978E-22
             xred5     2.5000000000E-01  2.5000000000E-01  2.5000000000E-01
                       7.5000000000E-01  7.5000000000E-01  7.5000000000E-01
                       7.3780028768E-01  2.6219971232E-01  7.3780028768E-01
                       2.3837303878E-01  2.3837303878E-01  7.6162696122E-01
                       7.6162696122E-01  7.6162696122E-01  2.3837303878E-01
                       2.6219971232E-01  7.3780028768E-01  2.6219971232E-01
                       2.3837303878E-01  7.6162696122E-01  7.6162696122E-01
                       7.6162696122E-01  2.3837303878E-01  2.3837303878E-01
                      -5.7472489725E-22  1.1961398034E-21 -4.7079764978E-22
             xred6     2.5000000000E-01  2.5000000000E-01  2.5000000000E-01
                       7.5000000000E-01  7.5000000000E-01  7.5000000000E-01
                       7.3763108252E-01  2.6236891748E-01  7.3763108252E-01
                       2.3857579361E-01  2.3857579361E-01  7.6142420639E-01
                       7.6142420639E-01  7.6142420639E-01  2.3857579361E-01
                       2.6236891748E-01  7.3763108252E-01  2.6236891748E-01
                       2.3857579361E-01  7.6142420639E-01  7.6142420639E-01
                       7.6142420639E-01  2.3857579361E-01  2.3857579361E-01
                      -5.7472489725E-22  1.1961398034E-21 -4.7079764978E-22
             xred7     2.5000000000E-01  2.5000000000E-01  2.5000000000E-01
                       7.5000000000E-01  7.5000000000E-01  7.5000000000E-01
                       7.3746576153E-01  2.6253423847E-01  7.3746576153E-01
                       2.3877068693E-01  2.3877068693E-01  7.6122931307E-01
                       7.6122931307E-01  7.6122931307E-01  2.3877068693E-01
                       2.6253423847E-01  7.3746576153E-01  2.6253423847E-01
                       2.3877068693E-01  7.6122931307E-01  7.6122931307E-01
                       7.6122931307E-01  2.3877068693E-01  2.3877068693E-01
                      -5.7472489725E-22  1.1961398034E-21 -4.7079764978E-22
             xred8     2.5000000000E-01  2.5000000000E-01  2.5000000000E-01
                       7.5000000000E-01  7.5000000000E-01  7.5000000000E-01
                       7.3729396659E-01  2.6270603341E-01  7.3729396659E-01
                       2.3897054941E-01  2.3897054941E-01  7.6102945059E-01
                       7.6102945059E-01  7.6102945059E-01  2.3897054941E-01
                       2.6270603341E-01  7.3729396659E-01  2.6270603341E-01
                       2.3897054941E-01  7.6102945059E-01  7.6102945059E-01
                       7.6102945059E-01  2.3897054941E-01  2.3897054941E-01
                      -5.7472489725E-22  1.1961398034E-21 -4.7079764978E-22
             xred9     2.5000000000E-01  2.5000000000E-01  2.5000000000E-01
                       7.5000000000E-01  7.5000000000E-01  7.5000000000E-01
                       7.3718902444E-01  2.6281097556E-01  7.3718902444E-01
                       2.3919655143E-01  2.3919655143E-01  7.6080344857E-01
                       7.6080344857E-01  7.6080344857E-01  2.3919655143E-01
                       2.6281097556E-01  7.3718902444E-01  2.6281097556E-01
                       2.3919655143E-01  7.6080344857E-01  7.6080344857E-01
                       7.6080344857E-01  2.3919655143E-01  2.3919655143E-01
                      -5.7472489725E-22  1.1961398034E-21 -4.7079764978E-22
             xred10    2.5000000000E-01  2.5000000000E-01  2.5000000000E-01
                       7.5000000000E-01  7.5000000000E-01  7.5000000000E-01
                       7.3705891574E-01  2.6294108426E-01  7.3705891574E-01
                       2.3941262346E-01  2.3941262346E-01  7.6058737654E-01
                       7.6058737654E-01  7.6058737654E-01  2.3941262346E-01
                       2.6294108426E-01  7.3705891574E-01  2.6294108426E-01
                       2.3941262346E-01  7.6058737654E-01  7.6058737654E-01
                       7.6058737654E-01  2.3941262346E-01  2.3941262346E-01
                      -6.1445618865E-22  1.1565173743E-21 -4.6016084063E-22
            znucl       55.00000   53.00000   72.00000   35.00000

================================================================================


- Timing analysis has been suppressed with timopt=0



================================================================================

 Suggested references for the acknowledgment of ABINIT usage.

 The users of ABINIT have little formal obligations with respect to the ABINIT group
 (those specified in the GNU General Public License, http://www.gnu.org/copyleft/gpl.txt).
 However, it is common practice in the scientific literature,
 to acknowledge the efforts of people that have made the research possible.
 In this spirit, please find below suggested citations of work written by ABINIT developers,
 corresponding to implementations inside of ABINIT that you have used in the present run.
 Note also that it will be of great value to readers of publications presenting these results,
 to read papers enabling them to understand the theoretical formalism and details
 of the ABINIT implementation.
 For information on why they are suggested, see also https://docs.abinit.org/theory/acknowledgments.
-
- [1] Implementation of the Projector Augmented-Wave Method in the ABINIT code.
- M. Torrent, F. Jollet, F. Bottin, G. Zerah, and X. Gonze Comput. Mat. Science 42, 337, (2008).
- Comment: PAW calculations. Strong suggestion to cite this paper.
- DOI and bibtex: see https://docs.abinit.org/theory/bibliography/#torrent2008
-
- [2] Libxc: A library of exchange and correlation functionals for density functional theory.
- M.A.L. Marques, M.J.T. Oliveira, T. Burnus, Computer Physics Communications 183, 2227 (2012).
- Comment: to be cited when LibXC is used (negative value of ixc)
- Strong suggestion to cite this paper.
- DOI and bibtex: see https://docs.abinit.org/theory/bibliography/#marques2012
-
- [3] The Abinit project: Impact, environment and recent developments.
- Computer Phys. Comm. 248, 107042 (2020).
- X.Gonze, B. Amadon, G. Antonius, F.Arnardi, L.Baguet, J.-M.Beuken,
- J.Bieder, F.Bottin, J.Bouchet, E.Bousquet, N.Brouwer, F.Bruneval,
- G.Brunin, T.Cavignac, J.-B. Charraud, Wei Chen, M.Cote, S.Cottenier,
- J.Denier, G.Geneste, Ph.Ghosez, M.Giantomassi, Y.Gillet, O.Gingras,
- D.R.Hamann, G.Hautier, Xu He, N.Helbig, N.Holzwarth, Y.Jia, F.Jollet,
- W.Lafargue-Dit-Hauret, K.Lejaeghere, M.A.L.Marques, A.Martin, C.Martins,
- H.P.C. Miranda, F.Naccarato, K. Persson, G.Petretto, V.Planes, Y.Pouillon,
- S.Prokhorenko, F.Ricci, G.-M.Rignanese, A.H.Romero, M.M.Schmitt, M.Torrent,
- M.J.van Setten, B.Van Troeye, M.J.Verstraete, G.Zerah and J.W.Zwanzig
- Comment: the fifth generic paper describing the ABINIT project.
- Note that a version of this paper, that is not formatted for Computer Phys. Comm. 
- is available at https://www.abinit.org/sites/default/files/ABINIT20.pdf .
- The licence allows the authors to put it on the Web.
- DOI and bibtex: see https://docs.abinit.org/theory/bibliography/#gonze2020
-
- [4] ABINIT: Overview, and focus on selected capabilities
- J. Chem. Phys. 152, 124102 (2020).
- A. Romero, D.C. Allan, B. Amadon, G. Antonius, T. Applencourt, L.Baguet,
- J.Bieder, F.Bottin, J.Bouchet, E.Bousquet, F.Bruneval,
- G.Brunin, D.Caliste, M.Cote,
- J.Denier, C. Dreyer, Ph.Ghosez, M.Giantomassi, Y.Gillet, O.Gingras,
- D.R.Hamann, G.Hautier, F.Jollet, G. Jomard,
- A.Martin, 
- H.P.C. Miranda, F.Naccarato, G.Petretto, N.A. Pike, V.Planes,
- S.Prokhorenko, T. Rangel, F.Ricci, G.-M.Rignanese, M.Royo, M.Stengel, M.Torrent,
- M.J.van Setten, B.Van Troeye, M.J.Verstraete, J.Wiktor, J.W.Zwanziger, and X.Gonze.
- Comment: a global overview of ABINIT, with focus on selected capabilities .
- Note that a version of this paper, that is not formatted for J. Chem. Phys 
- is available at https://www.abinit.org/sites/default/files/ABINIT20_JPC.pdf .
- The licence allows the authors to put it on the Web.
- DOI and bibtex: see https://docs.abinit.org/theory/bibliography/#romero2020
-
- [5] Recent developments in the ABINIT software package.
- Computer Phys. Comm. 205, 106 (2016).
- X.Gonze, F.Jollet, F.Abreu Araujo, D.Adams, B.Amadon, T.Applencourt,
- C.Audouze, J.-M.Beuken, J.Bieder, A.Bokhanchuk, E.Bousquet, F.Bruneval
- D.Caliste, M.Cote, F.Dahm, F.Da Pieve, M.Delaveau, M.Di Gennaro,
- B.Dorado, C.Espejo, G.Geneste, L.Genovese, A.Gerossier, M.Giantomassi,
- Y.Gillet, D.R.Hamann, L.He, G.Jomard, J.Laflamme Janssen, S.Le Roux,
- A.Levitt, A.Lherbier, F.Liu, I.Lukacevic, A.Martin, C.Martins,
- M.J.T.Oliveira, S.Ponce, Y.Pouillon, T.Rangel, G.-M.Rignanese,
- A.H.Romero, B.Rousseau, O.Rubel, A.A.Shukri, M.Stankovski, M.Torrent,
- M.J.Van Setten, B.Van Troeye, M.J.Verstraete, D.Waroquier, J.Wiktor,
- B.Xu, A.Zhou, J.W.Zwanziger.
- Comment: the fourth generic paper describing the ABINIT project.
- Note that a version of this paper, that is not formatted for Computer Phys. Comm. 
- is available at https://www.abinit.org/sites/default/files/ABINIT16.pdf .
- The licence allows the authors to put it on the Web.
- DOI and bibtex: see https://docs.abinit.org/theory/bibliography/#gonze2016
-
- Proc.   0 individual time (sec): cpu=      10377.2  wall=      10377.4

================================================================================

 Calculation completed.
.Delivered   0 WARNINGs and  10 COMMENTs to log file.
+Overall time at end (sec) : cpu=      62263.4  wall=      62264.7
