
.Version 9.2.2 of ABINIT 
.(MPI version, prepared for a x86_64_linux_gnu9.3 computer) 

.Copyright (C) 1998-2020 ABINIT group . 
 ABINIT comes with ABSOLUTELY NO WARRANTY.
 It is free software, and you are welcome to redistribute it
 under certain conditions (GNU General Public License,
 see ~abinit/COPYING or http://www.gnu.org/copyleft/gpl.txt).

 ABINIT is a project of the Universite Catholique de Louvain,
 Corning Inc. and other collaborators, see ~abinit/doc/developers/contributors.txt .
 Please read https://docs.abinit.org/theory/acknowledgments for suggested
 acknowledgments of the ABINIT effort.
 For more information, see https://www.abinit.org .

.Starting date : Wed 14 Dec 2022.
- ( at 13h10 )
  
- The starting date is more than 2 years after the initial release
- of this version of ABINIT, namely Nov 2020.
- Note that the use beyond 3 years after the release will not be supported.
- Action: please, switch to a more recent version of ABINIT.

- input  file    -> Cs2TiI6.in
- output file    -> Cs2TiI6.out
- root for input  files -> Cs2TiI6i
- root for output files -> Cs2TiI6o

- inpspheads : Reading pseudopotential header in XML form from 
-   ../../../Psps_for_tests/ATOMICDATA/Cs.GGA_PBE-JTH.xml
- inpspheads : Reading pseudopotential header in XML form from 
-   ../../../Psps_for_tests/ATOMICDATA/I.GGA_PBE-JTH.xml
- inpspheads : Reading pseudopotential header in XML form from 
-   ../../../Psps_for_tests/ATOMICDATA/Zr.GGA_PBE-JTH.xml
- inpspheads : Reading pseudopotential header in XML form from 
-   ../../../Psps_for_tests/ATOMICDATA/Cl.GGA_PBE-JTH.xml

 DATASET    1 : space group Im m 2 (# 44); Bravais oI (body-center ortho.)
================================================================================
 Values of the parameters that define the memory need for DATASET  1.
     intxc =       0    ionmov =       2      iscf =      17    lmnmax =      18
     lnmax =       6     mgfft =      64  mpssoang =       3    mqgrid =    3850
     natom =       9  nloc_mem =       2    nspden =       1   nspinor =       1
    nsppol =       1      nsym =       4    n1xccc =       1    ntypat =       4
    occopt =       1   xclevel =       2
-    mband =          42        mffmem =           1         mkmem =           7
       mpw =        9575          nfft =      262144          nkpt =          40
Pmy_natom=         2
 PAW method is used; the additional fine FFT grid is defined by:
   mgfftf=        96    nfftf =    884736
================================================================================
P This job should need less than                     321.532 Mbytes of memory.
  Rough estimation (10% accuracy) of disk space for files :
_ WF disk file :    245.455 Mbytes ; DEN or POT disk file :      6.752 Mbytes.
================================================================================


 DATASET    2 : space group Im m 2 (# 44); Bravais oI (body-center ortho.)
================================================================================
 Values of the parameters that define the memory need for DATASET  2.
     intxc =       0    ionmov =       2      iscf =      17    lmnmax =      18
     lnmax =       6     mgfft =      64  mpssoang =       3    mqgrid =    3846
     natom =       9  nloc_mem =       2    nspden =       1   nspinor =       1
    nsppol =       1      nsym =       4    n1xccc =       1    ntypat =       4
    occopt =       1   xclevel =       2
-    mband =          42        mffmem =           1         mkmem =           7
       mpw =        9525          nfft =      262144          nkpt =          40
Pmy_natom=         2
 PAW method is used; the additional fine FFT grid is defined by:
   mgfftf=        96    nfftf =    884736
================================================================================
P This job should need less than                     321.349 Mbytes of memory.
  Rough estimation (10% accuracy) of disk space for files :
_ WF disk file :    244.173 Mbytes ; DEN or POT disk file :      6.752 Mbytes.
================================================================================


 DATASET    3 : space group Im m 2 (# 44); Bravais oI (body-center ortho.)
================================================================================
 Values of the parameters that define the memory need for DATASET  3.
     intxc =       0    ionmov =       2      iscf =      17    lmnmax =      18
     lnmax =       6     mgfft =      64  mpssoang =       3    mqgrid =    3842
     natom =       9  nloc_mem =       2    nspden =       1   nspinor =       1
    nsppol =       1      nsym =       4    n1xccc =       1    ntypat =       4
    occopt =       1   xclevel =       2
-    mband =          42        mffmem =           1         mkmem =           7
       mpw =        9492          nfft =      262144          nkpt =          40
Pmy_natom=         2
 PAW method is used; the additional fine FFT grid is defined by:
   mgfftf=        96    nfftf =    884736
================================================================================
P This job should need less than                     321.251 Mbytes of memory.
  Rough estimation (10% accuracy) of disk space for files :
_ WF disk file :    243.327 Mbytes ; DEN or POT disk file :      6.752 Mbytes.
================================================================================


 DATASET    4 : space group Im m 2 (# 44); Bravais oI (body-center ortho.)
================================================================================
 Values of the parameters that define the memory need for DATASET  4.
     intxc =       0    ionmov =       2      iscf =      17    lmnmax =      18
     lnmax =       6     mgfft =      64  mpssoang =       3    mqgrid =    3838
     natom =       9  nloc_mem =       2    nspden =       1   nspinor =       1
    nsppol =       1      nsym =       4    n1xccc =       1    ntypat =       4
    occopt =       1   xclevel =       2
-    mband =          42        mffmem =           1         mkmem =           7
       mpw =        9460          nfft =      262144          nkpt =          40
Pmy_natom=         2
 PAW method is used; the additional fine FFT grid is defined by:
   mgfftf=        96    nfftf =    884736
================================================================================
P This job should need less than                     321.158 Mbytes of memory.
  Rough estimation (10% accuracy) of disk space for files :
_ WF disk file :    242.507 Mbytes ; DEN or POT disk file :      6.752 Mbytes.
================================================================================


 DATASET    5 : space group Im m 2 (# 44); Bravais oI (body-center ortho.)
================================================================================
 Values of the parameters that define the memory need for DATASET  5.
     intxc =       0    ionmov =       2      iscf =      17    lmnmax =      18
     lnmax =       6     mgfft =      60  mpssoang =       3    mqgrid =    3834
     natom =       9  nloc_mem =       2    nspden =       1   nspinor =       1
    nsppol =       1      nsym =       4    n1xccc =       1    ntypat =       4
    occopt =       1   xclevel =       2
-    mband =          42        mffmem =           1         mkmem =           7
       mpw =        9431          nfft =      216000          nkpt =          40
Pmy_natom=         2
 PAW method is used; the additional fine FFT grid is defined by:
   mgfftf=        96    nfftf =    884736
================================================================================
P This job should need less than                     314.214 Mbytes of memory.
  Rough estimation (10% accuracy) of disk space for files :
_ WF disk file :    241.763 Mbytes ; DEN or POT disk file :      6.752 Mbytes.
================================================================================


 DATASET    6 : space group Im m 2 (# 44); Bravais oI (body-center ortho.)
================================================================================
 Values of the parameters that define the memory need for DATASET  6.
     intxc =       0    ionmov =       2      iscf =      17    lmnmax =      18
     lnmax =       6     mgfft =      60  mpssoang =       3    mqgrid =    3830
     natom =       9  nloc_mem =       2    nspden =       1   nspinor =       1
    nsppol =       1      nsym =       4    n1xccc =       1    ntypat =       4
    occopt =       1   xclevel =       2
-    mband =          42        mffmem =           1         mkmem =           7
       mpw =        9401          nfft =      216000          nkpt =          40
Pmy_natom=         2
 PAW method is used; the additional fine FFT grid is defined by:
   mgfftf=        96    nfftf =    884736
================================================================================
P This job should need less than                     314.131 Mbytes of memory.
  Rough estimation (10% accuracy) of disk space for files :
_ WF disk file :    240.994 Mbytes ; DEN or POT disk file :      6.752 Mbytes.
================================================================================


 DATASET    7 : space group Im m 2 (# 44); Bravais oI (body-center ortho.)
================================================================================
 Values of the parameters that define the memory need for DATASET  7.
     intxc =       0    ionmov =       2      iscf =      17    lmnmax =      18
     lnmax =       6     mgfft =      60  mpssoang =       3    mqgrid =    3827
     natom =       9  nloc_mem =       2    nspden =       1   nspinor =       1
    nsppol =       1      nsym =       4    n1xccc =       1    ntypat =       4
    occopt =       1   xclevel =       2
-    mband =          42        mffmem =           1         mkmem =           7
       mpw =        9374          nfft =      216000          nkpt =          40
Pmy_natom=         2
 PAW method is used; the additional fine FFT grid is defined by:
   mgfftf=        96    nfftf =    884736
================================================================================
P This job should need less than                     314.065 Mbytes of memory.
  Rough estimation (10% accuracy) of disk space for files :
_ WF disk file :    240.302 Mbytes ; DEN or POT disk file :      6.752 Mbytes.
================================================================================


 DATASET    8 : space group Im m 2 (# 44); Bravais oI (body-center ortho.)
================================================================================
 Values of the parameters that define the memory need for DATASET  8.
     intxc =       0    ionmov =       2      iscf =      17    lmnmax =      18
     lnmax =       6     mgfft =      60  mpssoang =       3    mqgrid =    3823
     natom =       9  nloc_mem =       2    nspden =       1   nspinor =       1
    nsppol =       1      nsym =       4    n1xccc =       1    ntypat =       4
    occopt =       1   xclevel =       2
-    mband =          42        mffmem =           1         mkmem =           7
       mpw =        9346          nfft =      216000          nkpt =          40
Pmy_natom=         2
 PAW method is used; the additional fine FFT grid is defined by:
   mgfftf=        96    nfftf =    884736
================================================================================
P This job should need less than                     313.994 Mbytes of memory.
  Rough estimation (10% accuracy) of disk space for files :
_ WF disk file :    239.585 Mbytes ; DEN or POT disk file :      6.752 Mbytes.
================================================================================


 DATASET    9 : space group Im m 2 (# 44); Bravais oI (body-center ortho.)
================================================================================
 Values of the parameters that define the memory need for DATASET  9.
     intxc =       0    ionmov =       2      iscf =      17    lmnmax =      18
     lnmax =       6     mgfft =      60  mpssoang =       3    mqgrid =    3819
     natom =       9  nloc_mem =       2    nspden =       1   nspinor =       1
    nsppol =       1      nsym =       4    n1xccc =       1    ntypat =       4
    occopt =       1   xclevel =       2
-    mband =          42        mffmem =           1         mkmem =           7
       mpw =        9318          nfft =      216000          nkpt =          40
Pmy_natom=         2
 PAW method is used; the additional fine FFT grid is defined by:
   mgfftf=        96    nfftf =    884736
================================================================================
P This job should need less than                     313.923 Mbytes of memory.
  Rough estimation (10% accuracy) of disk space for files :
_ WF disk file :    238.867 Mbytes ; DEN or POT disk file :      6.752 Mbytes.
================================================================================


 DATASET   10 : space group Im m 2 (# 44); Bravais oI (body-center ortho.)
================================================================================
 Values of the parameters that define the memory need for DATASET 10.
     intxc =       0    ionmov =       2      iscf =      17    lmnmax =      18
     lnmax =       6     mgfft =      60  mpssoang =       3    mqgrid =    3815
     natom =       9  nloc_mem =       2    nspden =       1   nspinor =       1
    nsppol =       1      nsym =       4    n1xccc =       1    ntypat =       4
    occopt =       1   xclevel =       2
-    mband =          42        mffmem =           1         mkmem =           7
       mpw =        9290          nfft =      216000          nkpt =          40
Pmy_natom=         2
 PAW method is used; the additional fine FFT grid is defined by:
   mgfftf=        96    nfftf =    884736
================================================================================
P This job should need less than                     313.852 Mbytes of memory.
  Rough estimation (10% accuracy) of disk space for files :
_ WF disk file :    238.149 Mbytes ; DEN or POT disk file :      6.752 Mbytes.
================================================================================

--------------------------------------------------------------------------------
------------- Echo of variables that govern the present computation ------------
--------------------------------------------------------------------------------
-
- outvars: echo of selected default values                                      
-   iomode0 =  0 , fftalg0 =112 , wfoptalg0 = 10
-
- outvars: echo of global parameters not present in the input file              
-  max_nthreads =    0
-
 -outvars: echo values of preprocessed input variables --------
            acell1     1.4227877532E+01  1.4532954246E+01  1.4227877532E+01 Bohr
            acell2     1.4213635413E+01  1.4518406745E+01  1.4213635413E+01 Bohr
            acell3     1.4199393293E+01  1.4503859243E+01  1.4199393293E+01 Bohr
            acell4     1.4185151173E+01  1.4489311741E+01  1.4185151173E+01 Bohr
            acell5     1.4170909054E+01  1.4474764239E+01  1.4170909054E+01 Bohr
            acell6     1.4156666934E+01  1.4460216738E+01  1.4156666934E+01 Bohr
            acell7     1.4142424814E+01  1.4445669236E+01  1.4142424814E+01 Bohr
            acell8     1.4128182695E+01  1.4431121734E+01  1.4128182695E+01 Bohr
            acell9     1.4113940575E+01  1.4416574232E+01  1.4113940575E+01 Bohr
            acell10    1.4099698455E+01  1.4402026731E+01  1.4099698455E+01 Bohr
              amu      1.32905430E+02  1.26904470E+02  9.12240000E+01
                       3.54527000E+01
           diemac      1.20000000E+01
          dilatmx      1.15000000E+00
             ecut      1.60000000E+01 Hartree
           ecutsm      5.00000000E-01 Hartree
-          fftalg         112
           ionmov           2
              ixc     -101130
           jdtset        1    2    3    4    5    6    7    8    9   10
              kpt      0.00000000E+00 -1.25000000E-01  0.00000000E+00
                       0.00000000E+00 -3.75000000E-01  0.00000000E+00
                       1.25000000E-01 -2.50000000E-01  0.00000000E+00
                       2.50000000E-01 -1.25000000E-01  0.00000000E+00
                       1.25000000E-01 -1.25000000E-01  1.25000000E-01
                       1.25000000E-01  5.00000000E-01  0.00000000E+00
                       2.50000000E-01 -3.75000000E-01  0.00000000E+00
                       3.75000000E-01 -2.50000000E-01  0.00000000E+00
                       5.00000000E-01 -1.25000000E-01  0.00000000E+00
                       1.25000000E-01 -3.75000000E-01  1.25000000E-01
                       2.50000000E-01 -2.50000000E-01  1.25000000E-01
                       3.75000000E-01 -1.25000000E-01  1.25000000E-01
                       2.50000000E-01 -1.25000000E-01  2.50000000E-01
                       1.25000000E-01  2.50000000E-01  0.00000000E+00
                       2.50000000E-01  3.75000000E-01  0.00000000E+00
                       3.75000000E-01  5.00000000E-01  0.00000000E+00
                       5.00000000E-01 -3.75000000E-01  0.00000000E+00
                      -3.75000000E-01 -2.50000000E-01  0.00000000E+00
                      -2.50000000E-01 -1.25000000E-01  0.00000000E+00
                       1.25000000E-01  3.75000000E-01  1.25000000E-01
                       2.50000000E-01  5.00000000E-01  1.25000000E-01
                       3.75000000E-01 -3.75000000E-01  1.25000000E-01
                       5.00000000E-01 -2.50000000E-01  1.25000000E-01
                      -3.75000000E-01 -1.25000000E-01  1.25000000E-01
                       2.50000000E-01 -3.75000000E-01  2.50000000E-01
                       3.75000000E-01 -2.50000000E-01  2.50000000E-01
                       5.00000000E-01 -1.25000000E-01  2.50000000E-01
                       3.75000000E-01 -1.25000000E-01  3.75000000E-01
                       1.25000000E-01  0.00000000E+00  0.00000000E+00
                       3.75000000E-01  0.00000000E+00  0.00000000E+00
                       2.50000000E-01  0.00000000E+00  1.25000000E-01
                       5.00000000E-01  2.50000000E-01  1.25000000E-01
                      -3.75000000E-01  3.75000000E-01  1.25000000E-01
                      -2.50000000E-01  5.00000000E-01  1.25000000E-01
                      -1.25000000E-01 -3.75000000E-01  1.25000000E-01
                       5.00000000E-01  0.00000000E+00  1.25000000E-01
                       3.75000000E-01  0.00000000E+00  2.50000000E-01
                      -2.50000000E-01  0.00000000E+00  1.25000000E-01
                      -3.75000000E-01  0.00000000E+00  2.50000000E-01
                       5.00000000E-01  0.00000000E+00  3.75000000E-01
         kptrlatt        4    4   -4     -4    4    4      4   -4    4
          kptrlen1     7.99902442E+01
          kptrlen2     7.99101739E+01
          kptrlen3     7.98301036E+01
          kptrlen4     7.97500333E+01
          kptrlen5     7.96699630E+01
          kptrlen6     7.95898927E+01
          kptrlen7     7.95098223E+01
          kptrlen8     7.94297520E+01
          kptrlen9     7.93496817E+01
          kptrlen10    7.92696114E+01
P           mkmem           7
            natom           9
            nband          42
           ndtset          10
            ngfft1         64      64      64
            ngfft2         64      64      64
            ngfft3         64      64      64
            ngfft4         64      64      64
            ngfft5         60      60      60
            ngfft6         60      60      60
            ngfft7         60      60      60
            ngfft8         60      60      60
            ngfft9         60      60      60
            ngfft10        60      60      60
          ngfftdg          96      96      96
             nkpt          40
            nstep        2500
             nsym           4
            ntime        1000
           ntypat           4
              occ      2.000000  2.000000  2.000000  2.000000  2.000000  2.000000
                       2.000000  2.000000  2.000000  2.000000  2.000000  2.000000
                       2.000000  2.000000  2.000000  2.000000  2.000000  2.000000
                       2.000000  2.000000  2.000000  2.000000  2.000000  2.000000
                       2.000000  2.000000  2.000000  2.000000  2.000000  2.000000
                       2.000000  2.000000  2.000000  2.000000  2.000000  2.000000
                       0.000000  0.000000  0.000000  0.000000  0.000000  0.000000
          optcell           3
        optforces           1
        pawecutdg      4.00000000E+01 Hartree
            prtwf           0
            rprim      1.0925397199E-02  7.0275981127E-01  7.1134329501E-01
                       7.0710678119E-01  0.0000000000E+00  7.0710678119E-01
                       7.1134329501E-01  7.0275981127E-01  1.0925397199E-02
           shiftk     -5.00000000E-01  5.00000000E-01  5.00000000E-01
          spgroup          44
           symrel      1  0  0   0  1  0   0  0  1       0  1 -1   0  1  0  -1  1  0
                       0  0 -1   0 -1  0  -1  0  0       1 -1  0   0 -1  0   0 -1  1
           toldff      1.00000000E-08
           tolmxf      1.00000000E-05
            typat      1  1  2  4  2  4  4  4  3
           useylm           1
              wtk        0.01563    0.01563    0.03125    0.03125    0.01563    0.03125
                         0.03125    0.03125    0.03125    0.01563    0.03125    0.03125
                         0.01563    0.03125    0.03125    0.03125    0.03125    0.03125
                         0.03125    0.01563    0.03125    0.03125    0.03125    0.03125
                         0.01563    0.03125    0.03125    0.01563    0.01563    0.01563
                         0.01563    0.03125    0.03125    0.03125    0.03125    0.01563
                         0.01563    0.01563    0.01563    0.01563
           xangst1     2.7742260108E+00  2.5640969459E+00  2.6637844603E+00
                       8.2122364820E+00  8.0181565938E+00  8.1017949314E+00
                       5.3478772215E+00  5.2911267699E+00  2.8678977488E+00
                       5.5121105641E+00  5.2911267699E+00  8.2539750002E+00
                       8.0081231935E+00  5.2911267699E+00  5.5281437208E+00
                       5.4698052303E+00  8.1239041815E+00  5.4062157119E+00
                       5.4698052303E+00  2.4583493582E+00  5.4062157120E+00
                       2.6220459421E+00  5.2911267699E+00  5.3639103782E+00
                       8.7853894549E-02 -4.3632114305E-18 -8.7853894549E-02
           xangst2     2.7714490078E+00  2.5615302823E+00  2.6611180094E+00
                       8.2040160250E+00  8.0101304111E+00  8.0936850266E+00
                       5.3425239910E+00  5.2858303467E+00  2.8650269802E+00
                       5.5065929359E+00  5.2858303467E+00  8.2457127630E+00
                       8.0001070542E+00  5.2858303467E+00  5.5226100434E+00
                       5.4643299498E+00  8.1157721453E+00  5.4008040846E+00
                       5.4643299498E+00  2.4558885481E+00  5.4008040846E+00
                       2.6194212715E+00  5.2858303467E+00  5.3585410985E+00
                       8.7765952712E-02 -2.4169126381E-18 -8.7765952712E-02
           xangst3     2.7686720048E+00  2.5589636186E+00  2.6584515585E+00
                       8.1957955681E+00  8.0021042283E+00  8.0855751218E+00
                       5.3371707606E+00  5.2805339235E+00  2.8621562117E+00
                       5.5010753077E+00  5.2805339235E+00  8.2374505257E+00
                       7.9920909149E+00  5.2805339235E+00  5.5170763660E+00
                       5.4588546693E+00  8.1076401091E+00  5.3953924573E+00
                       5.4588546693E+00  2.4534277379E+00  5.3953924573E+00
                       2.6167966009E+00  5.2805339235E+00  5.3531718189E+00
                       8.7678010876E-02 -2.1488353378E-17 -8.7678010876E-02
           xangst4     2.7658950018E+00  2.5563969550E+00  2.6557851076E+00
                       8.1875751112E+00  7.9940780455E+00  8.0774652169E+00
                       5.3318175301E+00  5.2752375003E+00  2.8592854432E+00
                       5.4955576795E+00  5.2752375003E+00  8.2291882885E+00
                       7.9840747755E+00  5.2752375003E+00  5.5115426886E+00
                       5.4533793888E+00  8.0995080728E+00  5.3899808299E+00
                       5.4533793888E+00  2.4509669277E+00  5.3899808299E+00
                       2.6141719302E+00  5.2752375003E+00  5.3478025392E+00
                       8.7590069040E-02 -4.8911878773E-18 -8.7590069040E-02
           xangst5     2.7631179988E+00  2.5538302914E+00  2.6531186567E+00
                       8.1793546542E+00  7.9860518627E+00  8.0693553121E+00
                       5.3264642997E+00  5.2699410771E+00  2.8564146747E+00
                       5.4900400513E+00  5.2699410771E+00  8.2209260513E+00
                       7.9760586362E+00  5.2699410771E+00  5.5060090112E+00
                       5.4479041083E+00  8.0913760366E+00  5.3845692026E+00
                       5.4479041083E+00  2.4485061175E+00  5.3845692026E+00
                       2.6115472596E+00  5.2699410771E+00  5.3424332596E+00
                       8.7502127203E-02 -2.3925877299E-17 -8.7502127203E-02
           xangst6     2.7603409958E+00  2.5512636278E+00  2.6504522057E+00
                       8.1711341973E+00  7.9780256800E+00  8.0612454073E+00
                       5.3211110692E+00  5.2646446539E+00  2.8535439062E+00
                       5.4845224231E+00  5.2646446539E+00  8.2126638140E+00
                       7.9680424969E+00  5.2646446539E+00  5.5004753338E+00
                       5.4424288278E+00  8.0832440004E+00  5.3791575753E+00
                       5.4424288278E+00  2.4460453074E+00  5.3791575753E+00
                       2.6089225890E+00  5.2646446539E+00  5.3370639799E+00
                       8.7414185367E-02  2.5587560258E-17 -8.7414185367E-02
           xangst7     2.7575639928E+00  2.5486969642E+00  2.6477857548E+00
                       8.1629137403E+00  7.9699994972E+00  8.0531355024E+00
                       5.3157578388E+00  5.2593482307E+00  2.8506731377E+00
                       5.4790047949E+00  5.2593482307E+00  8.2044015768E+00
                       7.9600263575E+00  5.2593482307E+00  5.4949416564E+00
                       5.4369535473E+00  8.0751119642E+00  5.3737459479E+00
                       5.4369535473E+00  2.4435844972E+00  5.3737459479E+00
                       2.6062979184E+00  5.2593482307E+00  5.3316947003E+00
                       8.7326243531E-02  2.0286406113E-17 -8.7326243531E-02
           xangst8     2.7547869897E+00  2.5461303006E+00  2.6451193039E+00
                       8.1546932834E+00  7.9619733144E+00  8.0450255976E+00
                       5.3104046083E+00  5.2540518075E+00  2.8478023691E+00
                       5.4734871667E+00  5.2540518075E+00  8.1961393395E+00
                       7.9520102182E+00  5.2540518075E+00  5.4894079790E+00
                       5.4314782667E+00  8.0669799280E+00  5.3683343206E+00
                       5.4314782668E+00  2.4411236870E+00  5.3683343206E+00
                       2.6036732478E+00  5.2540518075E+00  5.3263254206E+00
                       8.7238301694E-02  4.8478796713E-18 -8.7238301694E-02
           xangst9     2.7520099867E+00  2.5435636370E+00  2.6424528530E+00
                       8.1464728265E+00  7.9539471316E+00  8.0369156928E+00
                       5.3050513779E+00  5.2487553843E+00  2.8449316006E+00
                       5.4679695385E+00  5.2487553843E+00  8.1878771023E+00
                       7.9439940789E+00  5.2487553843E+00  5.4838743016E+00
                       5.4260029862E+00  8.0588478917E+00  5.3629226932E+00
                       5.4260029863E+00  2.4386628769E+00  5.3629226932E+00
                       2.6010485772E+00  5.2487553843E+00  5.3209561409E+00
                       8.7150359858E-02  3.1245128467E-18 -8.7150359858E-02
           xangst10    2.7492329837E+00  2.5409969734E+00  2.6397864021E+00
                       8.1382523695E+00  7.9459209489E+00  8.0288057879E+00
                       5.2996981474E+00  5.2434589611E+00  2.8420608321E+00
                       5.4624519104E+00  5.2434589611E+00  8.1796148651E+00
                       7.9359779395E+00  5.2434589611E+00  5.4783406242E+00
                       5.4205277057E+00  8.0507158555E+00  5.3575110659E+00
                       5.4205277057E+00  2.4362020667E+00  5.3575110659E+00
                       2.5984239066E+00  5.2434589611E+00  5.3155868613E+00
                       8.7062418021E-02  2.3736044320E-18 -8.7062418021E-02
            xcart1     5.2425273912E+00  4.8454410059E+00  5.0338231070E+00
                       1.5518877889E+01  1.5152120053E+01  1.5310173605E+01
                       1.0106023341E+01  9.9987805294E+00  5.4195413223E+00
                       1.0416379380E+01  9.9987805294E+00  1.5597752258E+01
                       1.5133159674E+01  9.9987805294E+00  1.0446677656E+01
                       1.0336433886E+01  1.5351954033E+01  1.0216267111E+01
                       1.0336433886E+01  4.6456070260E+00  1.0216267111E+01
                       4.9549487384E+00  9.9987805294E+00  1.0136321616E+01
                       1.6601980040E-01 -8.2452746635E-18 -1.6601980040E-01
            xcart2     5.2372796161E+00  4.8405907146E+00  5.0287842450E+00
                       1.5503343477E+01  1.5136952766E+01  1.5294848106E+01
                       1.0095907201E+01  9.9887717401E+00  5.4141163560E+00
                       1.0405952574E+01  9.9887717401E+00  1.5582138892E+01
                       1.5118011366E+01  9.9887717401E+00  1.0436220521E+01
                       1.0326087105E+01  1.5336586711E+01  1.0206040617E+01
                       1.0326087105E+01  4.6409567687E+00  1.0206040617E+01
                       4.9499888297E+00  9.9887717401E+00  1.0126175148E+01
                       1.6585361442E-01 -4.5673029731E-18 -1.6585361442E-01
            xcart3     5.2320318409E+00  4.8357404233E+00  5.0237453831E+00
                       1.5487809065E+01  1.5121785478E+01  1.5279522607E+01
                       1.0085791062E+01  9.9787629508E+00  5.4086913897E+00
                       1.0395525768E+01  9.9787629508E+00  1.5566525527E+01
                       1.5102863058E+01  9.9787629508E+00  1.0425763386E+01
                       1.0315740324E+01  1.5321219390E+01  1.0195814124E+01
                       1.0315740324E+01  4.6363065114E+00  1.0195814124E+01
                       4.9450289211E+00  9.9787629508E+00  1.0116028680E+01
                       1.6568742843E-01 -4.0607102931E-17 -1.6568742843E-01
            xcart4     5.2267840657E+00  4.8308901320E+00  5.0187065211E+00
                       1.5472274653E+01  1.5106618191E+01  1.5264197108E+01
                       1.0075674922E+01  9.9687541614E+00  5.4032664234E+00
                       1.0385098962E+01  9.9687541614E+00  1.5550912161E+01
                       1.5087714750E+01  9.9687541614E+00  1.0415306251E+01
                       1.0305393544E+01  1.5305852069E+01  1.0185587630E+01
                       1.0305393544E+01  4.6316562541E+00  1.0185587630E+01
                       4.9400690124E+00  9.9687541614E+00  1.0105882212E+01
                       1.6552124245E-01 -9.2430055526E-18 -1.6552124245E-01
            xcart5     5.2215362906E+00  4.8260398407E+00  5.0136676591E+00
                       1.5456740240E+01  1.5091450904E+01  1.5248871609E+01
                       1.0065558783E+01  9.9587453721E+00  5.3978414571E+00
                       1.0374672156E+01  9.9587453721E+00  1.5535298796E+01
                       1.5072566442E+01  9.9587453721E+00  1.0404849116E+01
                       1.0295046763E+01  1.5290484747E+01  1.0175361136E+01
                       1.0295046763E+01  4.6270059969E+00  1.0175361136E+01
                       4.9351091038E+00  9.9587453721E+00  1.0095735744E+01
                       1.6535505646E-01 -4.5213355584E-17 -1.6535505646E-01
            xcart6     5.2162885154E+00  4.8211895494E+00  5.0086287972E+00
                       1.5441205828E+01  1.5076283616E+01  1.5233546110E+01
                       1.0055442643E+01  9.9487365828E+00  5.3924164908E+00
                       1.0364245349E+01  9.9487365828E+00  1.5519685430E+01
                       1.5057418134E+01  9.9487365828E+00  1.0394391982E+01
                       1.0284699982E+01  1.5275117426E+01  1.0165134643E+01
                       1.0284699982E+01  4.6223557396E+00  1.0165134643E+01
                       4.9301491951E+00  9.9487365828E+00  1.0085589276E+01
                       1.6518887047E-01  4.8353481296E-17 -1.6518887047E-01
            xcart7     5.2110407402E+00  4.8163392581E+00  5.0035899352E+00
                       1.5425671416E+01  1.5061116329E+01  1.5218220611E+01
                       1.0045326504E+01  9.9387277935E+00  5.3869915245E+00
                       1.0353818543E+01  9.9387277935E+00  1.5504072064E+01
                       1.5042269826E+01  9.9387277935E+00  1.0383934847E+01
                       1.0274353202E+01  1.5259750105E+01  1.0154908149E+01
                       1.0274353202E+01  4.6177054823E+00  1.0154908149E+01
                       4.9251892865E+00  9.9387277935E+00  1.0075442808E+01
                       1.6502268449E-01  3.8335751774E-17 -1.6502268449E-01
            xcart8     5.2057929651E+00  4.8114889668E+00  4.9985510732E+00
                       1.5410137003E+01  1.5045949042E+01  1.5202895112E+01
                       1.0035210365E+01  9.9287190042E+00  5.3815665583E+00
                       1.0343391737E+01  9.9287190042E+00  1.5488458699E+01
                       1.5027121518E+01  9.9287190042E+00  1.0373477712E+01
                       1.0264006421E+01  1.5244382783E+01  1.0144681656E+01
                       1.0264006421E+01  4.6130552250E+00  1.0144681656E+01
                       4.9202293778E+00  9.9287190042E+00  1.0065296340E+01
                       1.6485649850E-01  9.1611649039E-18 -1.6485649850E-01
            xcart9     5.2005451899E+00  4.8066386755E+00  4.9935122113E+00
                       1.5394602591E+01  1.5030781754E+01  1.5187569612E+01
                       1.0025094225E+01  9.9187102149E+00  5.3761415920E+00
                       1.0332964931E+01  9.9187102149E+00  1.5472845333E+01
                       1.5011973210E+01  9.9187102149E+00  1.0363020577E+01
                       1.0253659640E+01  1.5229015462E+01  1.0134455162E+01
                       1.0253659640E+01  4.6084049677E+00  1.0134455162E+01
                       4.9152694692E+00  9.9187102149E+00  1.0055149871E+01
                       1.6469031251E-01  5.9044735790E-18 -1.6469031251E-01
            xcart10    5.1952974147E+00  4.8017883842E+00  4.9884733493E+00
                       1.5379068179E+01  1.5015614467E+01  1.5172244113E+01
                       1.0014978086E+01  9.9087014255E+00  5.3707166257E+00
                       1.0322538125E+01  9.9087014255E+00  1.5457231967E+01
                       1.4996824902E+01  9.9087014255E+00  1.0352563442E+01
                       1.0243312860E+01  1.5213648141E+01  1.0124228668E+01
                       1.0243312860E+01  4.6037547104E+00  1.0124228668E+01
                       4.9103095605E+00  9.9087014255E+00  1.0045003403E+01
                       1.6452412653E-01  4.4854623244E-18 -1.6452412653E-01
             xred      2.3183021597E-01  2.5769840174E-01  2.5277298055E-01
                       7.4722701945E-01  7.4230159826E-01  7.6816978403E-01
                       2.6486374011E-01  2.5540264347E-01  7.3513625989E-01
                       7.5996656655E-01  7.6572812220E-01  2.4003343345E-01
                       2.6486374011E-01  7.4459735653E-01  7.3513625989E-01
                       7.6166215592E-01  2.3230868066E-01  7.7372048276E-01
                       2.2627951724E-01  7.6769131934E-01  2.3833784408E-01
                       7.5996656655E-01  2.3427187780E-01  2.4003343345E-01
                      -1.6659521910E-02  6.1017313122E-19  1.6659521910E-02
            znucl       55.00000   53.00000   40.00000   17.00000

================================================================================

 chkinp: Checking input parameters for consistency, jdtset=   1.

 chkinp: Checking input parameters for consistency, jdtset=   2.

 chkinp: Checking input parameters for consistency, jdtset=   3.

 chkinp: Checking input parameters for consistency, jdtset=   4.

 chkinp: Checking input parameters for consistency, jdtset=   5.

 chkinp: Checking input parameters for consistency, jdtset=   6.

 chkinp: Checking input parameters for consistency, jdtset=   7.

 chkinp: Checking input parameters for consistency, jdtset=   8.

 chkinp: Checking input parameters for consistency, jdtset=   9.

 chkinp: Checking input parameters for consistency, jdtset=  10.

================================================================================
== DATASET  1 ==================================================================
-   mpi_nproc: 6, omp_nthreads: -1 (-1 if OMP is not activated)


--- !DatasetInfo
iteration_state: {dtset: 1, }
dimensions: {natom: 9, nkpt: 40, mband: 42, nsppol: 1, nspinor: 1, nspden: 1, mpw: 9575, }
cutoff_energies: {ecut:  16.0, pawecutdg:  40.0, }
electrons: {nelect:   7.20000000E+01, charge:   0.00000000E+00, occopt:   1.00000000E+00, tsmear:   1.00000000E-02, }
meta: {optdriver: 0, ionmov: 2, optcell: 3, iscf: 17, paral_kgb: 0, }
...

 Real(R)+Recip(G) space primitive vectors, cartesian coordinates (Bohr,Bohr^-1):
 R(1)=  0.1554452  9.9987805 10.1209053  G(1)= -0.0501733  0.0500061  0.0501733
 R(2)= 10.2763505  0.0000000 10.2763505  G(2)=  0.0486554 -0.0500061  0.0486554
 R(3)= 10.1209053  9.9987805  0.1554452  G(3)=  0.0501733  0.0500061 -0.0501733
 Unit cell volume ucvol=  2.0479214E+03 bohr^3
 Angles (23,13,12)=  5.92881269E+01  5.93751444E+01  5.92881269E+01 degrees

 Coarse grid specifications (used for wave-functions):

 getcut: wavevector=  0.0000  0.0000  0.0000  ngfft=  64  64  64
         ecut(hartree)=     21.160   => boxcut(ratio)=   2.12668

 Fine grid specifications (used for densities):

 getcut: wavevector=  0.0000  0.0000  0.0000  ngfft=  96  96  96
         ecut(hartree)=     52.900   => boxcut(ratio)=   2.01755

--- Pseudopotential description ------------------------------------------------
- pspini: atom type   1  psp file is ../../../Psps_for_tests/ATOMICDATA/Cs.GGA_PBE-JTH.xml
- pspatm: opening atomic psp file    ../../../Psps_for_tests/ATOMICDATA/Cs.GGA_PBE-JTH.xml
- pspatm : Reading pseudopotential header in XML form from ../../../Psps_for_tests/ATOMICDATA/Cs.GGA_PBE-JTH.xml
 Pseudopotential format is: paw10
 basis_size (lnmax)=  6 (lmn_size= 18), orbitals=   0   0   1   1   2   2
 Spheres core radius: rc_sph= 2.20660278
 1 radial meshes are used:
  - mesh 1: r(i)=AA*[exp(BB*(i-1))-1], size=1500 , AA= 0.15922E-03 BB= 0.87573E-02
 Shapefunction is SIN type: shapef(r)=[sin(pi*r/rshp)/(pi*r/rshp)]**2
 Radius for shape functions =  2.00394208
 mmax= 1500
 Radial grid used for partial waves is grid 1
 Radial grid used for projectors is grid 1
 Radial grid used for (t)core density is grid 1
 Radial grid used for Vloc is grid 1
 Radial grid used for pseudo valence density is grid 1
 Mesh size for Vloc has been set to 1341 to avoid numerical noise.
 Compensation charge density is not taken into account in XC energy/potential
 pspatm: atomic psp has been read  and splines computed

- pspini: atom type   2  psp file is ../../../Psps_for_tests/ATOMICDATA/I.GGA_PBE-JTH.xml
- pspatm: opening atomic psp file    ../../../Psps_for_tests/ATOMICDATA/I.GGA_PBE-JTH.xml
- pspatm : Reading pseudopotential header in XML form from ../../../Psps_for_tests/ATOMICDATA/I.GGA_PBE-JTH.xml
 Pseudopotential format is: paw10
 basis_size (lnmax)=  4 (lmn_size=  8), orbitals=   0   0   1   1
 Spheres core radius: rc_sph= 2.30022271
 1 radial meshes are used:
  - mesh 1: r(i)=AA*[exp(BB*(i-1))-1], size=2000 , AA= 0.12610E-03 BB= 0.66836E-02
 Shapefunction is SIN type: shapef(r)=[sin(pi*r/rshp)/(pi*r/rshp)]**2
 Radius for shape functions =  2.10879093
 mmax= 2000
 Radial grid used for partial waves is grid 1
 Radial grid used for projectors is grid 1
 Radial grid used for (t)core density is grid 1
 Radial grid used for Vloc is grid 1
 Radial grid used for pseudo valence density is grid 1
 Mesh size for Vloc has been set to 1792 to avoid numerical noise.
 Compensation charge density is not taken into account in XC energy/potential
 pspatm: atomic psp has been read  and splines computed

- pspini: atom type   3  psp file is ../../../Psps_for_tests/ATOMICDATA/Zr.GGA_PBE-JTH.xml
- pspatm: opening atomic psp file    ../../../Psps_for_tests/ATOMICDATA/Zr.GGA_PBE-JTH.xml
- pspatm : Reading pseudopotential header in XML form from ../../../Psps_for_tests/ATOMICDATA/Zr.GGA_PBE-JTH.xml
 Pseudopotential format is: paw10
 basis_size (lnmax)=  6 (lmn_size= 18), orbitals=   0   0   1   1   2   2
 Spheres core radius: rc_sph= 2.21000000
 1 radial meshes are used:
  - mesh 1: r(i)=AA*[exp(BB*(i-1))-1], size= 941 , AA= 0.35256E-03 BB= 0.14102E-01
 Shapefunction is BESSEL type: shapef(r,l)=aa(1,l)*jl(q(1,l)*r)+aa(2,l)*jl(q(2,l)*r)
 Radius for shape functions =  2.21000000
 mmax=  941
 Radial grid used for partial waves is grid 1
 Radial grid used for projectors is grid 1
 Radial grid used for (t)core density is grid 1
 Radial grid used for Vloc is grid 1
 Radial grid used for pseudo valence density is grid 1
 Mesh size for Vloc has been set to  777 to avoid numerical noise.
 Compensation charge density is not taken into account in XC energy/potential
 pspatm: atomic psp has been read  and splines computed

- pspini: atom type   4  psp file is ../../../Psps_for_tests/ATOMICDATA/Cl.GGA_PBE-JTH.xml
- pspatm: opening atomic psp file    ../../../Psps_for_tests/ATOMICDATA/Cl.GGA_PBE-JTH.xml
- pspatm : Reading pseudopotential header in XML form from ../../../Psps_for_tests/ATOMICDATA/Cl.GGA_PBE-JTH.xml
 Pseudopotential format is: paw10
 basis_size (lnmax)=  4 (lmn_size=  8), orbitals=   0   0   1   1
 Spheres core radius: rc_sph= 1.80315674
 1 radial meshes are used:
  - mesh 1: r(i)=AA*[exp(BB*(i-1))-1], size=1400 , AA= 0.50355E-03 BB= 0.85603E-02
 Shapefunction is SIN type: shapef(r)=[sin(pi*r/rshp)/(pi*r/rshp)]**2
 Radius for shape functions =  1.61320365
 mmax= 1400
 Radial grid used for partial waves is grid 1
 Radial grid used for projectors is grid 1
 Radial grid used for (t)core density is grid 1
 Radial grid used for Vloc is grid 1
 Radial grid used for pseudo valence density is grid 1
 Mesh size for Vloc has been set to 1238 to avoid numerical noise.
 Compensation charge density is not taken into account in XC energy/potential
 pspatm: atomic psp has been read  and splines computed

   2.17261008E+04                                ecore*ucvol(ha*bohr**3)
--------------------------------------------------------------------------------

_setup2: Arith. and geom. avg. npw (full set) are    9521.109    9521.104

================================================================================

=== [ionmov= 2] Broyden-Fletcher-Goldfard-Shanno method (forces)            
================================================================================

--- Iteration: (   1/1000) Internal Cycle: (1/1)
--------------------------------------------------------------------------------

---SELF-CONSISTENT-FIELD CONVERGENCE--------------------------------------------

--- !BeginCycle
iteration_state: {dtset: 1, itime: 1, icycle: 1, }
solver: {iscf: 17, nstep: 2500, nline: 4, wfoptalg: 10, }
tolerances: {toldff: 1.00E-08, }
...

     iter   Etot(hartree)      deltaE(h)  residm     nres2    diffor    maxfor
 ETOT  1  -172.64170165056    -1.726E+02 2.198E-01 2.872E+01 9.424E-02 9.424E-02
 ETOT  2  -172.80990180920    -1.682E-01 1.829E-02 6.300E+00 1.752E-01 8.092E-02
 ETOT  3  -172.80755571683     2.346E-03 2.450E-03 1.349E+00 7.044E-02 1.048E-02
 ETOT  4  -172.80828734279    -7.316E-04 2.554E-03 6.650E-02 1.016E-02 1.980E-02
 ETOT  5  -172.80811700694     1.703E-04 7.297E-04 7.780E-03 1.800E-02 1.793E-03
 ETOT  6  -172.80816351330    -4.651E-05 5.831E-04 6.477E-04 1.551E-03 5.282E-04
 ETOT  7  -172.80816655768    -3.044E-06 2.706E-04 1.554E-04 7.053E-04 3.364E-04
 ETOT  8  -172.80816799499    -1.437E-06 3.405E-04 2.740E-05 3.144E-04 6.245E-04
 ETOT  9  -172.80816815847    -1.635E-07 1.647E-04 3.678E-06 8.094E-05 5.435E-04
 ETOT 10  -172.80816818090    -2.244E-08 1.798E-04 5.236E-07 3.010E-05 5.691E-04
 ETOT 11  -172.80816818325    -2.348E-09 7.190E-05 1.705E-07 8.618E-06 5.605E-04
 ETOT 12  -172.80816818426    -1.003E-09 6.906E-05 3.189E-08 8.801E-06 5.636E-04
 ETOT 13  -172.80816818441    -1.510E-10 2.955E-05 8.717E-09 1.835E-06 5.639E-04
 ETOT 14  -172.80816818439     1.336E-11 3.358E-05 1.346E-09 1.008E-06 5.641E-04
 ETOT 15  -172.80816818440    -2.387E-12 1.462E-05 6.222E-10 1.172E-06 5.649E-04
 ETOT 16  -172.80816818439     7.134E-12 1.581E-05 5.806E-11 2.032E-07 5.647E-04
 ETOT 17  -172.80816818439     5.969E-13 7.983E-06 2.603E-11 1.445E-07 5.648E-04
 ETOT 18  -172.80816818439    -2.245E-12 7.612E-06 9.159E-12 3.331E-08 5.648E-04
 ETOT 19  -172.80816818439     4.604E-12 4.287E-06 3.607E-13 1.764E-08 5.648E-04
 ETOT 20  -172.80816818439    -3.013E-12 5.779E-06 2.998E-13 1.486E-08 5.648E-04
 ETOT 21  -172.80816818439     2.672E-12 3.057E-06 3.582E-14 5.521E-09 5.648E-04
 ETOT 22  -172.80816818439    -2.785E-12 4.344E-06 6.629E-14 4.714E-09 5.648E-04

 At SCF step   22, forces are converged : 
  for the second time, max diff in force=  4.714E-09 < toldff=  1.000E-08

 Cartesian components of stress tensor (hartree/bohr^3)
  sigma(1 1)= -8.30213977E-05  sigma(3 2)=  1.27425502E-14
  sigma(2 2)= -8.33816806E-05  sigma(3 1)=  8.13237093E-09
  sigma(3 3)= -8.30213977E-05  sigma(2 1)=  1.27424406E-14


--- !ResultsGS
iteration_state: {dtset: 1, itime: 1, icycle: 1, }
comment   : Summary of ground state results
lattice_vectors:
- [  0.1554452,   9.9987805,  10.1209053, ]
- [ 10.2763505,   0.0000000,  10.2763505, ]
- [ 10.1209053,   9.9987805,   0.1554452, ]
lattice_lengths: [  14.22788,   14.53295,   14.22788, ]
lattice_angles: [ 59.288,  59.375,  59.288, ] # degrees, (23, 13, 12)
lattice_volume:   2.0479214E+03
convergence: {deltae: -2.785E-12, res2:  6.629E-14, residm:  4.344E-06, diffor:  4.714E-09, }
etotal    :  -1.72808168E+02
entropy   :   0.00000000E+00
fermie    :   7.95986662E-03
cartesian_stress_tensor: # hartree/bohr^3
- [ -8.30213977E-05,   1.27424406E-14,   8.13237093E-09, ]
- [  1.27424406E-14,  -8.33816806E-05,   1.27425502E-14, ]
- [  8.13237093E-09,   1.27425502E-14,  -8.30213977E-05, ]
pressure_GPa:   2.4461E+00
xred      :
- [  2.3183E-01,   2.5770E-01,   2.5277E-01, Cs]
- [  7.4723E-01,   7.4230E-01,   7.6817E-01, Cs]
- [  2.6486E-01,   2.5540E-01,   7.3514E-01,  I]
- [  7.5997E-01,   7.6573E-01,   2.4003E-01, Cl]
- [  2.6486E-01,   7.4460E-01,   7.3514E-01,  I]
- [  7.6166E-01,   2.3231E-01,   7.7372E-01, Cl]
- [  2.2628E-01,   7.6769E-01,   2.3834E-01, Cl]
- [  7.5997E-01,   2.3427E-01,   2.4003E-01, Cl]
- [ -1.6660E-02,   6.1017E-19,   1.6660E-02, Zr]
cartesian_forces: # hartree/bohr
- [ -2.59958667E-06,  -5.03920894E-06,   2.59958667E-06, ]
- [ -2.59958667E-06,   5.03920894E-06,   2.59958667E-06, ]
- [ -1.74596973E-05,   9.35684416E-16,   3.91745426E-04, ]
- [ -1.94976532E-05,  -1.43993542E-15,  -5.56508918E-04, ]
- [ -3.91745426E-04,  -9.35686068E-16,   1.74596973E-05, ]
- [ -1.57437615E-05,  -5.64815147E-04,   1.57437615E-05, ]
- [ -1.57437615E-05,   5.64815147E-04,   1.57437615E-05, ]
- [  5.56508918E-04,   1.43988788E-15,   1.94976532E-05, ]
- [ -9.11194458E-05,  -5.28252822E-21,   9.11194458E-05, ]
force_length_stats: {min:   6.23773424E-06, max:   5.65253821E-04, mean:   3.52201648E-04, }
...

 Integrated electronic density in atomic spheres:
 ------------------------------------------------
 Atom  Sphere_radius  Integrated_density
    1        2.20660          5.37444966
    2        2.20660          5.37444966
    3        2.30022          4.03934061
    4        1.80316          4.36398707
    5        2.30022          4.03934061
    6        1.80316          4.37061167
    7        1.80316          4.37061167
    8        1.80316          4.36398707
    9        2.21000          8.83962585

 PAW TEST:
 ==== Compensation charge inside spheres ============
 The following values must be close to each other ...
 Compensation charge over spherical meshes =     -5.794484046434111
 Compensation charge over fine fft grid    =     -5.794477553195197

 ==== Results concerning PAW augmentation regions ====

 Total pseudopotential strength Dij (hartree):
 Atom #  1
   0.41549  -0.13773  -0.00000   0.00000  -0.00000   0.00000  -0.00001   0.00001  -0.00000   0.00000   0.00000   0.00000 ...
  -0.13773   0.04132   0.00000  -0.00000   0.00000  -0.00000   0.00000  -0.00000   0.00000  -0.00000  -0.00000  -0.00000 ...
  -0.00000   0.00000  -0.09053   0.00000  -0.00000  -0.16839  -0.00000   0.00000  -0.00000   0.00000   0.00000  -0.00000 ...
   0.00000  -0.00000   0.00000  -0.09053   0.00000  -0.00000  -0.16839  -0.00000  -0.00000  -0.00000   0.00000  -0.00000 ...
  -0.00000   0.00000  -0.00000   0.00000  -0.09053   0.00000  -0.00000  -0.16839  -0.00000  -0.00000   0.00000   0.00000 ...
   0.00000  -0.00000  -0.16839  -0.00000   0.00000   0.39652   0.00001  -0.00001   0.00000  -0.00000  -0.00000   0.00000 ...
  -0.00001   0.00000  -0.00000  -0.16839  -0.00000   0.00001   0.39652   0.00000   0.00000   0.00000  -0.00000   0.00000 ...
   0.00001  -0.00000   0.00000  -0.00000  -0.16839  -0.00001   0.00000   0.39652   0.00000   0.00000  -0.00000  -0.00000 ...
  -0.00000   0.00000  -0.00000  -0.00000  -0.00000   0.00000   0.00000   0.00000   0.00565   0.00000   0.00000   0.00000 ...
   0.00000  -0.00000   0.00000  -0.00000  -0.00000  -0.00000   0.00000   0.00000   0.00000   0.00565   0.00000  -0.00000 ...
   0.00000  -0.00000   0.00000   0.00000   0.00000  -0.00000  -0.00000  -0.00000   0.00000   0.00000   0.00565   0.00000 ...
   0.00000  -0.00000  -0.00000  -0.00000   0.00000   0.00000   0.00000  -0.00000   0.00000  -0.00000   0.00000   0.00565 ...
   ...  only 12  components have been written...
 Atom #  9
   3.05117  -0.88813   0.00000   0.00001  -0.00001   0.00000   0.00000  -0.00000   0.00000   0.00000  -0.00002   0.00001 ...
  -0.88813   0.26526   0.00000  -0.00001   0.00001   0.00000   0.00000  -0.00000   0.00000   0.00000   0.00000  -0.00000 ...
   0.00000   0.00000   0.27820   0.00000   0.00000  -0.05688   0.00000   0.00000   0.00009  -0.00009   0.00000   0.00000 ...
   0.00001  -0.00001   0.00000   0.27810   0.00001   0.00000  -0.05687  -0.00000   0.00000   0.00000  -0.00011   0.00009 ...
  -0.00001   0.00001   0.00000   0.00001   0.27810   0.00000  -0.00000  -0.05687   0.00000   0.00000  -0.00006  -0.00009 ...
   0.00000   0.00000  -0.05688   0.00000   0.00000   0.01548   0.00000   0.00000  -0.00002   0.00002   0.00000   0.00000 ...
   0.00000   0.00000   0.00000  -0.05687  -0.00000   0.00000   0.01548   0.00000   0.00000   0.00000   0.00002  -0.00002 ...
  -0.00000  -0.00000   0.00000  -0.00000  -0.05687   0.00000   0.00000   0.01548   0.00000   0.00000   0.00001   0.00002 ...
   0.00000   0.00000   0.00009   0.00000   0.00000  -0.00002   0.00000   0.00000  -0.00420   0.00000   0.00000   0.00000 ...
   0.00000   0.00000  -0.00009   0.00000   0.00000   0.00002   0.00000   0.00000   0.00000  -0.00420   0.00000   0.00000 ...
  -0.00002   0.00000   0.00000  -0.00011  -0.00006   0.00000   0.00002   0.00001   0.00000   0.00000  -0.00413   0.00000 ...
   0.00001  -0.00000   0.00000   0.00009  -0.00009   0.00000  -0.00002   0.00002   0.00000   0.00000   0.00000  -0.00423 ...
   ...  only 12  components have been written...


 Augmentation waves occupancies Rhoij:
 Atom #  1
   1.99855  -0.01270  -0.00007  -0.00003   0.00003  -0.00001   0.00003  -0.00003  -0.00415   0.00415   0.00077   0.00063 ...
  -0.01270   0.17896  -0.00051   0.00205  -0.00205   0.00004  -0.00003   0.00003   0.03490  -0.03490  -0.01078  -0.00137 ...
  -0.00007  -0.00051   2.01042  -0.00302   0.00302  -0.00517   0.00047  -0.00047  -0.00249   0.00249   0.00187  -0.00214 ...
  -0.00003   0.00205  -0.00302   2.00872  -0.00044   0.00047  -0.00484   0.00005  -0.00228   0.00156   0.00163   0.00015 ...
   0.00003  -0.00205   0.00302  -0.00044   2.00872  -0.00047   0.00005  -0.00484   0.00156  -0.00228   0.00195  -0.00015 ...
  -0.00001   0.00004  -0.00517   0.00047  -0.00047   0.00016  -0.00003   0.00003   0.00008  -0.00008  -0.00009   0.00007 ...
   0.00003  -0.00003   0.00047  -0.00484   0.00005  -0.00003   0.00012  -0.00000   0.00007  -0.00006  -0.00004  -0.00007 ...
  -0.00003   0.00003  -0.00047   0.00005  -0.00484   0.00003  -0.00000   0.00012  -0.00006   0.00007  -0.00009   0.00007 ...
  -0.00415   0.03490  -0.00249  -0.00228   0.00156   0.00008   0.00007  -0.00006   0.07446   0.00487  -0.02380  -0.00057 ...
   0.00415  -0.03490   0.00249   0.00156  -0.00228  -0.00008  -0.00006   0.00007   0.00487   0.07446  -0.01379   0.00057 ...
   0.00077  -0.01078   0.00187   0.00163   0.00195  -0.00009  -0.00004  -0.00009  -0.02380  -0.01379   0.04390  -0.00207 ...
   0.00063  -0.00137  -0.00214   0.00015  -0.00015   0.00007  -0.00007   0.00007  -0.00057   0.00057  -0.00207   0.03722 ...
   ...  only 12  components have been written...
 Atom #  9
   1.99319  -0.06826   0.00000   0.00006  -0.00006   0.00000   0.00113  -0.00113   0.00000   0.00000   0.00188  -0.00062 ...
  -0.06826   1.07272   0.00000   0.00416  -0.00416   0.00000  -0.03801   0.03801   0.00000   0.00000  -0.01917   0.00861 ...
   0.00000   0.00000   1.96498   0.00000   0.00000  -0.21265   0.00000   0.00000   0.00269  -0.00269   0.00000   0.00000 ...
   0.00006   0.00416   0.00000   1.96679  -0.00018   0.00000  -0.20040  -0.00084   0.00000   0.00000   0.00200   0.00290 ...
  -0.00006  -0.00416   0.00000  -0.00018   1.96679   0.00000  -0.00084  -0.20040   0.00000   0.00000   0.00111  -0.00290 ...
   0.00000   0.00000  -0.21265   0.00000   0.00000   1.88668   0.00000   0.00000  -0.04162   0.04162   0.00000   0.00000 ...
   0.00113  -0.03801   0.00000  -0.20040  -0.00084   0.00000   1.69547   0.02437   0.00000   0.00000  -0.16838  -0.06290 ...
  -0.00113   0.03801   0.00000  -0.00084  -0.20040   0.00000   0.02437   1.69547   0.00000   0.00000  -0.08693   0.06290 ...
   0.00000   0.00000   0.00269   0.00000   0.00000  -0.04162   0.00000   0.00000   0.52634   0.00126   0.00000   0.00000 ...
   0.00000   0.00000  -0.00269   0.00000   0.00000   0.04162   0.00000   0.00000   0.00126   0.52634   0.00000   0.00000 ...
   0.00188  -0.01917   0.00000   0.00200   0.00111   0.00000  -0.16838  -0.08693   0.00000   0.00000   1.51095   0.00584 ...
  -0.00062   0.00861   0.00000   0.00290  -0.00290   0.00000  -0.06290   0.06290   0.00000   0.00000   0.00584   0.51697 ...
   ...  only 12  components have been written...



---OUTPUT-----------------------------------------------------------------------

 Cartesian coordinates (xcart) [bohr]
  5.24252739121690E+00  4.84544100585187E+00  5.03382310700767E+00
  1.55188778894399E+01  1.51521200529592E+01  1.53101736052307E+01
  1.01060233408766E+01  9.99878052940555E+00  5.41954132227616E+00
  1.04163793803084E+01  9.99878052940555E+00  1.55977522580765E+01
  1.51331596741714E+01  9.99878052940555E+00  1.04466776555710E+01
  1.03364338855371E+01  1.53519540328209E+01  1.02162671108837E+01
  1.03364338855639E+01  4.64560702599020E+00  1.02162671109105E+01
  4.95494873837106E+00  9.99878052940555E+00  1.01363216161392E+01
  1.66019800404710E-01 -8.24527466351490E-18 -1.66019800404710E-01
 Reduced coordinates (xred)
  2.31830215970000E-01  2.57698401740000E-01  2.52772980550000E-01
  7.47227019450000E-01  7.42301598260000E-01  7.68169784030000E-01
  2.64863740110000E-01  2.55402643470000E-01  7.35136259890000E-01
  7.59966566550000E-01  7.65728122200000E-01  2.40033433450000E-01
  2.64863740110000E-01  7.44597356530000E-01  7.35136259890000E-01
  7.61662155920000E-01  2.32308680660000E-01  7.73720482760000E-01
  2.26279517240000E-01  7.67691319340000E-01  2.38337844080000E-01
  7.59966566550000E-01  2.34271877800000E-01  2.40033433450000E-01
 -1.66595219100000E-02  6.10173131216784E-19  1.66595219100000E-02
 Cartesian forces (fcart) [Ha/bohr]; max,rms= 5.64815E-04 2.42167E-04 (free atoms)
 -2.59958666837952E-06 -5.03920894066906E-06  2.59958666837951E-06
 -2.59958666837952E-06  5.03920894066904E-06  2.59958666837951E-06
 -1.74596973459974E-05  9.35684416204989E-16  3.91745425547278E-04
 -1.94976532334512E-05 -1.43993542201534E-15 -5.56508918146830E-04
 -3.91745425547278E-04 -9.35686068376090E-16  1.74596973459974E-05
 -1.57437614570687E-05 -5.64815147293386E-04  1.57437614570687E-05
 -1.57437614570687E-05  5.64815147293386E-04  1.57437614570687E-05
  5.56508918146830E-04  1.43988787521056E-15  1.94976532334512E-05
 -9.11194457692072E-05 -5.28252821622833E-21  9.11194457692072E-05
 Reduced forces (fred)
  2.44798670933776E-05  4.63352646109027E-20  7.62920213857588E-05
 -7.62920213857586E-05  4.63352646109027E-20 -2.44798670933774E-05
 -3.96210432137142E-03 -3.84629132948865E-03  1.15812991882770E-04
  5.63540486762441E-03  5.91924541679834E-03  2.83840549173926E-04
 -1.15812991882770E-04  3.84629132948864E-03  3.96210432137141E-03
  5.49056887129449E-03  4.34705998263439E-20  5.80435652364638E-03
 -5.80435652364638E-03  2.76012884105362E-20 -5.49056887129449E-03
 -2.83840549173926E-04 -5.91924541679834E-03 -5.63540486762441E-03
 -9.08047198552025E-04 -2.11214447625909E-20  9.08047198552025E-04
 Scale of Primitive Cell (acell) [bohr]
  1.42278775323480E+01  1.45329542462520E+01  1.42278775323480E+01
 Real space primitive translations (rprimd) [bohr]
  1.55445213339630E-01  9.99878052940555E+00  1.01209052848592E+01
  1.02763504982488E+01  0.00000000000000E+00  1.02763504982488E+01
  1.01209052848592E+01  9.99878052940555E+00  1.55445213339630E-01
 Unitary Cell Volume (ucvol) [Bohr^3]=  2.04792144296829E+03
 Angles (23,13,12)= [degrees]
  5.92881268644048E+01  5.93751443790551E+01  5.92881268644048E+01
 Lengths [Bohr]
  1.42278775323187E+01  1.45329542463230E+01  1.42278775323187E+01
 Stress tensor in cartesian coordinates (strten) [Ha/bohr^3]
 -8.30213976783702E-05  1.27424406163770E-14  8.13237093069430E-09
  1.27424406163770E-14 -8.33816805751921E-05  1.27425501863875E-14
  8.13237093069430E-09  1.27425501863875E-14 -8.30213976783702E-05
 Total energy (etotal) [Ha]= -1.72808168184389E+02

--- Iteration: (   2/1000) Internal Cycle: (1/1)
--------------------------------------------------------------------------------

---SELF-CONSISTENT-FIELD CONVERGENCE--------------------------------------------

--- !BeginCycle
iteration_state: {dtset: 1, itime: 2, icycle: 1, }
solver: {iscf: 17, nstep: 2500, nline: 4, wfoptalg: 10, }
tolerances: {toldff: 1.00E-08, }
...

     iter   Etot(hartree)      deltaE(h)  residm     nres2    diffor    maxfor
 ETOT  1  -172.80817426253    -1.728E+02 3.244E-06 9.541E-04 3.501E-03 4.057E-03
 ETOT  2  -172.80817009776     4.165E-06 2.408E-06 1.701E-04 3.963E-03 2.099E-04
 ETOT  3  -172.80816966353     4.342E-07 1.228E-06 1.051E-05 6.403E-04 7.348E-04
 ETOT  4  -172.80816965113     1.240E-08 1.942E-06 1.802E-06 1.992E-04 5.356E-04
 ETOT  5  -172.80816965472    -3.583E-09 1.001E-06 6.063E-07 1.465E-05 5.226E-04
 ETOT  6  -172.80816966085    -6.133E-09 1.572E-06 1.021E-07 2.597E-05 4.995E-04
 ETOT  7  -172.80816966417    -3.315E-09 8.099E-07 1.800E-08 9.521E-06 4.927E-04
 ETOT  8  -172.80816966613    -1.961E-09 1.269E-06 1.414E-09 4.148E-06 4.894E-04
 ETOT  9  -172.80816966639    -2.653E-10 6.539E-07 3.578E-10 2.762E-07 4.895E-04
 ETOT 10  -172.80816966660    -2.058E-10 1.024E-06 6.155E-11 5.394E-07 4.892E-04
 ETOT 11  -172.80816966665    -5.517E-11 5.273E-07 1.920E-11 1.719E-07 4.894E-04
 ETOT 12  -172.80816966676    -1.065E-10 8.252E-07 5.082E-12 8.699E-08 4.893E-04
 ETOT 13  -172.80816966679    -3.354E-11 4.247E-07 6.681E-13 2.884E-08 4.893E-04
 ETOT 14  -172.80816966683    -3.905E-11 6.642E-07 5.922E-13 5.458E-09 4.893E-04
 ETOT 15  -172.80816966686    -2.342E-11 3.417E-07 3.720E-14 7.000E-09 4.893E-04

 At SCF step   15, forces are converged : 
  for the second time, max diff in force=  7.000E-09 < toldff=  1.000E-08

 Cartesian components of stress tensor (hartree/bohr^3)
  sigma(1 1)= -8.27858943E-05  sigma(3 2)=  1.27418061E-14
  sigma(2 2)= -8.30835626E-05  sigma(3 1)=  1.66065973E-08
  sigma(3 3)= -8.27858943E-05  sigma(2 1)=  1.27427248E-14


--- !ResultsGS
iteration_state: {dtset: 1, itime: 2, icycle: 1, }
comment   : Summary of ground state results
lattice_vectors:
- [  0.1554397,   9.9988526,  10.1208687, ]
- [ 10.2763085,   0.0000000,  10.2763085, ]
- [ 10.1208687,   9.9988526,   0.1554397, ]
lattice_lengths: [  14.22790,   14.53289,   14.22790, ]
lattice_angles: [ 59.288,  59.375,  59.288, ] # degrees, (23, 13, 12)
lattice_volume:   2.0479214E+03
convergence: {deltae: -2.342E-11, res2:  3.720E-14, residm:  3.417E-07, diffor:  7.000E-09, }
etotal    :  -1.72808170E+02
entropy   :   0.00000000E+00
fermie    :   7.95506883E-03
cartesian_stress_tensor: # hartree/bohr^3
- [ -8.27858943E-05,   1.27427248E-14,   1.66065973E-08, ]
- [  1.27427248E-14,  -8.30835626E-05,   1.27418061E-14, ]
- [  1.66065973E-08,   1.27418061E-14,  -8.27858943E-05, ]
pressure_GPa:   2.4386E+00
xred      :
- [  2.3183E-01,   2.5770E-01,   2.5277E-01, Cs]
- [  7.4723E-01,   7.4230E-01,   7.6817E-01, Cs]
- [  2.6488E-01,   2.5542E-01,   7.3512E-01,  I]
- [  7.5994E-01,   7.6570E-01,   2.4006E-01, Cl]
- [  2.6488E-01,   7.4458E-01,   7.3512E-01,  I]
- [  7.6164E-01,   2.3234E-01,   7.7369E-01, Cl]
- [  2.2631E-01,   7.6766E-01,   2.3836E-01, Cl]
- [  7.5994E-01,   2.3430E-01,   2.4006E-01, Cl]
- [ -1.6650E-02,   6.1100E-19,   1.6650E-02, Zr]
cartesian_forces: # hartree/bohr
- [ -2.21950160E-06,  -5.14460744E-06,   2.21950160E-06, ]
- [ -2.21950160E-06,   5.14460744E-06,   2.21950160E-06, ]
- [ -1.69815504E-05,   8.21407584E-16,   3.45571167E-04, ]
- [ -1.82101177E-05,  -1.24787202E-15,  -4.80999659E-04, ]
- [ -3.45571167E-04,  -8.21345925E-16,   1.69815504E-05, ]
- [ -1.45624486E-05,  -4.89282791E-04,   1.45624486E-05, ]
- [ -1.45624486E-05,   4.89282791E-04,   1.45624486E-05, ]
- [  4.80999659E-04,   1.24786320E-15,   1.82101177E-05, ]
- [ -6.66729236E-05,   2.12645831E-20,   6.66729236E-05, ]
force_length_stats: {min:   6.02655461E-06, max:   4.89716019E-04, mean:   3.04493300E-04, }
...

 Integrated electronic density in atomic spheres:
 ------------------------------------------------
 Atom  Sphere_radius  Integrated_density
    1        2.20660          5.37474283
    2        2.20660          5.37474283
    3        2.30022          4.03909930
    4        1.80316          4.36263016
    5        2.30022          4.03909930
    6        1.80316          4.36919411
    7        1.80316          4.36919411
    8        1.80316          4.36263016
    9        2.21000          8.83933567

 PAW TEST:
 ==== Compensation charge inside spheres ============
 The following values must be close to each other ...
 Compensation charge over spherical meshes =     -5.794497337611207
 Compensation charge over fine fft grid    =     -5.794490671310762

 ==== Results concerning PAW augmentation regions ====

 Total pseudopotential strength Dij (hartree):
 Atom #  1
   0.41549  -0.13773  -0.00000   0.00000  -0.00000   0.00000  -0.00001   0.00001  -0.00000   0.00000   0.00000   0.00000 ...
  -0.13773   0.04132   0.00000  -0.00000   0.00000  -0.00000   0.00000  -0.00000   0.00000  -0.00000  -0.00000  -0.00000 ...
  -0.00000   0.00000  -0.09053   0.00000  -0.00000  -0.16839  -0.00000   0.00000  -0.00000   0.00000   0.00000  -0.00000 ...
   0.00000  -0.00000   0.00000  -0.09053   0.00000  -0.00000  -0.16839  -0.00000  -0.00000  -0.00000   0.00000  -0.00000 ...
  -0.00000   0.00000  -0.00000   0.00000  -0.09053   0.00000  -0.00000  -0.16839  -0.00000  -0.00000   0.00000   0.00000 ...
   0.00000  -0.00000  -0.16839  -0.00000   0.00000   0.39652   0.00001  -0.00001   0.00000  -0.00000  -0.00000   0.00000 ...
  -0.00001   0.00000  -0.00000  -0.16839  -0.00000   0.00001   0.39652   0.00000   0.00000   0.00000  -0.00000   0.00000 ...
   0.00001  -0.00000   0.00000  -0.00000  -0.16839  -0.00001   0.00000   0.39652   0.00000   0.00000  -0.00000  -0.00000 ...
  -0.00000   0.00000  -0.00000  -0.00000  -0.00000   0.00000   0.00000   0.00000   0.00565   0.00000   0.00000   0.00000 ...
   0.00000  -0.00000   0.00000  -0.00000  -0.00000  -0.00000   0.00000   0.00000   0.00000   0.00565   0.00000  -0.00000 ...
   0.00000  -0.00000   0.00000   0.00000   0.00000  -0.00000  -0.00000  -0.00000   0.00000   0.00000   0.00565   0.00000 ...
   0.00000  -0.00000  -0.00000  -0.00000   0.00000   0.00000   0.00000  -0.00000   0.00000  -0.00000   0.00000   0.00565 ...
   ...  only 12  components have been written...
 Atom #  9
   3.05120  -0.88814   0.00000   0.00001  -0.00001   0.00000   0.00000  -0.00000   0.00000   0.00000  -0.00002   0.00001 ...
  -0.88814   0.26526   0.00000  -0.00001   0.00001   0.00000   0.00000  -0.00000   0.00000   0.00000   0.00000  -0.00000 ...
   0.00000   0.00000   0.27819   0.00000   0.00000  -0.05688   0.00000   0.00000   0.00009  -0.00009   0.00000   0.00000 ...
   0.00001  -0.00001   0.00000   0.27810   0.00001   0.00000  -0.05686  -0.00000   0.00000   0.00000  -0.00011   0.00009 ...
  -0.00001   0.00001   0.00000   0.00001   0.27810   0.00000  -0.00000  -0.05686   0.00000   0.00000  -0.00006  -0.00009 ...
   0.00000   0.00000  -0.05688   0.00000   0.00000   0.01548   0.00000   0.00000  -0.00002   0.00002   0.00000   0.00000 ...
   0.00000   0.00000   0.00000  -0.05686  -0.00000   0.00000   0.01548   0.00000   0.00000   0.00000   0.00002  -0.00002 ...
  -0.00000  -0.00000   0.00000  -0.00000  -0.05686   0.00000   0.00000   0.01548   0.00000   0.00000   0.00001   0.00002 ...
   0.00000   0.00000   0.00009   0.00000   0.00000  -0.00002   0.00000   0.00000  -0.00420   0.00000   0.00000   0.00000 ...
   0.00000   0.00000  -0.00009   0.00000   0.00000   0.00002   0.00000   0.00000   0.00000  -0.00420   0.00000   0.00000 ...
  -0.00002   0.00000   0.00000  -0.00011  -0.00006   0.00000   0.00002   0.00001   0.00000   0.00000  -0.00414   0.00000 ...
   0.00001  -0.00000   0.00000   0.00009  -0.00009   0.00000  -0.00002   0.00002   0.00000   0.00000   0.00000  -0.00424 ...
   ...  only 12  components have been written...


 Augmentation waves occupancies Rhoij:
 Atom #  1
   1.99855  -0.01270  -0.00007  -0.00003   0.00003  -0.00001   0.00003  -0.00003  -0.00415   0.00415   0.00077   0.00063 ...
  -0.01270   0.17896  -0.00050   0.00205  -0.00205   0.00004  -0.00003   0.00003   0.03489  -0.03489  -0.01078  -0.00137 ...
  -0.00007  -0.00050   2.01042  -0.00302   0.00302  -0.00517   0.00047  -0.00047  -0.00249   0.00249   0.00187  -0.00215 ...
  -0.00003   0.00205  -0.00302   2.00872  -0.00044   0.00047  -0.00484   0.00005  -0.00228   0.00157   0.00163   0.00014 ...
   0.00003  -0.00205   0.00302  -0.00044   2.00872  -0.00047   0.00005  -0.00484   0.00157  -0.00228   0.00195  -0.00014 ...
  -0.00001   0.00004  -0.00517   0.00047  -0.00047   0.00016  -0.00003   0.00003   0.00008  -0.00008  -0.00009   0.00007 ...
   0.00003  -0.00003   0.00047  -0.00484   0.00005  -0.00003   0.00012  -0.00000   0.00007  -0.00006  -0.00004  -0.00007 ...
  -0.00003   0.00003  -0.00047   0.00005  -0.00484   0.00003  -0.00000   0.00012  -0.00006   0.00007  -0.00009   0.00007 ...
  -0.00415   0.03489  -0.00249  -0.00228   0.00157   0.00008   0.00007  -0.00006   0.07446   0.00487  -0.02379  -0.00057 ...
   0.00415  -0.03489   0.00249   0.00157  -0.00228  -0.00008  -0.00006   0.00007   0.00487   0.07446  -0.01378   0.00057 ...
   0.00077  -0.01078   0.00187   0.00163   0.00195  -0.00009  -0.00004  -0.00009  -0.02379  -0.01378   0.04390  -0.00207 ...
   0.00063  -0.00137  -0.00215   0.00014  -0.00014   0.00007  -0.00007   0.00007  -0.00057   0.00057  -0.00207   0.03723 ...
   ...  only 12  components have been written...
 Atom #  9
   1.99318  -0.06829   0.00000   0.00006  -0.00006   0.00000   0.00112  -0.00112   0.00000   0.00000   0.00188  -0.00062 ...
  -0.06829   1.07246   0.00000   0.00416  -0.00416   0.00000  -0.03784   0.03784   0.00000   0.00000  -0.01912   0.00859 ...
   0.00000   0.00000   1.96496   0.00000   0.00000  -0.21275   0.00000   0.00000   0.00269  -0.00269   0.00000   0.00000 ...
   0.00006   0.00416   0.00000   1.96677  -0.00018   0.00000  -0.20051  -0.00084   0.00000   0.00000   0.00201   0.00290 ...
  -0.00006  -0.00416   0.00000  -0.00018   1.96677   0.00000  -0.00084  -0.20051   0.00000   0.00000   0.00112  -0.00290 ...
   0.00000   0.00000  -0.21275   0.00000   0.00000   1.88549   0.00000   0.00000  -0.04157   0.04157   0.00000   0.00000 ...
   0.00112  -0.03784   0.00000  -0.20051  -0.00084   0.00000   1.69472   0.02434   0.00000   0.00000  -0.16798  -0.06287 ...
  -0.00112   0.03784   0.00000  -0.00084  -0.20051   0.00000   0.02434   1.69472   0.00000   0.00000  -0.08673   0.06287 ...
   0.00000   0.00000   0.00269   0.00000   0.00000  -0.04157   0.00000   0.00000   0.52599   0.00126   0.00000   0.00000 ...
   0.00000   0.00000  -0.00269   0.00000   0.00000   0.04157   0.00000   0.00000   0.00126   0.52599   0.00000   0.00000 ...
   0.00188  -0.01912   0.00000   0.00201   0.00112   0.00000  -0.16798  -0.08673   0.00000   0.00000   1.51007   0.00582 ...
  -0.00062   0.00859   0.00000   0.00290  -0.00290   0.00000  -0.06287   0.06287   0.00000   0.00000   0.00582   0.51669 ...
   ...  only 12  components have been written...



---OUTPUT-----------------------------------------------------------------------

 Cartesian coordinates (xcart) [bohr]
  5.24250344756224E+00  4.84547088126034E+00  5.03380501259763E+00
  1.55188119077206E+01  1.51522342733965E+01  1.53101134727560E+01
  1.01059668264862E+01  9.99885257732842E+00  5.41990860953332E+00
  1.04163147438972E+01  9.99885257732841E+00  1.55971344727513E+01
  1.51327083107849E+01  9.99885257732842E+00  1.04466500938320E+01
  1.03363759166078E+01  1.53514998347337E+01  1.02162410036836E+01
  1.03363759166346E+01  4.64620531992318E+00  1.02162410037104E+01
  4.95548244756692E+00  9.99885257732842E+00  1.01363021764210E+01
  1.65928164112064E-01 -3.93562242380323E-18 -1.65928164112064E-01
 Reduced coordinates (xred)
  2.31830224838498E-01  2.57698653731177E-01  2.52772467699149E-01
  7.47227532300851E-01  7.42301346268823E-01  7.68169775161502E-01
  2.64884271280661E-01  2.55420854493858E-01  7.35115728719339E-01
  7.59939622923661E-01  7.65700096366730E-01  2.40060377076338E-01
  2.64884271280661E-01  7.44579145506142E-01  7.35115728719339E-01
  7.61635491551215E-01  2.32336924861662E-01  7.73690658725461E-01
  2.26309341274539E-01  7.67663075138338E-01  2.38364508448785E-01
  7.59939622923662E-01  2.34299903633270E-01  2.40060377076338E-01
 -1.66503783837488E-02  6.10997224270255E-19  1.66503783837488E-02
 Cartesian forces (fcart) [Ha/bohr]; max,rms= 4.89283E-04 2.10062E-04 (free atoms)
 -2.21950159790589E-06 -5.14460744367169E-06  2.21950159790588E-06
 -2.21950159790589E-06  5.14460744367173E-06  2.21950159790588E-06
 -1.69815503976413E-05  8.21407583995609E-16  3.45571167199327E-04
 -1.82101177301699E-05 -1.24787201845065E-15 -4.80999659404660E-04
 -3.45571167199327E-04 -8.21345924683899E-16  1.69815503976413E-05
 -1.45624486212943E-05 -4.89282790669669E-04  1.45624486212943E-05
 -1.45624486212944E-05  4.89282790669669E-04  1.45624486212944E-05
  4.80999659404660E-04  1.24786320469809E-15  1.82101177301699E-05
 -6.66729236391216E-05  2.12645831351781E-20  6.66729236391216E-05
 Reduced forces (fred)
  2.93218857407746E-05  3.05086832847101E-20  7.35584570542248E-05
 -7.35584570542252E-05  3.48608692056722E-20 -2.93218857407750E-05
 -3.49484081802418E-03 -3.37668825906781E-03  1.18152558956373E-04
  4.87096499486605E-03  5.13003365617727E-03  2.59068661311214E-04
 -1.18152558956373E-04  3.37668825906781E-03  3.49484081802418E-03
  4.74714544428594E-03  2.79615807419527E-20  5.03738754077379E-03
 -5.03738754077379E-03  9.46126842683600E-21 -4.74714544428594E-03
 -2.59068661311214E-04 -5.13003365617727E-03 -4.87096499486605E-03
 -6.64424288772981E-04 -5.27255572574670E-20  6.64424288772980E-04
 Scale of Primitive Cell (acell) [bohr]
  1.42279021126354E+01  1.45328947955217E+01  1.42279021126354E+01
 Real space primitive translations (rprimd) [bohr]
  1.55439714881784E-01  9.99885257732842E+00  1.01208687452523E+01
  1.02763084601841E+01  0.00000000000000E+00  1.02763084601841E+01
  1.01208687452523E+01  9.99885257732842E+00  1.55439714881784E-01
 Unitary Cell Volume (ucvol) [Bohr^3]=  2.04792144296830E+03
 Angles (23,13,12)= [degrees]
  5.92883248969282E+01  5.93748280251323E+01  5.92883248969282E+01
 Lengths [Bohr]
  1.42279021126354E+01  1.45328947955217E+01  1.42279021126354E+01
 Stress tensor in cartesian coordinates (strten) [Ha/bohr^3]
 -8.27858943215189E-05  1.27427247690463E-14  1.66065973062705E-08
  1.27427247690463E-14 -8.30835625837993E-05  1.27418061109717E-14
  1.66065973062705E-08  1.27418061109717E-14 -8.27858943215189E-05
 Total energy (etotal) [Ha]= -1.72808169666856E+02

 Difference of energy with previous step (new-old):
           Absolute (Ha)=-1.48247E-06
           Relative     =-8.57869E-09

--- Iteration: (   3/1000) Internal Cycle: (1/1)
--------------------------------------------------------------------------------

---SELF-CONSISTENT-FIELD CONVERGENCE--------------------------------------------

--- !BeginCycle
iteration_state: {dtset: 1, itime: 3, icycle: 1, }
solver: {iscf: 17, nstep: 2500, nline: 4, wfoptalg: 10, }
tolerances: {toldff: 1.00E-08, }
...

     iter   Etot(hartree)      deltaE(h)  residm     nres2    diffor    maxfor
 ETOT  1  -172.80837074168    -1.728E+02 1.119E-02 4.065E-02 2.280E-02 2.328E-02
 ETOT  2  -172.80819331471     1.774E-04 2.927E-05 7.221E-03 2.580E-02 2.564E-03
 ETOT  3  -172.80817499324     1.832E-05 1.235E-06 4.463E-04 4.183E-03 1.665E-03
 ETOT  4  -172.80817434143     6.518E-07 5.309E-07 7.737E-05 1.318E-03 3.461E-04
 ETOT  5  -172.80817435072    -9.289E-09 2.069E-07 2.602E-05 9.081E-05 2.553E-04
 ETOT  6  -172.80817441667    -6.595E-08 3.966E-07 4.346E-06 1.678E-04 9.570E-05
 ETOT  7  -172.80817445510    -3.843E-08 1.749E-07 7.674E-07 6.310E-05 7.763E-05
 ETOT  8  -172.80817447327    -1.817E-08 3.243E-07 6.089E-08 2.731E-05 8.026E-05
 ETOT  9  -172.80817447536    -2.098E-09 1.507E-07 1.558E-08 1.784E-06 7.851E-05
 ETOT 10  -172.80817447669    -1.326E-09 2.745E-07 2.767E-09 3.524E-06 7.826E-05
 ETOT 11  -172.80817447702    -3.278E-10 1.287E-07 8.532E-10 1.149E-06 7.838E-05
 ETOT 12  -172.80817447763    -6.096E-10 2.333E-07 2.257E-10 6.246E-07 7.825E-05
 ETOT 13  -172.80817447781    -1.820E-10 1.101E-07 2.844E-11 1.865E-07 7.826E-05
 ETOT 14  -172.80817447803    -2.191E-10 1.989E-07 2.522E-11 3.598E-08 7.822E-05
 ETOT 15  -172.80817447816    -1.342E-10 9.419E-08 1.382E-12 4.650E-08 7.825E-05
 ETOT 16  -172.80817447830    -1.338E-10 1.698E-07 2.702E-12 3.435E-08 7.825E-05
 ETOT 17  -172.80817447838    -8.333E-11 8.069E-08 4.307E-13 1.687E-08 7.825E-05
 ETOT 18  -172.80817447844    -6.125E-11 1.452E-07 1.716E-13 4.271E-09 7.824E-05
 ETOT 19  -172.80817447851    -6.909E-11 6.915E-08 4.288E-14 2.530E-09 7.824E-05

 At SCF step   19, forces are converged : 
  for the second time, max diff in force=  2.530E-09 < toldff=  1.000E-08

 Cartesian components of stress tensor (hartree/bohr^3)
  sigma(1 1)= -8.12463291E-05  sigma(3 2)=  1.27468497E-14
  sigma(2 2)= -8.11453156E-05  sigma(3 1)=  6.54433291E-08
  sigma(3 3)= -8.12463291E-05  sigma(2 1)=  1.27472102E-14


--- !ResultsGS
iteration_state: {dtset: 1, itime: 3, icycle: 1, }
comment   : Summary of ground state results
lattice_vectors:
- [  0.1553602,   9.9993018,  10.1206402, ]
- [ 10.2760005,   0.0000000,  10.2760005, ]
- [ 10.1206402,   9.9993018,   0.1553602, ]
lattice_lengths: [  14.22805,   14.53246,   14.22805, ]
lattice_angles: [ 59.290,  59.373,  59.290, ] # degrees, (23, 13, 12)
lattice_volume:   2.0479214E+03
convergence: {deltae: -6.909E-11, res2:  4.288E-14, residm:  6.915E-08, diffor:  2.530E-09, }
etotal    :  -1.72808174E+02
entropy   :   0.00000000E+00
fermie    :   7.93169816E-03
cartesian_stress_tensor: # hartree/bohr^3
- [ -8.12463291E-05,   1.27472102E-14,   6.54433291E-08, ]
- [  1.27472102E-14,  -8.11453156E-05,   1.27468497E-14, ]
- [  6.54433291E-08,   1.27468497E-14,  -8.12463291E-05, ]
pressure_GPa:   2.3894E+00
xred      :
- [  2.3183E-01,   2.5770E-01,   2.5277E-01, Cs]
- [  7.4723E-01,   7.4230E-01,   7.6817E-01, Cs]
- [  2.6502E-01,   2.5554E-01,   7.3498E-01,  I]
- [  7.5976E-01,   7.6552E-01,   2.4024E-01, Cl]
- [  2.6502E-01,   7.4446E-01,   7.3498E-01,  I]
- [  7.6146E-01,   2.3252E-01,   7.7350E-01, Cl]
- [  2.2650E-01,   7.6748E-01,   2.3854E-01, Cl]
- [  7.5976E-01,   2.3448E-01,   2.4024E-01, Cl]
- [ -1.6600E-02,   6.1017E-19,   1.6600E-02, Zr]
cartesian_forces: # hartree/bohr
- [  2.78277985E-07,  -6.01735779E-06,  -2.78277985E-07, ]
- [  2.78277985E-07,   6.01735779E-06,  -2.78277985E-07, ]
- [ -1.36958650E-05,   5.81575184E-17,   3.69584417E-05, ]
- [ -1.00294858E-05,  -1.34395843E-17,   4.65354423E-06, ]
- [ -3.69584417E-05,  -5.81557056E-17,   1.36958650E-05, ]
- [ -6.73161980E-06,   5.49796556E-06,   6.73161980E-06, ]
- [ -6.73161980E-06,  -5.49796556E-06,   6.73161980E-06, ]
- [ -4.65354423E-06,   1.34395047E-17,   1.00294858E-05, ]
- [  7.82440204E-05,  -3.54670231E-22,  -7.82440204E-05, ]
force_length_stats: {min:   6.03021327E-06, max:   1.10653755E-04, mean:   2.72936863E-05, }
...

 Integrated electronic density in atomic spheres:
 ------------------------------------------------
 Atom  Sphere_radius  Integrated_density
    1        2.20660          5.37503981
    2        2.20660          5.37503981
    3        2.30022          4.03818446
    4        1.80316          4.36398318
    5        2.30022          4.03818446
    6        1.80316          4.36703441
    7        1.80316          4.36703441
    8        1.80316          4.36398318
    9        2.21000          8.83707505

 PAW TEST:
 ==== Compensation charge inside spheres ============
 The following values must be close to each other ...
 Compensation charge over spherical meshes =     -5.794585416964719
 Compensation charge over fine fft grid    =     -5.794577762738645

 ==== Results concerning PAW augmentation regions ====

 Total pseudopotential strength Dij (hartree):
 Atom #  1
   0.41548  -0.13772  -0.00000   0.00000  -0.00000   0.00000  -0.00001   0.00001  -0.00000   0.00000   0.00000   0.00000 ...
  -0.13772   0.04132   0.00000  -0.00000   0.00000  -0.00000   0.00000  -0.00000   0.00000  -0.00000  -0.00000  -0.00000 ...
  -0.00000   0.00000  -0.09053   0.00000  -0.00000  -0.16839  -0.00000   0.00000  -0.00000   0.00000   0.00000  -0.00000 ...
   0.00000  -0.00000   0.00000  -0.09053   0.00000  -0.00000  -0.16839  -0.00000  -0.00000  -0.00000   0.00000  -0.00000 ...
  -0.00000   0.00000  -0.00000   0.00000  -0.09053   0.00000  -0.00000  -0.16839  -0.00000  -0.00000   0.00000   0.00000 ...
   0.00000  -0.00000  -0.16839  -0.00000   0.00000   0.39652   0.00001  -0.00001   0.00000  -0.00000  -0.00000   0.00000 ...
  -0.00001   0.00000  -0.00000  -0.16839  -0.00000   0.00001   0.39652   0.00000   0.00000   0.00000  -0.00000   0.00000 ...
   0.00001  -0.00000   0.00000  -0.00000  -0.16839  -0.00001   0.00000   0.39652   0.00000   0.00000  -0.00000  -0.00000 ...
[...]
                       5.4219043214E+00  2.4582957013E+00  5.3612439641E+00
                       2.6200848357E+00  5.2476363573E+00  5.3247519012E+00
                       8.9349478095E-02  4.4083222381E-18 -8.9349478095E-02
           xangst10    2.7463084626E+00  2.5398624037E+00  2.6393005116E+00
                       8.1319174369E+00  7.9445071094E+00  8.0249094858E+00
                       5.2957301393E+00  5.2421847565E+00  2.8523429507E+00
                       5.4511605483E+00  5.2421847565E+00  8.1517787828E+00
                       7.9188749978E+00  5.2421847565E+00  5.4754878092E+00
                       5.4159093905E+00  8.0264239274E+00  5.3553085579E+00
                       5.4159093905E+00  2.4579455857E+00  5.3553085580E+00
                       2.6194391657E+00  5.2421847565E+00  5.3200574001E+00
                       8.9622262306E-02  6.4829068505E-18 -8.9622262306E-02
            xcart1     5.2421244760E+00  4.8452785886E+00  5.0334496934E+00
                       1.5517698645E+01  1.5152576389E+01  1.5309023863E+01
                       1.0105114461E+01  9.9989274886E+00  5.4219349738E+00
                       1.0414728387E+01  9.9989274886E+00  1.5592344453E+01
                       1.5129213365E+01  9.9989274886E+00  1.0446033877E+01
                       1.0335351342E+01  1.5348083080E+01  1.0215796997E+01
                       1.0335351342E+01  4.6497718974E+00  1.0215796997E+01
                       4.9588038854E+00  9.9989274886E+00  1.0136419952E+01
                       1.6620745145E-01  4.4966467861E-18 -1.6620745145E-01
            xcart2     5.2365704235E+00  4.8390961165E+00  5.0283271801E+00
                       1.5501468027E+01  1.5138260633E+01  1.5293224784E+01
                       1.0094095518E+01  9.9886783749E+00  5.4185716269E+00
                       1.0402634748E+01  9.9886783749E+00  1.5571718823E+01
                       1.5111223580E+01  9.9886783749E+00  1.0435699689E+01
                       1.0324228384E+01  1.5327915940E+01  1.0205566823E+01
                       1.0324228384E+01  4.6494408099E+00  1.0205566823E+01
                       4.9580763841E+00  9.9886783749E+00  1.0127160459E+01
                       1.6665537988E-01  1.0540128585E-17 -1.6665537988E-01
            xcart3     5.2309644739E+00  4.8353864239E+00  5.0231709220E+00
                       1.5485099870E+01  1.5121510084E+01  1.5277306318E+01
                       1.0083628851E+01  9.9784482538E+00  5.4154641796E+00
                       1.0390779307E+01  9.9784482538E+00  1.5551130985E+01
                       1.5092806612E+01  9.9784482538E+00  1.0424641941E+01
                       1.0312929607E+01  1.5307945207E+01  1.0195341184E+01
                       1.0312929608E+01  4.6489513008E+00  1.0195341184E+01
                       4.9571398063E+00  9.9784482538E+00  1.0117491485E+01
                       1.6680503232E-01 -7.2699171779E-17 -1.6680503232E-01
            xcart4     5.2254197054E+00  4.8303043027E+00  5.0180319954E+00
                       1.5468871406E+01  1.5105523327E+01  1.5261483696E+01
                       1.0073109529E+01  9.9679138147E+00  5.4121578218E+00
                       1.0378742271E+01  9.9679138147E+00  1.5530774030E+01
                       1.5074745580E+01  9.9679138147E+00  1.0413793873E+01
                       1.0301736462E+01  1.5287546498E+01  1.0185166939E+01
                       1.0301736462E+01  4.6482811309E+00  1.0185166940E+01
                       4.9561293714E+00  9.9679138147E+00  1.0108161130E+01
                       1.6712281892E-01  4.9171861217E-18 -1.6712281892E-01
            xcart5     5.2199570444E+00  4.8242695440E+00  5.0130734453E+00
                       1.5452987534E+01  1.5089981928E+01  1.5246103935E+01
                       1.0062761722E+01  9.9571257359E+00  5.4090929429E+00
                       1.0366828446E+01  9.9571257359E+00  1.5510649163E+01
                       1.5056968037E+01  9.9571257359E+00  1.0403299257E+01
                       1.0290999685E+01  1.5266575165E+01  1.0175061294E+01
                       1.0290999685E+01  4.6476763063E+00  1.0175061294E+01
                       4.9554118169E+00  9.9571257359E+00  1.0099232534E+01
                       1.6732994714E-01 -3.8947793797E-17 -1.6732994714E-01
            xcart6     5.2145061926E+00  4.8179529903E+00  5.0080774248E+00
                       1.5437089810E+01  1.5075161062E+01  1.5230661042E+01
                       1.0051862089E+01  9.9465570261E+00  5.4059785992E+00
                       1.0355087513E+01  9.9465570261E+00  1.5490415600E+01
                       1.5039188636E+01  9.9465570261E+00  1.0393305146E+01
                       1.0280289392E+01  1.5245857763E+01  1.0164877842E+01
                       1.0280289392E+01  4.6472562895E+00  1.0164877842E+01
                       4.9547516349E+00  9.9465570261E+00  1.0090079722E+01
                       1.6760427947E-01  3.8713008545E-17 -1.6760427947E-01
            xcart7     5.2085754213E+00  4.8131551940E+00  5.0030208272E+00
                       1.5420171670E+01  1.5059531609E+01  1.5214617076E+01
                       1.0041090022E+01  9.9363434012E+00  5.4023767500E+00
                       1.0342431599E+01  9.9363434012E+00  1.5469383541E+01
                       1.5020815747E+01  9.9363434012E+00  1.0382102475E+01
                       1.0268946982E+01  1.5225993213E+01  1.0154245515E+01
                       1.0268946982E+01  4.6466935891E+00  1.0154245515E+01
                       4.9538089563E+00  9.9363434012E+00  1.0080760898E+01
                       1.6798260895E-01  4.0428697208E-17 -1.6798260895E-01
            xcart8     5.2025810883E+00  4.8077714900E+00  4.9979208063E+00
                       1.5403082983E+01  1.5044470541E+01  1.5198422701E+01
                       1.0029659194E+01  9.9261210157E+00  5.3986101658E+00
                       1.0329333388E+01  9.9261210157E+00  1.5448326394E+01
                       1.5002393623E+01  9.9261210157E+00  1.0371344595E+01
                       1.0257961740E+01  1.5206205445E+01  1.0143042049E+01
                       1.0257961740E+01  4.6460365861E+00  1.0143042049E+01
                       4.9526773952E+00  9.9261210157E+00  1.0071670402E+01
                       1.6836400511E-01  2.6965536097E-18 -1.6836400511E-01
            xcart9     5.1959815513E+00  4.8042657764E+00  4.9926170036E+00
                       1.5384580106E+01  1.5028925344E+01  1.5181215559E+01
                       1.0018474477E+01  9.9165955602E+00  5.3942364966E+00
                       1.0314874291E+01  9.9165955602E+00  1.5425954325E+01
                       1.4982960613E+01  9.9165955602E+00  1.0358722633E+01
                       1.0245914286E+01  1.5187685491E+01  1.0131282824E+01
                       1.0245914286E+01  4.6455056292E+00  1.0131282824E+01
                       4.9512427844E+00  9.9165955602E+00  1.0062322819E+01
                       1.6884604372E-01  8.3305217356E-18 -1.6884604372E-01
            xcart10    5.1897708708E+00  4.7996443582E+00  4.9875551493E+00
                       1.5367096891E+01  1.5012942698E+01  1.5164881169E+01
                       1.0007479637E+01  9.9062935279E+00  5.3901470138E+00
                       1.0301200543E+01  9.9062935279E+00  1.5404629395E+01
                       1.4964505026E+01  9.9062935279E+00  1.0347172403E+01
                       1.0234585509E+01  1.5167743049E+01  1.0120066532E+01
                       1.0234585509E+01  4.6448440065E+00  1.0120066532E+01
                       4.9500226449E+00  9.9062935279E+00  1.0053451497E+01
                       1.6936153117E-01  1.2250918493E-17 -1.6936153117E-01
             xred1     2.3182065028E-01  2.5771008470E-01  2.5275918032E-01
                       7.4724081968E-01  7.4228991530E-01  7.6817934972E-01
                       2.6504373661E-01  2.5553196246E-01  7.3495626339E-01
                       7.5976226780E-01  7.6548027447E-01  2.4023773220E-01
                       2.6504373661E-01  7.4446803754E-01  7.3495626339E-01
                       7.6148839699E-01  2.3251353221E-01  7.7348453859E-01
                       2.2651546141E-01  7.6748646779E-01  2.3851160301E-01
                       7.5976226780E-01  2.3451972553E-01  2.4023773220E-01
                      -1.6677337199E-02  6.1032778462E-19  1.6677337199E-02
             xred2     2.3177161482E-01  2.5777095153E-01  2.5268648212E-01
                       7.4731351788E-01  7.4222904847E-01  7.6822838518E-01
                       2.6520736002E-01  2.5561723772E-01  7.3479263998E-01
                       7.5957794773E-01  7.6520276060E-01  2.4042205227E-01
                       2.6520736002E-01  7.4438276228E-01  7.3479263998E-01
                       7.6130559034E-01  2.3273553494E-01  7.7322333977E-01
                       2.2677666023E-01  7.6726446506E-01  2.3869440966E-01
                       7.5957794773E-01  2.3479723940E-01  2.4042205227E-01
                      -1.6737998786E-02  6.5513903854E-19  1.6737998786E-02
             xred3     2.3184690150E-01  2.5770849831E-01  2.5273610188E-01
                       7.4726389812E-01  7.4229150169E-01  7.6815309850E-01
                       2.6535790853E-01  2.5574840942E-01  7.3464209147E-01
                       7.5938153339E-01  7.6494869096E-01  2.4061846661E-01
                       2.6535790853E-01  7.4425159058E-01  7.3464209147E-01
                       7.6113988652E-01  2.3294961213E-01  7.7296088921E-01
                       2.2703911079E-01  7.6705038787E-01  2.3886011348E-01
                       7.5938153339E-01  2.3505130904E-01  2.4061846661E-01
                      -1.6768680800E-02 -4.2413907294E-19  1.6768680800E-02
             xred4     2.3185892957E-01  2.5770736021E-01  2.5272635001E-01
                       7.4727364999E-01  7.4229263979E-01  7.6814107043E-01
                       2.6550674368E-01  2.5586178386E-01  7.3449325632E-01
                       7.5919957546E-01  7.6468679984E-01  2.4080042454E-01
                       2.6550674368E-01  7.4413821614E-01  7.3449325632E-01
                       7.6097318286E-01  2.3316218505E-01  7.7270244704E-01
                       2.2729755296E-01  7.6683781495E-01  2.3902681714E-01
                       7.5919957546E-01  2.3531320016E-01  2.4080042454E-01
                      -1.6815953683E-02  2.9143098877E-19  1.6815953683E-02
             xred5     2.3183426168E-01  2.5774788468E-01  2.5266996895E-01
                       7.4733003105E-01  7.4225211532E-01  7.6816573832E-01
                       2.6565933497E-01  2.5597618323E-01  7.3434066503E-01
                       7.5902281076E-01  7.6440928885E-01  2.4097718924E-01
                       2.6565933497E-01  7.4402381677E-01  7.3434066503E-01
                       7.6077735951E-01  2.3338443390E-01  7.7245377269E-01
                       2.2754622731E-01  7.6661556610E-01  2.3922264049E-01
                       7.5902281076E-01  2.3559071115E-01  2.4097718924E-01
                      -1.6852171030E-02 -1.2264684523E-19  1.6852171030E-02
             xred6     2.3178734050E-01  2.5780800444E-01  2.5259665062E-01
                       7.4740334938E-01  7.4219199556E-01  7.6821265950E-01
                       2.6583295210E-01  2.5606330387E-01  7.3416704790E-01
                       7.5883658530E-01  7.6413752532E-01  2.4116341470E-01
                       2.6583295210E-01  7.4393669613E-01  7.3416704790E-01
                       7.6057159442E-01  2.3361130275E-01  7.7220580009E-01
                       2.2779419991E-01  7.6638869725E-01  2.3942840558E-01
                       7.5883658530E-01  2.3586247468E-01  2.4116341470E-01
                      -1.6895559017E-02 -1.8833428201E-18  1.6895559017E-02
             xred7     2.3182942193E-01  2.5780048054E-01  2.5256961699E-01
                       7.4743038301E-01  7.4219951946E-01  7.6817057807E-01
                       2.6597988841E-01  2.5617300158E-01  7.3402011159E-01
                       7.5865143956E-01  7.6384820312E-01  2.4134856044E-01
                       2.6597988841E-01  7.4382699842E-01  7.3402011159E-01
                       7.6039026662E-01  2.3382311790E-01  7.7196349759E-01
                       2.2803650241E-01  7.6617688210E-01  2.3960973338E-01
                       7.5865143956E-01  2.3615179688E-01  2.4134856044E-01
                      -1.6949229919E-02 -1.1196199352E-18  1.6949229919E-02
             xred8     2.3184341719E-01  2.5782224081E-01  2.5251210118E-01
                       7.4748789882E-01  7.4217775919E-01  7.6815658281E-01
                       2.6615470289E-01  2.5625050213E-01  7.3384529711E-01
                       7.5848407849E-01  7.6354860025E-01  2.4151592151E-01
                       2.6615470289E-01  7.4374949787E-01  7.3384529711E-01
                       7.6016629309E-01  2.3403082527E-01  7.7177205636E-01
                       2.2822794364E-01  7.6596917473E-01  2.3983370691E-01
                       7.5848407849E-01  2.3645139975E-01  2.4151592151E-01
                      -1.7003115518E-02 -4.8959936323E-20  1.7003115518E-02
             xred9     2.3195548537E-01  2.5776637520E-01  2.5251176423E-01
                       7.4748823577E-01  7.4223362480E-01  7.6804451463E-01
                       2.6628884790E-01  2.5637051017E-01  7.3371115210E-01
                       7.5831637738E-01  7.6321733444E-01  2.4168362262E-01
                       2.6628884790E-01  7.4362948983E-01  7.3371115210E-01
                       7.5997761813E-01  2.3422885410E-01  7.7156467368E-01
                       2.2843532632E-01  7.6577114590E-01  2.4002238187E-01
                       7.5831637738E-01  2.3678266556E-01  2.4168362262E-01
                      -1.7067116169E-02  1.4538735708E-19  1.7067116169E-02
             xred10    2.3202317950E-01  2.5774772145E-01  2.5248137760E-01
                       7.4751862240E-01  7.4225227855E-01  7.6797682050E-01
                       2.6643184618E-01  2.5646720073E-01  7.3356815382E-01
                       7.5815737192E-01  7.6289704620E-01  2.4184262808E-01
                       2.6643184618E-01  7.4353279927E-01  7.3356815382E-01
                       7.5976800213E-01  2.3443904592E-01  7.7135390604E-01
                       2.2864609396E-01  7.6556095408E-01  2.4023199787E-01
                       7.5815737192E-01  2.3710295380E-01  2.4184262808E-01
                      -1.7134334211E-02 -7.6290908099E-19  1.7134334211E-02
            znucl       55.00000   53.00000   40.00000   17.00000

================================================================================


- Timing analysis has been suppressed with timopt=0



================================================================================

 Suggested references for the acknowledgment of ABINIT usage.

 The users of ABINIT have little formal obligations with respect to the ABINIT group
 (those specified in the GNU General Public License, http://www.gnu.org/copyleft/gpl.txt).
 However, it is common practice in the scientific literature,
 to acknowledge the efforts of people that have made the research possible.
 In this spirit, please find below suggested citations of work written by ABINIT developers,
 corresponding to implementations inside of ABINIT that you have used in the present run.
 Note also that it will be of great value to readers of publications presenting these results,
 to read papers enabling them to understand the theoretical formalism and details
 of the ABINIT implementation.
 For information on why they are suggested, see also https://docs.abinit.org/theory/acknowledgments.
-
- [1] Implementation of the Projector Augmented-Wave Method in the ABINIT code.
- M. Torrent, F. Jollet, F. Bottin, G. Zerah, and X. Gonze Comput. Mat. Science 42, 337, (2008).
- Comment: PAW calculations. Strong suggestion to cite this paper.
- DOI and bibtex: see https://docs.abinit.org/theory/bibliography/#torrent2008
-
- [2] Libxc: A library of exchange and correlation functionals for density functional theory.
- M.A.L. Marques, M.J.T. Oliveira, T. Burnus, Computer Physics Communications 183, 2227 (2012).
- Comment: to be cited when LibXC is used (negative value of ixc)
- Strong suggestion to cite this paper.
- DOI and bibtex: see https://docs.abinit.org/theory/bibliography/#marques2012
-
- [3] The Abinit project: Impact, environment and recent developments.
- Computer Phys. Comm. 248, 107042 (2020).
- X.Gonze, B. Amadon, G. Antonius, F.Arnardi, L.Baguet, J.-M.Beuken,
- J.Bieder, F.Bottin, J.Bouchet, E.Bousquet, N.Brouwer, F.Bruneval,
- G.Brunin, T.Cavignac, J.-B. Charraud, Wei Chen, M.Cote, S.Cottenier,
- J.Denier, G.Geneste, Ph.Ghosez, M.Giantomassi, Y.Gillet, O.Gingras,
- D.R.Hamann, G.Hautier, Xu He, N.Helbig, N.Holzwarth, Y.Jia, F.Jollet,
- W.Lafargue-Dit-Hauret, K.Lejaeghere, M.A.L.Marques, A.Martin, C.Martins,
- H.P.C. Miranda, F.Naccarato, K. Persson, G.Petretto, V.Planes, Y.Pouillon,
- S.Prokhorenko, F.Ricci, G.-M.Rignanese, A.H.Romero, M.M.Schmitt, M.Torrent,
- M.J.van Setten, B.Van Troeye, M.J.Verstraete, G.Zerah and J.W.Zwanzig
- Comment: the fifth generic paper describing the ABINIT project.
- Note that a version of this paper, that is not formatted for Computer Phys. Comm. 
- is available at https://www.abinit.org/sites/default/files/ABINIT20.pdf .
- The licence allows the authors to put it on the Web.
- DOI and bibtex: see https://docs.abinit.org/theory/bibliography/#gonze2020
-
- [4] ABINIT: Overview, and focus on selected capabilities
- J. Chem. Phys. 152, 124102 (2020).
- A. Romero, D.C. Allan, B. Amadon, G. Antonius, T. Applencourt, L.Baguet,
- J.Bieder, F.Bottin, J.Bouchet, E.Bousquet, F.Bruneval,
- G.Brunin, D.Caliste, M.Cote,
- J.Denier, C. Dreyer, Ph.Ghosez, M.Giantomassi, Y.Gillet, O.Gingras,
- D.R.Hamann, G.Hautier, F.Jollet, G. Jomard,
- A.Martin, 
- H.P.C. Miranda, F.Naccarato, G.Petretto, N.A. Pike, V.Planes,
- S.Prokhorenko, T. Rangel, F.Ricci, G.-M.Rignanese, M.Royo, M.Stengel, M.Torrent,
- M.J.van Setten, B.Van Troeye, M.J.Verstraete, J.Wiktor, J.W.Zwanziger, and X.Gonze.
- Comment: a global overview of ABINIT, with focus on selected capabilities .
- Note that a version of this paper, that is not formatted for J. Chem. Phys 
- is available at https://www.abinit.org/sites/default/files/ABINIT20_JPC.pdf .
- The licence allows the authors to put it on the Web.
- DOI and bibtex: see https://docs.abinit.org/theory/bibliography/#romero2020
-
- [5] Recent developments in the ABINIT software package.
- Computer Phys. Comm. 205, 106 (2016).
- X.Gonze, F.Jollet, F.Abreu Araujo, D.Adams, B.Amadon, T.Applencourt,
- C.Audouze, J.-M.Beuken, J.Bieder, A.Bokhanchuk, E.Bousquet, F.Bruneval
- D.Caliste, M.Cote, F.Dahm, F.Da Pieve, M.Delaveau, M.Di Gennaro,
- B.Dorado, C.Espejo, G.Geneste, L.Genovese, A.Gerossier, M.Giantomassi,
- Y.Gillet, D.R.Hamann, L.He, G.Jomard, J.Laflamme Janssen, S.Le Roux,
- A.Levitt, A.Lherbier, F.Liu, I.Lukacevic, A.Martin, C.Martins,
- M.J.T.Oliveira, S.Ponce, Y.Pouillon, T.Rangel, G.-M.Rignanese,
- A.H.Romero, B.Rousseau, O.Rubel, A.A.Shukri, M.Stankovski, M.Torrent,
- M.J.Van Setten, B.Van Troeye, M.J.Verstraete, D.Waroquier, J.Wiktor,
- B.Xu, A.Zhou, J.W.Zwanziger.
- Comment: the fourth generic paper describing the ABINIT project.
- Note that a version of this paper, that is not formatted for Computer Phys. Comm. 
- is available at https://www.abinit.org/sites/default/files/ABINIT16.pdf .
- The licence allows the authors to put it on the Web.
- DOI and bibtex: see https://docs.abinit.org/theory/bibliography/#gonze2016
-
- Proc.   0 individual time (sec): cpu=      65832.4  wall=      65833.8

================================================================================

 Calculation completed.
.Delivered   0 WARNINGs and 208 COMMENTs to log file.
+Overall time at end (sec) : cpu=     394993.8  wall=     395002.5
