
.Version 9.2.2 of ABINIT 
.(MPI version, prepared for a x86_64_linux_gnu9.3 computer) 

.Copyright (C) 1998-2020 ABINIT group . 
 ABINIT comes with ABSOLUTELY NO WARRANTY.
 It is free software, and you are welcome to redistribute it
 under certain conditions (GNU General Public License,
 see ~abinit/COPYING or http://www.gnu.org/copyleft/gpl.txt).

 ABINIT is a project of the Universite Catholique de Louvain,
 Corning Inc. and other collaborators, see ~abinit/doc/developers/contributors.txt .
 Please read https://docs.abinit.org/theory/acknowledgments for suggested
 acknowledgments of the ABINIT effort.
 For more information, see https://www.abinit.org .

.Starting date : Thu 27 Oct 2022.
- ( at 16h44 )
  
- input  file    -> Cs2TiI6.in
- output file    -> Cs2TiI6.out
- root for input  files -> Cs2TiI6i
- root for output files -> Cs2TiI6o

- inpspheads : Reading pseudopotential header in XML form from 
-   ../../../Psps_for_tests/ATOMICDATA/Cs.GGA_PBE-JTH.xml
- inpspheads : Reading pseudopotential header in XML form from 
-   ../../../Psps_for_tests/ATOMICDATA/I.GGA_PBE-JTH.xml
- inpspheads : Reading pseudopotential header in XML form from 
-   ../../../Psps_for_tests/ATOMICDATA/Hf.GGA_PBE-JTH.xml
- inpspheads : Reading pseudopotential header in XML form from 
-   ../../../Psps_for_tests/ATOMICDATA/Cl.GGA_PBE-JTH.xml

 DATASET    1 : space group I4 m m (#107); Bravais tI (body-center tetrag.)
================================================================================
 Values of the parameters that define the memory need for DATASET  1.
     intxc =       0    ionmov =       0      iscf =      17    lmnmax =      18
     lnmax =       6     mgfft =      60  mpssoang =       3    mqgrid =    3657
     natom =       9  nloc_mem =       2    nspden =       1   nspinor =       1
    nsppol =       1      nsym =       8    n1xccc =       1    ntypat =       4
    occopt =       1   xclevel =       2
-    mband =          42        mffmem =           1         mkmem =          28
       mpw =        8437          nfft =      216000          nkpt =         163
Pmy_natom=         2
 PAW method is used; the additional fine FFT grid is defined by:
   mgfftf=        96    nfftf =    884736
================================================================================
P This job should need less than                     417.970 Mbytes of memory.
  Rough estimation (10% accuracy) of disk space for files :
_ WF disk file :    881.345 Mbytes ; DEN or POT disk file :      6.752 Mbytes.
================================================================================


 DATASET    2 : space group I4 m m (#107); Bravais tI (body-center tetrag.)
================================================================================
 Values of the parameters that define the memory need for DATASET  2.
     intxc =       0    ionmov =       0      iscf =      17    lmnmax =      18
     lnmax =       6     mgfft =      60  mpssoang =       3    mqgrid =    3620
     natom =       9  nloc_mem =       2    nspden =       1   nspinor =       1
    nsppol =       1      nsym =       8    n1xccc =       1    ntypat =       4
    occopt =       1   xclevel =       2
-    mband =          42        mffmem =           1         mkmem =          28
       mpw =        8208          nfft =      216000          nkpt =         163
Pmy_natom=         2
 PAW method is used; the additional fine FFT grid is defined by:
   mgfftf=        90    nfftf =    729000
================================================================================
P This job should need less than                     376.427 Mbytes of memory.
  Rough estimation (10% accuracy) of disk space for files :
_ WF disk file :    857.423 Mbytes ; DEN or POT disk file :      5.564 Mbytes.
================================================================================


 DATASET    3 : space group I4 m m (#107); Bravais tI (body-center tetrag.)
================================================================================
 Values of the parameters that define the memory need for DATASET  3.
     intxc =       0    ionmov =       0      iscf =      17    lmnmax =      18
     lnmax =       6     mgfft =      60  mpssoang =       3    mqgrid =    3583
     natom =       9  nloc_mem =       2    nspden =       1   nspinor =       1
    nsppol =       1      nsym =       8    n1xccc =       1    ntypat =       4
    occopt =       1   xclevel =       2
-    mband =          42        mffmem =           1         mkmem =          28
       mpw =        7942          nfft =      216000          nkpt =         163
Pmy_natom=         2
 PAW method is used; the additional fine FFT grid is defined by:
   mgfftf=        90    nfftf =    729000
================================================================================
P This job should need less than                     371.162 Mbytes of memory.
  Rough estimation (10% accuracy) of disk space for files :
_ WF disk file :    829.637 Mbytes ; DEN or POT disk file :      5.564 Mbytes.
================================================================================


 DATASET    4 : space group I4 m m (#107); Bravais tI (body-center tetrag.)
================================================================================
 Values of the parameters that define the memory need for DATASET  4.
     intxc =       0    ionmov =       0      iscf =      17    lmnmax =      18
     lnmax =       6     mgfft =      60  mpssoang =       3    mqgrid =    3546
     natom =       9  nloc_mem =       2    nspden =       1   nspinor =       1
    nsppol =       1      nsym =       8    n1xccc =       1    ntypat =       4
    occopt =       1   xclevel =       2
-    mband =          42        mffmem =           1         mkmem =          28
       mpw =        7700          nfft =      216000          nkpt =         163
Pmy_natom=         2
 PAW method is used; the additional fine FFT grid is defined by:
   mgfftf=        90    nfftf =    729000
================================================================================
P This job should need less than                     366.386 Mbytes of memory.
  Rough estimation (10% accuracy) of disk space for files :
_ WF disk file :    804.357 Mbytes ; DEN or POT disk file :      5.564 Mbytes.
================================================================================


 DATASET    5 : space group I4 m m (#107); Bravais tI (body-center tetrag.)
================================================================================
 Values of the parameters that define the memory need for DATASET  5.
     intxc =       0    ionmov =       0      iscf =      17    lmnmax =      18
     lnmax =       6     mgfft =      60  mpssoang =       3    mqgrid =    3509
     natom =       9  nloc_mem =       2    nspden =       1   nspinor =       1
    nsppol =       1      nsym =       8    n1xccc =       1    ntypat =       4
    occopt =       1   xclevel =       2
-    mband =          42        mffmem =           1         mkmem =          28
       mpw =        7499          nfft =      216000          nkpt =         163
Pmy_natom=         2
 PAW method is used; the additional fine FFT grid is defined by:
   mgfftf=        90    nfftf =    729000
================================================================================
P This job should need less than                     362.443 Mbytes of memory.
  Rough estimation (10% accuracy) of disk space for files :
_ WF disk file :    783.360 Mbytes ; DEN or POT disk file :      5.564 Mbytes.
================================================================================


 DATASET    6 : space group I4 m m (#107); Bravais tI (body-center tetrag.)
================================================================================
 Values of the parameters that define the memory need for DATASET  6.
     intxc =       0    ionmov =       0      iscf =      17    lmnmax =      18
     lnmax =       6     mgfft =      60  mpssoang =       3    mqgrid =    3472
     natom =       9  nloc_mem =       2    nspden =       1   nspinor =       1
    nsppol =       1      nsym =       8    n1xccc =       1    ntypat =       4
    occopt =       1   xclevel =       2
-    mband =          42        mffmem =           1         mkmem =          28
       mpw =        7250          nfft =      216000          nkpt =         163
Pmy_natom=         2
 PAW method is used; the additional fine FFT grid is defined by:
   mgfftf=        90    nfftf =    729000
================================================================================
P This job should need less than                     357.536 Mbytes of memory.
  Rough estimation (10% accuracy) of disk space for files :
_ WF disk file :    757.349 Mbytes ; DEN or POT disk file :      5.564 Mbytes.
================================================================================


 DATASET    7 : space group I4 m m (#107); Bravais tI (body-center tetrag.)
================================================================================
 Values of the parameters that define the memory need for DATASET  7.
     intxc =       0    ionmov =       0      iscf =      17    lmnmax =      18
     lnmax =       6     mgfft =      54  mpssoang =       3    mqgrid =    3435
     natom =       9  nloc_mem =       2    nspden =       1   nspinor =       1
    nsppol =       1      nsym =       8    n1xccc =       1    ntypat =       4
    occopt =       1   xclevel =       2
-    mband =          42        mffmem =           1         mkmem =          28
       mpw =        7004          nfft =      157464          nkpt =         163
Pmy_natom=         2
 PAW method is used; the additional fine FFT grid is defined by:
   mgfftf=        90    nfftf =    729000
================================================================================
P This job should need less than                     343.982 Mbytes of memory.
  Rough estimation (10% accuracy) of disk space for files :
_ WF disk file :    731.652 Mbytes ; DEN or POT disk file :      5.564 Mbytes.
================================================================================


 DATASET    8 : space group I4 m m (#107); Bravais tI (body-center tetrag.)
================================================================================
 Values of the parameters that define the memory need for DATASET  8.
     intxc =       0    ionmov =       0      iscf =      17    lmnmax =      18
     lnmax =       6     mgfft =      54  mpssoang =       3    mqgrid =    3398
     natom =       9  nloc_mem =       2    nspden =       1   nspinor =       1
    nsppol =       1      nsym =       8    n1xccc =       1    ntypat =       4
    occopt =       1   xclevel =       2
-    mband =          42        mffmem =           1         mkmem =          28
       mpw =        6814          nfft =      157464          nkpt =         163
Pmy_natom=         2
 PAW method is used; the additional fine FFT grid is defined by:
   mgfftf=        90    nfftf =    729000
================================================================================
P This job should need less than                     340.277 Mbytes of memory.
  Rough estimation (10% accuracy) of disk space for files :
_ WF disk file :    711.804 Mbytes ; DEN or POT disk file :      5.564 Mbytes.
================================================================================


 DATASET    9 : space group I4 m m (#107); Bravais tI (body-center tetrag.)
================================================================================
 Values of the parameters that define the memory need for DATASET  9.
     intxc =       0    ionmov =       0      iscf =      17    lmnmax =      18
     lnmax =       6     mgfft =      54  mpssoang =       3    mqgrid =    3361
     natom =       9  nloc_mem =       2    nspden =       1   nspinor =       1
    nsppol =       1      nsym =       8    n1xccc =       1    ntypat =       4
    occopt =       1   xclevel =       2
-    mband =          42        mffmem =           1         mkmem =          28
       mpw =        6576          nfft =      157464          nkpt =         163
Pmy_natom=         2
 PAW method is used; the additional fine FFT grid is defined by:
   mgfftf=        90    nfftf =    729000
================================================================================
P This job should need less than                     335.610 Mbytes of memory.
  Rough estimation (10% accuracy) of disk space for files :
_ WF disk file :    686.942 Mbytes ; DEN or POT disk file :      5.564 Mbytes.
================================================================================


 DATASET   10 : space group I4 m m (#107); Bravais tI (body-center tetrag.)
================================================================================
 Values of the parameters that define the memory need for DATASET 10.
     intxc =       0    ionmov =       0      iscf =      17    lmnmax =      18
     lnmax =       6     mgfft =      54  mpssoang =       3    mqgrid =    3324
     natom =       9  nloc_mem =       2    nspden =       1   nspinor =       1
    nsppol =       1      nsym =       8    n1xccc =       1    ntypat =       4
    occopt =       1   xclevel =       2
-    mband =          42        mffmem =           1         mkmem =          28
       mpw =        6364          nfft =      157464          nkpt =         163
Pmy_natom=         2
 PAW method is used; the additional fine FFT grid is defined by:
   mgfftf=        90    nfftf =    729000
================================================================================
P This job should need less than                     331.474 Mbytes of memory.
  Rough estimation (10% accuracy) of disk space for files :
_ WF disk file :    664.796 Mbytes ; DEN or POT disk file :      5.564 Mbytes.
================================================================================

--------------------------------------------------------------------------------
------------- Echo of variables that govern the present computation ------------
--------------------------------------------------------------------------------
-
- outvars: echo of selected default values                                      
-   iomode0 =  0 , fftalg0 =112 , wfoptalg0 = 10
-
- outvars: echo of global parameters not present in the input file              
-  max_nthreads =    0
-
 -outvars: echo values of preprocessed input variables --------
            acell1     1.5671682240E+01  1.5855459892E+01  1.5671682240E+01 Bohr
            acell2     1.5512180468E+01  1.5697923498E+01  1.5512180468E+01 Bohr
            acell3     1.5353137462E+01  1.5539389688E+01  1.5353137462E+01 Bohr
            acell4     1.5193105742E+01  1.5383021755E+01  1.5193105742E+01 Bohr
            acell5     1.5032113916E+01  1.5228775339E+01  1.5032113916E+01 Bohr
            acell6     1.4869087620E+01  1.5079059827E+01  1.4869087620E+01 Bohr
            acell7     1.4707047443E+01  1.4927227947E+01  1.4707047443E+01 Bohr
            acell8     1.4543229348E+01  1.4779454768E+01  1.4543229348E+01 Bohr
            acell9     1.4380173881E+01  1.4630075627E+01  1.4380173881E+01 Bohr
            acell10    1.4217816091E+01  1.4479199330E+01  1.4217816091E+01 Bohr
              amu      1.32905430E+02  1.26904470E+02  1.78490000E+02
                       3.54527000E+01
           diemac      1.20000000E+01
             ecut      1.60000000E+01 Hartree
-          fftalg         112
           istwfk        2    0    0    0    0    0    3    0    0    0
                         0    0    0    0    0    0    0    0    0    0
                         0    0    0    0    0    0    0    0    0    0
                         0    0    0    0    0    0    0    0    0    0
                         0    0    7    0    0    0    0    0    0    0
                       outvar_i_n : Printing only first  50 k-points.
              ixc     -101130
           jdtset        1    2    3    4    5    6    7    8    9   10
              kpt      0.00000000E+00  0.00000000E+00  0.00000000E+00
                       8.33333333E-02  0.00000000E+00  0.00000000E+00
                       1.66666667E-01  0.00000000E+00  0.00000000E+00
                       2.50000000E-01  0.00000000E+00  0.00000000E+00
                       3.33333333E-01  0.00000000E+00  0.00000000E+00
                       4.16666667E-01  0.00000000E+00  0.00000000E+00
                       5.00000000E-01  0.00000000E+00  0.00000000E+00
                       8.33333333E-02  8.33333333E-02  0.00000000E+00
                       1.66666667E-01  8.33333333E-02  0.00000000E+00
                       2.50000000E-01  8.33333333E-02  0.00000000E+00
                       3.33333333E-01  8.33333333E-02  0.00000000E+00
                       4.16666667E-01  8.33333333E-02  0.00000000E+00
                       5.00000000E-01  8.33333333E-02  0.00000000E+00
                      -4.16666667E-01  8.33333333E-02  0.00000000E+00
                      -3.33333333E-01  8.33333333E-02  0.00000000E+00
                      -2.50000000E-01  8.33333333E-02  0.00000000E+00
                      -1.66666667E-01  8.33333333E-02  0.00000000E+00
                      -8.33333333E-02  8.33333333E-02  0.00000000E+00
                       1.66666667E-01  1.66666667E-01  0.00000000E+00
                       2.50000000E-01  1.66666667E-01  0.00000000E+00
                       3.33333333E-01  1.66666667E-01  0.00000000E+00
                       4.16666667E-01  1.66666667E-01  0.00000000E+00
                       5.00000000E-01  1.66666667E-01  0.00000000E+00
                      -4.16666667E-01  1.66666667E-01  0.00000000E+00
                      -3.33333333E-01  1.66666667E-01  0.00000000E+00
                      -2.50000000E-01  1.66666667E-01  0.00000000E+00
                      -1.66666667E-01  1.66666667E-01  0.00000000E+00
                       2.50000000E-01  2.50000000E-01  0.00000000E+00
                       3.33333333E-01  2.50000000E-01  0.00000000E+00
                       4.16666667E-01  2.50000000E-01  0.00000000E+00
                       5.00000000E-01  2.50000000E-01  0.00000000E+00
                      -4.16666667E-01  2.50000000E-01  0.00000000E+00
                      -3.33333333E-01  2.50000000E-01  0.00000000E+00
                      -2.50000000E-01  2.50000000E-01  0.00000000E+00
                       3.33333333E-01  3.33333333E-01  0.00000000E+00
                       4.16666667E-01  3.33333333E-01  0.00000000E+00
                       5.00000000E-01  3.33333333E-01  0.00000000E+00
                      -4.16666667E-01  3.33333333E-01  0.00000000E+00
                      -3.33333333E-01  3.33333333E-01  0.00000000E+00
                       4.16666667E-01  4.16666667E-01  0.00000000E+00
                       5.00000000E-01  4.16666667E-01  0.00000000E+00
                      -4.16666667E-01  4.16666667E-01  0.00000000E+00
                       5.00000000E-01  5.00000000E-01  0.00000000E+00
                       8.33333333E-02  0.00000000E+00  8.33333333E-02
                       1.66666667E-01  0.00000000E+00  8.33333333E-02
                       2.50000000E-01  0.00000000E+00  8.33333333E-02
                       3.33333333E-01  0.00000000E+00  8.33333333E-02
                       4.16666667E-01  0.00000000E+00  8.33333333E-02
                       5.00000000E-01  0.00000000E+00  8.33333333E-02
                      -4.16666667E-01  0.00000000E+00  8.33333333E-02
                       outvar_i_n : Printing only first  50 k-points.
         kptrlatt       12    0    0      0   12    0      0    0   12
          kptrlen1     1.88060187E+02
          kptrlen2     1.86146166E+02
          kptrlen3     1.84237650E+02
          kptrlen4     1.82317269E+02
          kptrlen5     1.80385367E+02
          kptrlen6     1.78429051E+02
          kptrlen7     1.76484569E+02
          kptrlen8     1.74518752E+02
          kptrlen9     1.72562087E+02
          kptrlen10    1.70613793E+02
P           mkmem          28
            natom           9
            nband          42
           ndtset          10
            ngfft1         60      60      60
            ngfft2         60      60      60
            ngfft3         60      60      60
            ngfft4         60      60      60
            ngfft5         60      60      60
            ngfft6         60      60      60
            ngfft7         54      54      54
            ngfft8         54      54      54
            ngfft9         54      54      54
            ngfft10        54      54      54
          ngfftdg1         96      96      96
          ngfftdg2         90      90      90
          ngfftdg3         90      90      90
          ngfftdg4         90      90      90
          ngfftdg5         90      90      90
          ngfftdg6         90      90      90
          ngfftdg7         90      90      90
          ngfftdg8         90      90      90
          ngfftdg9         90      90      90
          ngfftdg10        90      90      90
             nkpt         163
            nstep        2500
             nsym           8
           ntypat           4
              occ      2.000000  2.000000  2.000000  2.000000  2.000000  2.000000
                       2.000000  2.000000  2.000000  2.000000  2.000000  2.000000
                       2.000000  2.000000  2.000000  2.000000  2.000000  2.000000
                       2.000000  2.000000  2.000000  2.000000  2.000000  2.000000
                       2.000000  2.000000  2.000000  2.000000  2.000000  2.000000
                       2.000000  2.000000  2.000000  2.000000  2.000000  2.000000
                       0.000000  0.000000  0.000000  0.000000  0.000000  0.000000
        pawecutdg      4.00000000E+01 Hartree
            prtwf           0
            rprim1     0.0000000000E+00  6.9871632850E-01  7.1539883442E-01
                       7.0710678119E-01  0.0000000000E+00  7.0710678119E-01
                       7.1539883442E-01  6.9871632850E-01  0.0000000000E+00
            rprim2     0.0000000000E+00  6.9853725732E-01  7.1557368603E-01
                       7.0710678119E-01  0.0000000000E+00  7.0710678119E-01
                       7.1557368603E-01  6.9853725732E-01  0.0000000000E+00
            rprim3     0.0000000000E+00  6.9842336796E-01  7.1568484621E-01
                       7.0710678119E-01  0.0000000000E+00  7.0710678119E-01
                       7.1568484621E-01  6.9842336796E-01  0.0000000000E+00
            rprim4     0.0000000000E+00  6.9815594891E-01  7.1594571791E-01
                       7.0710678119E-01  0.0000000000E+00  7.0710678119E-01
                       7.1594571791E-01  6.9815594891E-01  0.0000000000E+00
            rprim5     0.0000000000E+00  6.9773323591E-01  7.1635768405E-01
                       7.0710678119E-01  0.0000000000E+00  7.0710678119E-01
                       7.1635768405E-01  6.9773323591E-01  0.0000000000E+00
            rprim6     0.0000000000E+00  6.9697840831E-01  7.1709211288E-01
                       7.0710678119E-01  0.0000000000E+00  7.0710678119E-01
                       7.1709211288E-01  6.9697840831E-01  0.0000000000E+00
            rprim7     0.0000000000E+00  6.9635970955E-01  7.1769293915E-01
                       7.0710678119E-01  0.0000000000E+00  7.0710678119E-01
                       7.1769293915E-01  6.9635970955E-01  0.0000000000E+00
            rprim8     0.0000000000E+00  6.9543159277E-01  7.1859230428E-01
                       7.0710678119E-01  0.0000000000E+00  7.0710678119E-01
                       7.1859230428E-01  6.9543159277E-01  0.0000000000E+00
            rprim9     0.0000000000E+00  6.9460116930E-01  7.1939503446E-01
                       7.0710678119E-01  0.0000000000E+00  7.0710678119E-01
                       7.1939503446E-01  6.9460116930E-01  0.0000000000E+00
            rprim10    0.0000000000E+00  6.9386367972E-01  7.2010637684E-01
                       7.0710678119E-01  0.0000000000E+00  7.0710678119E-01
                       7.2010637684E-01  6.9386367972E-01  0.0000000000E+00
          spgroup         107
           symrel      1  0  0   0  1  0   0  0  1       0  0  1   0  1  0   1  0  0
                       0 -1  1   0 -1  0   1 -1  0       1 -1  0   0 -1  0   0 -1  1
                       0 -1  1  -1  0  1   0  0  1       0  0  1  -1  0  1   0 -1  1
                       1  0  0   1  0 -1   1 -1  0       1 -1  0   1  0 -1   1  0  0
           toldfe      1.00000000E-08 Hartree
            typat      1  1  4  2  2  2  2  2  3
           useylm           1
              wtk        0.00058    0.00463    0.00463    0.00463    0.00463    0.00463
                         0.00231    0.00231    0.00926    0.00926    0.00926    0.00926
                         0.00926    0.00926    0.00926    0.00926    0.00926    0.00463
                         0.00231    0.00926    0.00926    0.00926    0.00926    0.00926
                         0.00926    0.00926    0.00463    0.00231    0.00926    0.00926
                         0.00926    0.00926    0.00926    0.00463    0.00231    0.00926
                         0.00926    0.00926    0.00463    0.00231    0.00926    0.00463
                         0.00116    0.00116    0.00463    0.00463    0.00463    0.00463
                         0.00463    0.00463
                       outvars : Printing only first  50 k-points.
           xangst1     2.9664359859E+00  2.8718832280E+00  2.9664359859E+00
                       8.8993079577E+00  8.6664055588E+00  8.8993079577E+00
                       5.9328719717E+00  9.0985786899E+00  5.9328719717E+00
                       5.9328719717E+00  5.7691891661E+00  2.8703514300E+00
                       5.9328719719E+00  5.7691891661E+00  8.9953925137E+00
                       5.9328719719E+00  2.7991208759E+00  5.9328719719E+00
                       8.9953925137E+00  5.7691891661E+00  5.9328719719E+00
                       2.8703514300E+00  5.7691891661E+00  5.9328719717E+00
                       2.1369854483E-12 -7.5162846316E-02  2.1369854483E-12
           xangst2     2.9369621245E+00  2.8430150700E+00  2.9369621245E+00
                       8.8108863735E+00  8.5770925168E+00  8.8108863735E+00
                       5.8739242490E+00  8.9741214996E+00  5.8739242490E+00
                       5.8739242490E+00  5.7114474480E+00  2.8656108849E+00
                       5.8739242490E+00  5.7114474480E+00  8.8822376132E+00
                       5.8739242490E+00  2.7911188574E+00  5.8739242490E+00
                       8.8822376132E+00  5.7114474480E+00  5.8739242490E+00
                       2.8656108849E+00  5.7114474480E+00  5.8739242490E+00
                       6.7745408122E-13 -7.7963788845E-02  6.7745408122E-13
           xangst3     2.9073016540E+00  2.8141735304E+00  2.9073016540E+00
                       8.7219049621E+00  8.4885354331E+00  8.7219049621E+00
                       5.8146033080E+00  8.8509807787E+00  5.8146033080E+00
                       5.8146033080E+00  5.6550072727E+00  2.8598699042E+00
                       5.8146033082E+00  5.6550072727E+00  8.7693367119E+00
                       5.8146033082E+00  2.7819452336E+00  5.8146033082E+00
                       8.7693367119E+00  5.6550072727E+00  5.8146033082E+00
                       2.8598699042E+00  5.6550072727E+00  5.8146033080E+00
                       2.2914636600E-12 -8.1053377487E-02  2.2914636600E-12
           xangst4     2.8780464028E+00  2.7859086057E+00  2.8780464028E+00
                       8.6341392083E+00  8.3989744207E+00  8.6341392083E+00
                       5.7560928055E+00  8.7236444819E+00  5.7560928055E+00
                       5.7560928055E+00  5.5973197132E+00  2.8532983395E+00
                       5.7560928056E+00  5.5973197132E+00  8.6588872716E+00
                       5.7560928056E+00  2.7709036878E+00  5.7560928056E+00
                       8.6588872716E+00  5.5973197132E+00  5.7560928056E+00
                       2.8532983395E+00  5.5973197132E+00  5.7560928055E+00
                       1.6694879215E-12 -8.5329170988E-02  1.6694879215E-12
           xangst5     2.8491880712E+00  2.7558692112E+00  2.8491880712E+00
                       8.5475642136E+00  8.3060943484E+00  8.5475642136E+00
                       5.6983761424E+00  8.5946739446E+00  5.6983761424E+00
                       5.6983761424E+00  5.5382570298E+00  2.8457672578E+00
                       5.6983761424E+00  5.5382570298E+00  8.5509850271E+00
                       5.6983761424E+00  2.7589487431E+00  5.6983761424E+00
                       8.5509850271E+00  5.5382570298E+00  5.6983761424E+00
                       2.8457672578E+00  5.5382570298E+00  5.6983761424E+00
                       7.8099998699E-13 -8.8841719496E-02  7.8099998699E-13
           xangst6     2.8211774374E+00  2.7272102561E+00  2.8211774374E+00
                       8.4635323121E+00  8.2113028143E+00  8.4635323121E+00
                       5.6423548748E+00  8.4559961770E+00  5.6423548748E+00
                       5.6423548748E+00  5.4767650078E+00  2.8371156086E+00
                       5.6423548747E+00  5.4767650078E+00  8.4475941409E+00
                       5.6423548747E+00  2.7437325918E+00  5.6423548747E+00
                       8.4475941409E+00  5.4767650078E+00  5.6423548747E+00
                       2.8371156086E+00  5.4767650078E+00  5.6423548748E+00
                      -1.7615672391E-12 -9.5518909170E-02 -1.7615672391E-12
           xangst7     2.7927708470E+00  2.6971340802E+00  2.7927708470E+00
                       8.3783125411E+00  8.1166470496E+00  8.3783125411E+00
                       5.5855416941E+00  8.3227624945E+00  5.5855416941E+00
                       5.5855416941E+00  5.4170630927E+00  2.8271523969E+00
                       5.5855416941E+00  5.4170630927E+00  8.3439309913E+00
                       5.5855416941E+00  2.7283215338E+00  5.5855416941E+00
                       8.3439309913E+00  5.4170630927E+00  5.5855416941E+00
                       2.8271523969E+00  5.4170630927E+00  5.5855416941E+00
                       5.2904078033E-13 -1.0087851536E-01  5.2904078033E-13
           xangst8     2.7651236089E+00  2.6675709906E+00  2.7651236089E+00
                       8.2953708267E+00  8.0195746347E+00  8.2953708267E+00
                       5.5302472178E+00  8.1820930138E+00  5.5302472178E+00
                       5.5302472178E+00  5.3549103008E+00  2.8161420106E+00
                       5.5302472178E+00  5.3549103008E+00  8.2443524250E+00
                       5.5302472178E+00  2.7103796997E+00  5.5302472178E+00
                       8.2443524250E+00  5.3549103008E+00  5.5302472178E+00
                       2.8161420106E+00  5.3549103008E+00  5.5302472178E+00
                      -5.7773610344E-13 -1.0804352632E-01 -5.7773610344E-13
           xangst9     2.7371759074E+00  2.6387146049E+00  2.7371759074E+00
                       8.2115277221E+00  7.9243935288E+00  8.2115277221E+00
                       5.4743518147E+00  8.0446200962E+00  5.4743518147E+00
                       5.4743518147E+00  5.2941360215E+00  2.8036910406E+00
                       5.4743518148E+00  5.2941360215E+00  8.1450125889E+00
                       5.4743518148E+00  2.6912575695E+00  5.4743518148E+00
                       8.1450125889E+00  5.2941360215E+00  5.4743518148E+00
                       2.8036910406E+00  5.2941360215E+00  5.4743518147E+00
                       2.9658513895E-12 -1.1584338438E-01  2.9658513895E-12
           xangst10    2.7089480994E+00  2.6106287495E+00  2.7089480994E+00
                       8.1268442982E+00  7.8310816071E+00  8.1268442982E+00
                       5.4178961987E+00  7.9097391019E+00  5.4178961987E+00
                       5.4178961987E+00  5.2347561727E+00  2.7898472552E+00
                       5.4178961989E+00  5.2347561727E+00  8.0459451424E+00
                       5.4178961989E+00  2.6708473066E+00  5.4178961989E+00
                       8.0459451424E+00  5.2347561727E+00  5.4178961989E+00
                       2.7898472552E+00  5.2347561727E+00  5.4178961987E+00
                       3.6383356189E-12 -1.2435980447E-01  3.6383356189E-12
            xcart1     5.6057516041E+00  5.4270727865E+00  5.6057516041E+00
                       1.6817254812E+01  1.6377133063E+01  1.6817254812E+01
                       1.1211503208E+01  1.7193821922E+01  1.1211503208E+01
                       1.1211503208E+01  1.0902187533E+01  5.4241781078E+00
                       1.1211503208E+01  1.0902187533E+01  1.6998828309E+01
                       1.1211503208E+01  5.2895718683E+00  1.1211503208E+01
                       1.6998828309E+01  1.0902187533E+01  1.1211503208E+01
                       5.4241781078E+00  1.0902187533E+01  1.1211503208E+01
                       4.0383172472E-12 -1.4203719491E-01  4.0383172472E-12
            xcart2     5.5500540780E+00  5.3725198740E+00  5.5500540780E+00
                       1.6650162234E+01  1.6208355873E+01  1.6650162234E+01
                       1.1100108156E+01  1.6958631917E+01  1.1100108156E+01
                       1.1100108156E+01  1.0793071499E+01  5.4152197758E+00
                       1.1100108156E+01  1.0793071499E+01  1.6784996536E+01
                       1.1100108156E+01  5.2744502447E+00  1.1100108156E+01
                       1.6784996536E+01  1.0793071499E+01  1.1100108156E+01
                       5.4152197758E+00  1.0793071499E+01  1.1100108156E+01
                       1.2802026811E-12 -1.4733020920E-01  1.2802026811E-12
            xcart3     5.4940039118E+00  5.3180172628E+00  5.4940039118E+00
                       1.6482011735E+01  1.6041007238E+01  1.6482011735E+01
                       1.0988007823E+01  1.6725929679E+01  1.0988007823E+01
                       1.0988007823E+01  1.0686415025E+01  5.4043708947E+00
                       1.0988007824E+01  1.0686415025E+01  1.6571644753E+01
                       1.0988007824E+01  5.2571146082E+00  1.0988007824E+01
                       1.6571644753E+01  1.0686415025E+01  1.0988007824E+01
                       5.4043708947E+00  1.0686415025E+01  1.0988007823E+01
                       4.3302387609E-12 -1.5316868560E-01  4.3302387609E-12
            xcart4     5.4387194990E+00  5.2646042960E+00  5.4387194990E+00
                       1.6316158497E+01  1.5871761452E+01  1.6316158497E+01
                       1.0877438998E+01  1.6485298951E+01  1.0877438998E+01
                       1.0877438998E+01  1.0577401336E+01  5.3919524370E+00
                       1.0877438998E+01  1.0577401336E+01  1.6362925559E+01
                       1.0877438998E+01  5.2362491105E+00  1.0877438998E+01
                       1.6362925559E+01  1.0577401336E+01  1.0877438998E+01
                       5.3919524370E+00  1.0577401336E+01  1.0877438998E+01
                       3.1548749537E-12 -1.6124876431E-01  3.1548749537E-12
            xcart5     5.3841851557E+00  5.2078380672E+00  5.3841851557E+00
                       1.6152555467E+01  1.5696243552E+01  1.6152555467E+01
                       1.0768370311E+01  1.6241579957E+01  1.0768370311E+01
                       1.0768370311E+01  1.0465789040E+01  5.3777207551E+00
                       1.0768370311E+01  1.0465789040E+01  1.6159019868E+01
                       1.0768370311E+01  5.2136575391E+00  1.0768370311E+01
                       1.6159019868E+01  1.0465789040E+01  1.0768370311E+01
                       5.3777207551E+00  1.0465789040E+01  1.0768370311E+01
                       1.4758760852E-12 -1.6788651902E-01  1.4758760852E-12
            xcart6     5.3312527289E+00  5.1536804908E+00  5.3312527289E+00
                       1.5993758187E+01  1.5517113513E+01  1.5993758187E+01
                       1.0662505458E+01  1.5979516955E+01  1.0662505458E+01
                       1.0662505458E+01  1.0349585959E+01  5.3613715076E+00
                       1.0662505458E+01  1.0349585959E+01  1.5963639408E+01
                       1.0662505458E+01  5.1849031804E+00  1.0662505458E+01
                       1.5963639408E+01  1.0349585959E+01  1.0662505458E+01
                       5.3613715076E+00  1.0349585959E+01  1.0662505458E+01
                      -3.3288796465E-12 -1.8050457884E-01 -3.3288796465E-12
            xcart7     5.2775720528E+00  5.0968447553E+00  5.2775720528E+00
                       1.5832716158E+01  1.5338240041E+01  1.5832716158E+01
                       1.0555144106E+01  1.5727741784E+01  1.0555144106E+01
                       1.0555144106E+01  1.0236765690E+01  5.3425437660E+00
                       1.0555144106E+01  1.0236765690E+01  1.5767744445E+01
                       1.0555144106E+01  5.1557805014E+00  1.0555144106E+01
                       1.5767744445E+01  1.0236765690E+01  1.0555144106E+01
                       5.3425437660E+00  1.0236765690E+01  1.0555144106E+01
                       9.9974218794E-13 -1.9063276673E-01  9.9974218794E-13
            xcart8     5.2253263444E+00  5.0409786123E+00  5.2253263444E+00
                       1.5675979033E+01  1.5154799762E+01  1.5675979033E+01
                       1.0450652689E+01  1.5461914990E+01  1.0450652689E+01
                       1.0450652689E+01  1.0119313935E+01  5.3217371514E+00
                       1.0450652689E+01  1.0119313935E+01  1.5579568226E+01
                       1.0450652689E+01  5.1218753486E+00  1.0450652689E+01
                       1.5579568226E+01  1.0119313935E+01  1.0450652689E+01
                       5.3217371514E+00  1.0119313935E+01  1.0450652689E+01
                      -1.0917630126E-12 -2.0417267517E-01 -1.0917630126E-12
            xcart9     5.1725128425E+00  4.9864479461E+00  5.1725128425E+00
                       1.5517538527E+01  1.4974933539E+01  1.5517538527E+01
                       1.0345025685E+01  1.5202128825E+01  1.0345025685E+01
                       1.0345025685E+01  1.0004467191E+01  5.2982082280E+00
                       1.0345025685E+01  1.0004467191E+01  1.5391843142E+01
                       1.0345025685E+01  5.0857397595E+00  1.0345025685E+01
                       1.5391843142E+01  1.0004467191E+01  1.0345025685E+01
                       5.2982082280E+00  1.0004467191E+01  1.0345025685E+01
                       5.6046468769E-12 -2.1891227078E-01  5.6046468769E-12
            xcart10    5.1191700161E+00  4.9333733711E+00  5.1191700161E+00
                       1.5357510048E+01  1.4798599562E+01  1.5357510048E+01
                       1.0238340032E+01  1.4947240685E+01  1.0238340032E+01
                       1.0238340032E+01  9.8922555388E+00  5.2720472650E+00
                       1.0238340032E+01  9.8922555388E+00  1.5204632799E+01
                       1.0238340032E+01  5.0471699523E+00  1.0238340032E+01
                       1.5204632799E+01  9.8922555388E+00  1.0238340032E+01
                       5.2720472650E+00  9.8922555388E+00  1.0238340032E+01
                       6.8754578993E-12 -2.3500597239E-01  6.8754578993E-12
             xred1     2.4781017865E-01  2.5218982135E-01  2.4781017865E-01
                       7.4781017865E-01  7.5218982135E-01  7.4781017865E-01
                       7.8510170213E-01  2.1489829787E-01  7.8510170213E-01
                       2.3971639922E-01  2.4408831519E-01  7.5591168481E-01
                       7.5591168481E-01  7.6028360078E-01  2.3971639922E-01
                       2.4153163247E-01  7.5846836753E-01  2.4153163247E-01
                       2.3971639922E-01  7.6028360078E-01  7.5591168481E-01
                       7.5591168481E-01  2.4408831519E-01  2.3971639922E-01
                      -6.4856809608E-03  6.4856809608E-03 -6.4856809608E-03
             xred2     2.4790518583E-01  2.5209481417E-01  2.4790518583E-01
                       7.4790518583E-01  7.5209481417E-01  7.4790518583E-01
                       7.8252531317E-01  2.1747468683E-01  7.8252531317E-01
                       2.4195315167E-01  2.4589973226E-01  7.5410026774E-01
                       7.5410026774E-01  7.5804684833E-01  2.4195315167E-01
                       2.4337994065E-01  7.5662005935E-01  2.4337994065E-01
                       2.4195315167E-01  7.5804684833E-01  7.5410026774E-01
                       7.5410026774E-01  2.4589973226E-01  2.4195315167E-01
                      -6.7982853012E-03  6.7982853012E-03 -6.7982853012E-03
             xred3     2.4797268650E-01  2.5202731350E-01  2.4797268650E-01
                       7.4797268650E-01  7.5202731350E-01  7.4797268650E-01
                       7.7990978814E-01  2.2009021186E-01  7.7990978814E-01
                       2.4421587988E-01  2.4762677089E-01  7.5237322911E-01
                       7.5237322911E-01  7.5578412012E-01  2.4421587988E-01
                       2.4513286968E-01  7.5486713032E-01  2.4513286968E-01
                       2.4421587988E-01  7.5578412012E-01  7.5237322911E-01
                       7.5237322911E-01  2.4762677089E-01  2.4421587988E-01
                      -7.1420697937E-03  7.1420697937E-03 -7.1420697937E-03
             xred4     2.4816283093E-01  2.5183716907E-01  2.4816283093E-01
                       7.4816283093E-01  7.5183716907E-01  7.4816283093E-01
                       7.7708375150E-01  2.2291624850E-01  7.7708375150E-01
                       2.4644764303E-01  2.4925290174E-01  7.5074709826E-01
                       7.5074709826E-01  7.5355235697E-01  2.4644764303E-01
                       2.4682622466E-01  7.5317377534E-01  2.4682622466E-01
                       2.4644764303E-01  7.5355235697E-01  7.5074709826E-01
                       7.5074709826E-01  2.4925290174E-01  2.4644764303E-01
                      -7.6009416066E-03  7.6009416066E-03 -7.6009416066E-03
             xred5     2.4826643452E-01  2.5173356548E-01  2.4826643452E-01
                       7.4826643452E-01  7.5173356548E-01  7.4826643452E-01
                       7.7426354176E-01  2.2573645824E-01  7.7426354176E-01
                       2.4862167900E-01  2.5077800727E-01  7.4922199273E-01
                       7.4922199273E-01  7.5137832100E-01  2.4862167900E-01
                       2.4854385857E-01  7.5145614143E-01  2.4854385857E-01
                       2.4862167900E-01  7.5137832100E-01  7.4922199273E-01
                       7.4922199273E-01  2.5077800727E-01  2.4862167900E-01
                      -8.0034338518E-03  8.0034338518E-03 -8.0034338518E-03
             xred6     2.4864735844E-01  2.5135264156E-01  2.4864735844E-01
                       7.4864735844E-01  7.5135264156E-01  7.4864735844E-01
                       7.7095673416E-01  2.2904326584E-01  7.7095673416E-01
                       2.5074429555E-01  2.5208044192E-01  7.4791955808E-01
                       7.4791955808E-01  7.4925570445E-01  2.5074429555E-01
                       2.5015374583E-01  7.4984625417E-01  2.5015374583E-01
                       2.5074429555E-01  7.4925570445E-01  7.4791955808E-01
                       7.4791955808E-01  2.5208044192E-01  2.5074429555E-01
                      -8.7087251132E-03  8.7087251132E-03 -8.7087251132E-03
             xred7     2.4883546690E-01  2.5116453310E-01  2.4883546690E-01
                       7.4883546690E-01  7.5116453310E-01  7.4883546690E-01
                       7.6785151558E-01  2.3214848442E-01  7.6785151558E-01
                       2.5285170374E-01  2.5330375113E-01  7.4669624887E-01
                       7.4669624887E-01  7.4714829626E-01  2.5285170374E-01
                       2.5171279682E-01  7.4828720318E-01  2.5171279682E-01
                       2.5285170374E-01  7.4714829626E-01  7.4669624887E-01
                       7.4669624887E-01  2.5330375113E-01  2.5285170374E-01
                      -9.3069724099E-03  9.3069724099E-03 -9.3069724099E-03
             xred8     2.4921236681E-01  2.5078763319E-01  2.4921236681E-01
                       7.4921236681E-01  7.5078763319E-01  7.4921236681E-01
                       7.6439531416E-01  2.3560468584E-01  7.6439531416E-01
                       2.5488421764E-01  2.5434112071E-01  7.4565887929E-01
                       7.4565887929E-01  7.4511578236E-01  2.5488421764E-01
                       2.5321168295E-01  7.4678831705E-01  2.5321168295E-01
                       2.5488421764E-01  7.4511578236E-01  7.4565887929E-01
                       7.4565887929E-01  2.5434112071E-01  2.5488421764E-01
                      -1.0093745586E-02  1.0093745586E-02 -1.0093745586E-02
             xred9     2.4960980821E-01  2.5039019179E-01  2.4960980821E-01
                       7.4960980821E-01  7.5039019179E-01  7.4960980821E-01
                       7.6098266770E-01  2.3901733230E-01  7.6098266770E-01
                       2.5687516170E-01  2.5527515956E-01  7.4472484044E-01
                       7.4472484044E-01  7.4312483830E-01  2.5687516170E-01
                       2.5458012190E-01  7.4541987810E-01  2.5458012190E-01
                       2.5687516170E-01  7.4312483830E-01  7.4472484044E-01
                       7.4472484044E-01  2.5527515956E-01  2.5687516170E-01
                      -1.0958231293E-02  1.0958231293E-02 -1.0958231293E-02
             xred10    2.5003853312E-01  2.4996146688E-01  2.5003853312E-01
                       7.5003853312E-01  7.4996146688E-01  7.5003853312E-01
                       7.5757212235E-01  2.4242787765E-01  7.5757212235E-01
                       2.5883585018E-01  2.5609598920E-01  7.4390401080E-01
                       7.4390401080E-01  7.4116414982E-01  2.5883585018E-01
                       2.5580609379E-01  7.4419390621E-01  2.5580609379E-01
                       2.5883585018E-01  7.4116414982E-01  7.4390401080E-01
                       7.4390401080E-01  2.5609598920E-01  2.5883585018E-01
                      -1.1910825350E-02  1.1910825350E-02 -1.1910825350E-02
            znucl       55.00000   53.00000   72.00000   17.00000

================================================================================

 chkinp: Checking input parameters for consistency, jdtset=   1.

 chkinp: Checking input parameters for consistency, jdtset=   2.

 chkinp: Checking input parameters for consistency, jdtset=   3.

 chkinp: Checking input parameters for consistency, jdtset=   4.

 chkinp: Checking input parameters for consistency, jdtset=   5.

 chkinp: Checking input parameters for consistency, jdtset=   6.

 chkinp: Checking input parameters for consistency, jdtset=   7.

 chkinp: Checking input parameters for consistency, jdtset=   8.

 chkinp: Checking input parameters for consistency, jdtset=   9.

 chkinp: Checking input parameters for consistency, jdtset=  10.

================================================================================
== DATASET  1 ==================================================================
-   mpi_nproc: 6, omp_nthreads: -1 (-1 if OMP is not activated)


--- !DatasetInfo
iteration_state: {dtset: 1, }
dimensions: {natom: 9, nkpt: 163, mband: 42, nsppol: 1, nspinor: 1, nspden: 1, mpw: 8437, }
cutoff_energies: {ecut:  16.0, pawecutdg:  40.0, }
electrons: {nelect:   7.20000000E+01, charge:   0.00000000E+00, occopt:   1.00000000E+00, tsmear:   1.00000000E-02, }
meta: {optdriver: 0, ionmov: 0, optcell: 0, iscf: 17, paral_kgb: 0, }
...

 Real(R)+Recip(G) space primitive vectors, cartesian coordinates (Bohr,Bohr^-1):
 R(1)=  0.0000000 10.9500603 11.2115032  G(1)= -0.0445971  0.0456618  0.0445971
 R(2)= 11.2115032  0.0000000 11.2115032  G(2)=  0.0445971 -0.0456618  0.0445971
 R(3)= 11.2115032 10.9500603  0.0000000  G(3)=  0.0445971  0.0456618 -0.0445971
 Unit cell volume ucvol=  2.7527971E+03 bohr^3
 Angles (23,13,12)=  5.96113186E+01  6.07773628E+01  5.96113186E+01 degrees

 Coarse grid specifications (used for wave-functions):

 getcut: wavevector=  0.0000  0.0000  0.0000  ngfft=  60  60  60
         ecut(hartree)=     16.000   => boxcut(ratio)=   2.10159

 Fine grid specifications (used for densities):

 getcut: wavevector=  0.0000  0.0000  0.0000  ngfft=  96  96  96
         ecut(hartree)=     40.000   => boxcut(ratio)=   2.12666

--- Pseudopotential description ------------------------------------------------
- pspini: atom type   1  psp file is ../../../Psps_for_tests/ATOMICDATA/Cs.GGA_PBE-JTH.xml
- pspatm: opening atomic psp file    ../../../Psps_for_tests/ATOMICDATA/Cs.GGA_PBE-JTH.xml
- pspatm : Reading pseudopotential header in XML form from ../../../Psps_for_tests/ATOMICDATA/Cs.GGA_PBE-JTH.xml
 Pseudopotential format is: paw10
 basis_size (lnmax)=  6 (lmn_size= 18), orbitals=   0   0   1   1   2   2
 Spheres core radius: rc_sph= 2.20660278
 1 radial meshes are used:
  - mesh 1: r(i)=AA*[exp(BB*(i-1))-1], size=1500 , AA= 0.15922E-03 BB= 0.87573E-02
 Shapefunction is SIN type: shapef(r)=[sin(pi*r/rshp)/(pi*r/rshp)]**2
 Radius for shape functions =  2.00394208
 mmax= 1500
 Radial grid used for partial waves is grid 1
 Radial grid used for projectors is grid 1
 Radial grid used for (t)core density is grid 1
 Radial grid used for Vloc is grid 1
 Radial grid used for pseudo valence density is grid 1
 Mesh size for Vloc has been set to 1341 to avoid numerical noise.
 Compensation charge density is not taken into account in XC energy/potential
 pspatm: atomic psp has been read  and splines computed

- pspini: atom type   2  psp file is ../../../Psps_for_tests/ATOMICDATA/I.GGA_PBE-JTH.xml
- pspatm: opening atomic psp file    ../../../Psps_for_tests/ATOMICDATA/I.GGA_PBE-JTH.xml
- pspatm : Reading pseudopotential header in XML form from ../../../Psps_for_tests/ATOMICDATA/I.GGA_PBE-JTH.xml
 Pseudopotential format is: paw10
 basis_size (lnmax)=  4 (lmn_size=  8), orbitals=   0   0   1   1
 Spheres core radius: rc_sph= 2.30022271
 1 radial meshes are used:
  - mesh 1: r(i)=AA*[exp(BB*(i-1))-1], size=2000 , AA= 0.12610E-03 BB= 0.66836E-02
 Shapefunction is SIN type: shapef(r)=[sin(pi*r/rshp)/(pi*r/rshp)]**2
 Radius for shape functions =  2.10879093
 mmax= 2000
 Radial grid used for partial waves is grid 1
 Radial grid used for projectors is grid 1
 Radial grid used for (t)core density is grid 1
 Radial grid used for Vloc is grid 1
 Radial grid used for pseudo valence density is grid 1
 Mesh size for Vloc has been set to 1792 to avoid numerical noise.
 Compensation charge density is not taken into account in XC energy/potential
 pspatm: atomic psp has been read  and splines computed

- pspini: atom type   3  psp file is ../../../Psps_for_tests/ATOMICDATA/Hf.GGA_PBE-JTH.xml
- pspatm: opening atomic psp file    ../../../Psps_for_tests/ATOMICDATA/Hf.GGA_PBE-JTH.xml
- pspatm : Reading pseudopotential header in XML form from ../../../Psps_for_tests/ATOMICDATA/Hf.GGA_PBE-JTH.xml
 Pseudopotential format is: paw10
 basis_size (lnmax)=  6 (lmn_size= 18), orbitals=   0   0   1   1   2   2
 Spheres core radius: rc_sph= 2.41000000
 1 radial meshes are used:
  - mesh 1: r(i)=AA*[exp(BB*(i-1))-1], size= 972 , AA= 0.19796E-03 BB= 0.14253E-01
 Shapefunction is SIN type: shapef(r)=[sin(pi*r/rshp)/(pi*r/rshp)]**2
 Radius for shape functions =  2.41000000
 mmax=  972
 Radial grid used for partial waves is grid 1
 Radial grid used for projectors is grid 1
 Radial grid used for (t)core density is grid 1
 Radial grid used for Vloc is grid 1
 Radial grid used for pseudo valence density is grid 1
 Mesh size for Vloc has been set to  809 to avoid numerical noise.
 Compensation charge density is not taken into account in XC energy/potential
 pspatm: atomic psp has been read  and splines computed

- pspini: atom type   4  psp file is ../../../Psps_for_tests/ATOMICDATA/Cl.GGA_PBE-JTH.xml
- pspatm: opening atomic psp file    ../../../Psps_for_tests/ATOMICDATA/Cl.GGA_PBE-JTH.xml
- pspatm : Reading pseudopotential header in XML form from ../../../Psps_for_tests/ATOMICDATA/Cl.GGA_PBE-JTH.xml
 Pseudopotential format is: paw10
 basis_size (lnmax)=  4 (lmn_size=  8), orbitals=   0   0   1   1
 Spheres core radius: rc_sph= 1.80315674
 1 radial meshes are used:
  - mesh 1: r(i)=AA*[exp(BB*(i-1))-1], size=1400 , AA= 0.50355E-03 BB= 0.85603E-02
 Shapefunction is SIN type: shapef(r)=[sin(pi*r/rshp)/(pi*r/rshp)]**2
 Radius for shape functions =  1.61320365
 mmax= 1400
 Radial grid used for partial waves is grid 1
 Radial grid used for projectors is grid 1
 Radial grid used for (t)core density is grid 1
 Radial grid used for Vloc is grid 1
 Radial grid used for pseudo valence density is grid 1
 Mesh size for Vloc has been set to 1238 to avoid numerical noise.
 Compensation charge density is not taken into account in XC energy/potential
 pspatm: atomic psp has been read  and splines computed

   4.43613238E+04                                ecore*ucvol(ha*bohr**3)
--------------------------------------------------------------------------------

_setup2: Arith. and geom. avg. npw (full set) are    8415.146    8415.140

================================================================================

--- !BeginCycle
iteration_state: {dtset: 1, }
solver: {iscf: 17, nstep: 2500, nline: 4, wfoptalg: 10, }
tolerances: {toldfe: 1.00E-08, }
...

     iter   Etot(hartree)      deltaE(h)  residm     nres2
 ETOT  1  -163.01476740633    -1.630E+02 7.144E+00 5.775E+00
 ETOT  2  -164.86429933128    -1.850E+00 2.826E-02 3.780E+00
 ETOT  3  -164.84774968769     1.655E-02 1.860E-02 6.406E-01
 ETOT  4  -164.84782390977    -7.422E-05 7.810E-03 1.373E-01
 ETOT  5  -164.84780508497     1.882E-05 5.712E-03 2.103E-02
 ETOT  6  -164.84785748304    -5.240E-05 3.881E-03 2.111E-03
 ETOT  7  -164.84788273078    -2.525E-05 3.152E-03 5.414E-04
 ETOT  8  -164.84788518853    -2.458E-06 1.570E-03 5.510E-05
 ETOT  9  -164.84788534108    -1.525E-07 1.383E-03 9.190E-06
 ETOT 10  -164.84788539234    -5.126E-08 1.653E-03 3.261E-06
 ETOT 11  -164.84788539943    -7.091E-09 1.271E-03 6.370E-07
 ETOT 12  -164.84788540023    -7.948E-10 8.504E-04 2.094E-07

 At SCF step   12, etot is converged : 
  for the second time, diff in etot=  7.948E-10 < toldfe=  1.000E-08

 Cartesian components of stress tensor (hartree/bohr^3)
  sigma(1 1)= -3.86730070E-06  sigma(3 2)=  1.66330635E-13
  sigma(2 2)= -3.79191808E-06  sigma(3 1)= -3.24900245E-13
  sigma(3 3)= -3.86730070E-06  sigma(2 1)=  1.66329214E-13


--- !ResultsGS
iteration_state: {dtset: 1, }
comment   : Summary of ground state results
lattice_vectors:
- [  0.0000000,  10.9500603,  11.2115032, ]
- [ 11.2115032,   0.0000000,  11.2115032, ]
- [ 11.2115032,  10.9500603,   0.0000000, ]
lattice_lengths: [  15.67168,   15.85546,   15.67168, ]
lattice_angles: [ 59.611,  60.777,  59.611, ] # degrees, (23, 13, 12)
lattice_volume:   2.7527971E+03
convergence: {deltae: -7.948E-10, res2:  2.094E-07, residm:  8.504E-04, diffor: null, }
etotal    :  -1.64847885E+02
entropy   :   0.00000000E+00
fermie    :  -1.21507022E-01
cartesian_stress_tensor: # hartree/bohr^3
- [ -3.86730070E-06,   1.66329214E-13,  -3.24900245E-13, ]
- [  1.66329214E-13,  -3.79191808E-06,   1.66330635E-13, ]
- [ -3.24900245E-13,   1.66330635E-13,  -3.86730070E-06, ]
pressure_GPa:   1.1304E-01
xred      :
- [  2.4781E-01,   2.5219E-01,   2.4781E-01, Cs]
- [  7.4781E-01,   7.5219E-01,   7.4781E-01, Cs]
- [  7.8510E-01,   2.1490E-01,   7.8510E-01, Cl]
- [  2.3972E-01,   2.4409E-01,   7.5591E-01,  I]
- [  7.5591E-01,   7.6028E-01,   2.3972E-01,  I]
- [  2.4153E-01,   7.5847E-01,   2.4153E-01,  I]
- [  2.3972E-01,   7.6028E-01,   7.5591E-01,  I]
- [  7.5591E-01,   2.4409E-01,   2.3972E-01,  I]
- [ -6.4857E-03,   6.4857E-03,  -6.4857E-03, Hf]
cartesian_forces: # hartree/bohr
- [  5.11981272E-22,   1.35650736E-05,  -7.42936902E-22, ]
- [  1.50208682E-22,   1.35650736E-05,  -3.81164312E-22, ]
- [  3.57269202E-22,   1.59264987E-05,  -5.88224832E-22, ]
- [ -1.64828534E-16,   4.35358763E-06,   5.93583411E-06, ]
- [  1.64829066E-16,   4.35358763E-06,  -5.93583411E-06, ]
- [  6.45278443E-22,   7.42622344E-06,  -8.76234073E-22, ]
- [ -5.93583411E-06,   4.35358763E-06,   1.64828268E-16, ]
- [  5.93583411E-06,   4.35358763E-06,  -1.64829341E-16, ]
- [ -3.81059073E-21,  -6.78972198E-05,   3.57963510E-21, ]
force_length_stats: {min:   7.36123982E-06, max:   6.78972198E-05, mean:   1.64250054E-05, }
...

 Integrated electronic density in atomic spheres:
 ------------------------------------------------
 Atom  Sphere_radius  Integrated_density
    1        2.20660          5.35863059
    2        2.20660          5.35863059
    3        1.80316          4.36262903
    4        2.30022          4.01710576
    5        2.30022          4.01710576
    6        2.30022          4.00667239
    7        2.30022          4.01710576
    8        2.30022          4.01710576
    9        2.41000          9.27111256

 PAW TEST:
 ==== Compensation charge inside spheres ============
 The following values must be close to each other ...
 Compensation charge over spherical meshes =     -0.732067672611973
 Compensation charge over fine fft grid    =     -0.732037380492737

 ==== Results concerning PAW augmentation regions ====

 Total pseudopotential strength Dij (hartree):
 Atom #  1
   0.44946  -0.14878  -0.00000   0.00000   0.00000   0.00000   0.00000   0.00000   0.00000   0.00000   0.00000  -0.00000 ...
  -0.14878   0.04490   0.00000   0.00000   0.00000  -0.00000   0.00000   0.00000   0.00000   0.00000  -0.00000   0.00000 ...
  -0.00000   0.00000  -0.09471   0.00000   0.00000  -0.16587   0.00000   0.00000   0.00000   0.00000   0.00000  -0.00000 ...
   0.00000   0.00000   0.00000  -0.09471  -0.00000   0.00000  -0.16587   0.00000  -0.00000  -0.00000   0.00000   0.00000 ...
   0.00000   0.00000   0.00000  -0.00000  -0.09471   0.00000   0.00000  -0.16587  -0.00000  -0.00000   0.00000   0.00000 ...
   0.00000  -0.00000  -0.16587   0.00000   0.00000   0.40678   0.00000   0.00000   0.00000   0.00000  -0.00000   0.00000 ...
   0.00000   0.00000   0.00000  -0.16587   0.00000   0.00000   0.40678  -0.00001   0.00000   0.00000   0.00000   0.00000 ...
   0.00000   0.00000   0.00000   0.00000  -0.16587   0.00000  -0.00001   0.40678   0.00000   0.00000   0.00000   0.00000 ...
   0.00000   0.00000   0.00000  -0.00000  -0.00000   0.00000   0.00000   0.00000   0.00507  -0.00000   0.00000   0.00000 ...
   0.00000   0.00000   0.00000  -0.00000  -0.00000   0.00000   0.00000   0.00000  -0.00000   0.00507   0.00000   0.00000 ...
   0.00000  -0.00000   0.00000   0.00000   0.00000  -0.00000   0.00000   0.00000   0.00000   0.00000   0.00507  -0.00000 ...
  -0.00000   0.00000  -0.00000   0.00000   0.00000   0.00000   0.00000   0.00000   0.00000   0.00000  -0.00000   0.00507 ...
   ...  only 12  components have been written...
 Atom #  9
  -3.53205   0.43315  -0.00031   0.00000   0.00000   0.00005   0.00000   0.00000   0.00000   0.00000  -0.00011   0.00000 ...
   0.43315   0.00187   0.00001   0.00000   0.00000  -0.00000   0.00000   0.00000   0.00000   0.00000   0.00002   0.00000 ...
  -0.00031   0.00001  -1.47780   0.00000   0.00000   0.12780   0.00000   0.00000   0.00000   0.00000   0.00009   0.00000 ...
   0.00000   0.00000   0.00000  -1.47855   0.00000   0.00000   0.12793   0.00000   0.00000  -0.00017   0.00000   0.00000 ...
   0.00000   0.00000   0.00000   0.00000  -1.47855   0.00000   0.00000   0.12793  -0.00017   0.00000   0.00000   0.00000 ...
   0.00005  -0.00000   0.12780   0.00000   0.00000   0.01266   0.00000   0.00000   0.00000   0.00000  -0.00001   0.00000 ...
   0.00000   0.00000   0.00000   0.12793   0.00000   0.00000   0.01264   0.00000   0.00000   0.00003   0.00000   0.00000 ...
   0.00000   0.00000   0.00000   0.00000   0.12793   0.00000   0.00000   0.01264   0.00003   0.00000   0.00000   0.00000 ...
   0.00000   0.00000   0.00000   0.00000  -0.00017   0.00000   0.00000   0.00003  -0.39825   0.00000   0.00000   0.00000 ...
   0.00000   0.00000   0.00000  -0.00017   0.00000   0.00000   0.00003   0.00000   0.00000  -0.39825   0.00000   0.00000 ...
  -0.00011   0.00002   0.00009   0.00000   0.00000  -0.00001   0.00000   0.00000   0.00000   0.00000  -0.39765   0.00000 ...
   0.00000   0.00000   0.00000   0.00000   0.00000   0.00000   0.00000   0.00000   0.00000   0.00000   0.00000  -0.39839 ...
   ...  only 12  components have been written...


 Augmentation waves occupancies Rhoij:
 Atom #  1
   1.99690  -0.01653  -0.00000   0.00000   0.00000  -0.00001   0.00000   0.00000   0.00000   0.00000   0.00062  -0.00313 ...
  -0.01653   0.12591  -0.00104   0.00000   0.00000   0.00003   0.00000   0.00000   0.00000   0.00000  -0.00493   0.01287 ...
  -0.00000  -0.00104   2.00908   0.00000   0.00000  -0.00512   0.00000   0.00000   0.00000   0.00000   0.00004   0.00046 ...
   0.00000   0.00000   0.00000   2.00789   0.00186   0.00000  -0.00491  -0.00029   0.00021  -0.00083   0.00000   0.00000 ...
   0.00000   0.00000   0.00000   0.00186   2.00789   0.00000  -0.00029  -0.00491  -0.00083   0.00021   0.00000   0.00000 ...
  -0.00001   0.00003  -0.00512   0.00000   0.00000   0.00010   0.00000   0.00000   0.00000   0.00000   0.00000  -0.00003 ...
   0.00000   0.00000   0.00000  -0.00491  -0.00029   0.00000   0.00008   0.00001  -0.00001   0.00002   0.00000   0.00000 ...
   0.00000   0.00000   0.00000  -0.00029  -0.00491   0.00000   0.00001   0.00008   0.00002  -0.00001   0.00000   0.00000 ...
   0.00000   0.00000   0.00000   0.00021  -0.00083   0.00000  -0.00001   0.00002   0.04378   0.00014   0.00000   0.00000 ...
   0.00000   0.00000   0.00000  -0.00083   0.00021   0.00000   0.00002  -0.00001   0.00014   0.04378   0.00000   0.00000 ...
   0.00062  -0.00493   0.00004   0.00000   0.00000   0.00000   0.00000   0.00000   0.00000   0.00000   0.02679   0.00487 ...
  -0.00313   0.01287   0.00046   0.00000   0.00000  -0.00003   0.00000   0.00000   0.00000   0.00000   0.00487   0.02565 ...
   ...  only 12  components have been written...
 Atom #  9
   1.99783  -0.02170   0.00014   0.00000   0.00000   0.00117   0.00000   0.00000   0.00000   0.00000  -0.00061   0.00000 ...
  -0.02170   1.00088   0.00396   0.00000   0.00000  -0.06050   0.00000   0.00000   0.00000   0.00000  -0.02820   0.00000 ...
   0.00014   0.00396   1.99189   0.00000   0.00000  -0.06996   0.00000   0.00000   0.00000   0.00000   0.00022   0.00000 ...
   0.00000   0.00000   0.00000   1.99230   0.00000   0.00000  -0.06500   0.00000   0.00000  -0.00062   0.00000   0.00000 ...
   0.00000   0.00000   0.00000   0.00000   1.99230   0.00000   0.00000  -0.06500  -0.00062   0.00000   0.00000   0.00000 ...
   0.00117  -0.06050  -0.06996   0.00000   0.00000   1.35955   0.00000   0.00000   0.00000   0.00000   0.10294   0.00000 ...
   0.00000   0.00000   0.00000  -0.06500   0.00000   0.00000   1.14021   0.00000   0.00000   0.01035   0.00000   0.00000 ...
   0.00000   0.00000   0.00000   0.00000  -0.06500   0.00000   0.00000   1.14021   0.01035   0.00000   0.00000   0.00000 ...
   0.00000   0.00000   0.00000   0.00000  -0.00062   0.00000   0.00000   0.01035   0.46910   0.00000   0.00000   0.00000 ...
   0.00000   0.00000   0.00000  -0.00062   0.00000   0.00000   0.01035   0.00000   0.00000   0.46910   0.00000   0.00000 ...
  -0.00061  -0.02820   0.00022   0.00000   0.00000   0.10294   0.00000   0.00000   0.00000   0.00000   1.33924   0.00000 ...
   0.00000   0.00000   0.00000   0.00000   0.00000   0.00000   0.00000   0.00000   0.00000   0.00000   0.00000   0.41548 ...
   ...  only 12  components have been written...


================================================================================

 ----iterations are completed or convergence reached----

 Mean square residual over all n,k,spin=   15.480E-07; max=  85.040E-05
 reduced coordinates (array xred) for    9 atoms
       0.247810178650      0.252189821350      0.247810178650
       0.747810178650      0.752189821350      0.747810178650
       0.785101702130      0.214898297870      0.785101702130
       0.239716399220      0.244088315190      0.755911684810
       0.755911684810      0.760283600780      0.239716399220
       0.241531632470      0.758468367530      0.241531632470
       0.239716399220      0.760283600780      0.755911684810
       0.755911684810      0.244088315190      0.239716399220
      -0.006485680961      0.006485680961     -0.006485680961
 rms dE/dt=  2.2439E-04; max dE/dt=  7.8946E-04; dE/dt below (all hartree)
    1      -0.000102556866      0.000000000000     -0.000102556866
    2      -0.000102556866      0.000000000000     -0.000102556866
    3      -0.000128414613      0.000000000000     -0.000128414613
    4      -0.000068240163     -0.000066549623     -0.000001690540
    5       0.000064859083      0.000066549623     -0.000001690540
    6      -0.000035336087      0.000000000000     -0.000035336087
    7      -0.000001690540      0.000066549623      0.000064859083
    8      -0.000001690540     -0.000066549623     -0.000068240163
    9       0.000789460156      0.000000000000      0.000789460156

 cartesian coordinates (angstrom) at end:
    1      2.96643598590938     2.87188322798685     2.96643598590938
    2      8.89930795772668     8.66640555881292     8.89930795772668
    3      5.93287197172337     9.09857868992369     5.93287197172337
    4      5.93287197173299     5.76918916610941     2.87035142995689
    5      5.93287197190307     5.76918916610941     8.99539251367917
    6      5.93287197190247     2.79912087589658     5.93287197190247
    7      8.99539251367917     5.76918916610941     5.93287197190307
    8      2.87035142995689     5.76918916610941     5.93287197173299
    9      0.00000000000214    -0.07516284631594     0.00000000000214

 cartesian forces (hartree/bohr) at end:
    1      0.00000000000000     0.00001356507358    -0.00000000000000
    2      0.00000000000000     0.00001356507358    -0.00000000000000
    3      0.00000000000000     0.00001592649867    -0.00000000000000
    4     -0.00000000000000     0.00000435358763     0.00000593583411
    5      0.00000000000000     0.00000435358763    -0.00000593583411
    6      0.00000000000000     0.00000742622344    -0.00000000000000
    7     -0.00000593583411     0.00000435358763     0.00000000000000
    8      0.00000593583411     0.00000435358763    -0.00000000000000
    9     -0.00000000000000    -0.00006789721977     0.00000000000000
 frms,max,avg= 1.4277162E-05 6.7897220E-05   0.000E+00 -4.199E-06  0.000E+00 h/b

 cartesian forces (eV/Angstrom) at end:
    1      0.00000000000000     0.00069754407091    -0.00000000000000
    2      0.00000000000000     0.00069754407091    -0.00000000000000
    3      0.00000000000000     0.00081897342094    -0.00000000000000
    4     -0.00000000000001     0.00022387045802     0.00030523283653
    5      0.00000000000001     0.00022387045801    -0.00030523283653
    6      0.00000000000000     0.00038187173083    -0.00000000000000
    7     -0.00030523283653     0.00022387045801     0.00000000000001
    8      0.00030523283653     0.00022387045802    -0.00000000000001
    9     -0.00000000000000    -0.00349141512564     0.00000000000000
 frms,max,avg= 7.3416112E-04 3.4914151E-03   0.000E+00 -2.159E-04  0.000E+00 e/A
 length scales= 15.671682240000 15.855459892000 15.671682240000 bohr
              =  8.293097061673  8.390348006559  8.293097061673 angstroms
 prteigrs : about to open file Cs2TiI6o_DS1_EIG
 Fermi (or HOMO) energy (hartree) =  -0.12151   Average Vxc (hartree)=  -0.28117
 Eigenvalues (hartree) for nkpt= 163  k points:
 kpt#   1, nband= 42, wtk=  0.00058, kpt=  0.0000  0.0000  0.0000 (reduced coord)
  -2.42203   -1.26605   -1.26563   -1.26563   -0.87695   -0.87684   -0.64809   -0.54840
  -0.53257   -0.53257   -0.52926   -0.52636   -0.39425   -0.39360   -0.39360   -0.39219
  -0.39219   -0.39217   -0.27029   -0.22872   -0.22642   -0.22642   -0.20405   -0.20405
  -0.20198   -0.19542   -0.18874   -0.16565   -0.16565   -0.14941   -0.13741   -0.13741
  -0.13698   -0.12212   -0.12151   -0.12151   -0.03986   -0.03205   -0.03205    0.02662
   0.03570    0.04763
 prteigrs : prtvol=0 or 1, do not print more k-points.


--- !EnergyTerms
iteration_state     : {dtset: 1, }
comment             : Components of total free energy in Hartree
kinetic             :  3.92473212389852E+01
hartree             :  3.84415198170768E+01
xc                  : -5.81630850759725E+01
Ewald energy        : -1.13510580543068E+02
psp_core            :  1.61149996643147E+01
local_psp           : -8.08837207049744E+01
spherical_terms     : -6.09452074355727E+00
total_energy        : -1.64848066347196E+02
total_energy_eV     : -4.48574401195229E+03
...


--- !EnergyTermsDC
iteration_state     : {dtset: 1, }
comment             : '"Double-counting" decomposition of free energy'
band_energy         : -3.38368786659461E+01
Ewald energy        : -1.13510580543068E+02
psp_core            :  1.61149996643147E+01
xc_dc               : -5.90126884695323E+01
spherical_terms     :  2.53972626140058E+01
total_energy_dc     : -1.64847885400226E+02
total_energy_dc_eV  : -4.48573908813484E+03
...


 Cartesian components of stress tensor (hartree/bohr^3)
  sigma(1 1)= -3.86730070E-06  sigma(3 2)=  1.66330635E-13
  sigma(2 2)= -3.79191808E-06  sigma(3 1)= -3.24900245E-13
  sigma(3 3)= -3.86730070E-06  sigma(2 1)=  1.66329214E-13

-Cartesian components of stress tensor (GPa)         [Pressure=  1.1304E-01 GPa]
- sigma(1 1)= -1.13779896E-01  sigma(3 2)=  4.89361541E-09
- sigma(2 2)= -1.11562063E-01  sigma(3 1)= -9.55889363E-09
- sigma(3 3)= -1.13779896E-01  sigma(2 1)=  4.89357361E-09

================================================================================
== DATASET  2 ==================================================================
-   mpi_nproc: 6, omp_nthreads: -1 (-1 if OMP is not activated)


--- !DatasetInfo
iteration_state: {dtset: 2, }
dimensions: {natom: 9, nkpt: 163, mband: 42, nsppol: 1, nspinor: 1, nspden: 1, mpw: 8208, }
cutoff_energies: {ecut:  16.0, pawecutdg:  40.0, }
electrons: {nelect:   7.20000000E+01, charge:   0.00000000E+00, occopt:   1.00000000E+00, tsmear:   1.00000000E-02, }
meta: {optdriver: 0, ionmov: 0, optcell: 0, iscf: 17, paral_kgb: 0, }
...

 Real(R)+Recip(G) space primitive vectors, cartesian coordinates (Bohr,Bohr^-1):
 R(1)=  0.0000000 10.8358360 11.1001082  G(1)= -0.0450446  0.0461432  0.0450446
 R(2)= 11.1001082  0.0000000 11.1001082  G(2)=  0.0450446 -0.0461432  0.0450446
 R(3)= 11.1001082 10.8358360  0.0000000  G(3)=  0.0450446  0.0461432 -0.0450446
 Unit cell volume ucvol=  2.6702187E+03 bohr^3
 Angles (23,13,12)=  5.96031060E+01  6.07937879E+01  5.96031060E+01 degrees

 Coarse grid specifications (used for wave-functions):

 getcut: wavevector=  0.0000  0.0000  0.0000  ngfft=  60  60  60
         ecut(hartree)=     16.000   => boxcut(ratio)=   2.12268

 Fine grid specifications (used for densities):

 getcut: wavevector=  0.0000  0.0000  0.0000  ngfft=  90  90  90
         ecut(hartree)=     40.000   => boxcut(ratio)=   2.01401

--- Pseudopotential description ------------------------------------------------
- pspini: atom type   1  psp file is ../../../Psps_for_tests/ATOMICDATA/Cs.GGA_PBE-JTH.xml
- pspatm: opening atomic psp file    ../../../Psps_for_tests/ATOMICDATA/Cs.GGA_PBE-JTH.xml
- pspatm : Reading pseudopotential header in XML form from ../../../Psps_for_tests/ATOMICDATA/Cs.GGA_PBE-JTH.xml
 Pseudopotential format is: paw10
 basis_size (lnmax)=  6 (lmn_size= 18), orbitals=   0   0   1   1   2   2
 Spheres core radius: rc_sph= 2.20660278
 1 radial meshes are used:
  - mesh 1: r(i)=AA*[exp(BB*(i-1))-1], size=1500 , AA= 0.15922E-03 BB= 0.87573E-02
 Shapefunction is SIN type: shapef(r)=[sin(pi*r/rshp)/(pi*r/rshp)]**2
 Radius for shape functions =  2.00394208
 mmax= 1500
 Radial grid used for partial waves is grid 1
 Radial grid used for projectors is grid 1
 Radial grid used for (t)core density is grid 1
 Radial grid used for Vloc is grid 1
 Radial grid used for pseudo valence density is grid 1
 Mesh size for Vloc has been set to 1341 to avoid numerical noise.
 Compensation charge density is not taken into account in XC energy/potential
 pspatm: atomic psp has been read  and splines computed

- pspini: atom type   2  psp file is ../../../Psps_for_tests/ATOMICDATA/I.GGA_PBE-JTH.xml
- pspatm: opening atomic psp file    ../../../Psps_for_tests/ATOMICDATA/I.GGA_PBE-JTH.xml
- pspatm : Reading pseudopotential header in XML form from ../../../Psps_for_tests/ATOMICDATA/I.GGA_PBE-JTH.xml
 Pseudopotential format is: paw10
 basis_size (lnmax)=  4 (lmn_size=  8), orbitals=   0   0   1   1
 Spheres core radius: rc_sph= 2.30022271
 1 radial meshes are used:
  - mesh 1: r(i)=AA*[exp(BB*(i-1))-1], size=2000 , AA= 0.12610E-03 BB= 0.66836E-02
 Shapefunction is SIN type: shapef(r)=[sin(pi*r/rshp)/(pi*r/rshp)]**2
 Radius for shape functions =  2.10879093
 mmax= 2000
 Radial grid used for partial waves is grid 1
 Radial grid used for projectors is grid 1
 Radial grid used for (t)core density is grid 1
 Radial grid used for Vloc is grid 1
 Radial grid used for pseudo valence density is grid 1
 Mesh size for Vloc has been set to 1792 to avoid numerical noise.
 Compensation charge density is not taken into account in XC energy/potential
 pspatm: atomic psp has been read  and splines computed

- pspini: atom type   3  psp file is ../../../Psps_for_tests/ATOMICDATA/Hf.GGA_PBE-JTH.xml
- pspatm: opening atomic psp file    ../../../Psps_for_tests/ATOMICDATA/Hf.GGA_PBE-JTH.xml
- pspatm : Reading pseudopotential header in XML form from ../../../Psps_for_tests/ATOMICDATA/Hf.GGA_PBE-JTH.xml
 Pseudopotential format is: paw10
 basis_size (lnmax)=  6 (lmn_size= 18), orbitals=   0   0   1   1   2   2
 Spheres core radius: rc_sph= 2.41000000
 1 radial meshes are used:
  - mesh 1: r(i)=AA*[exp(BB*(i-1))-1], size= 972 , AA= 0.19796E-03 BB= 0.14253E-01
 Shapefunction is SIN type: shapef(r)=[sin(pi*r/rshp)/(pi*r/rshp)]**2
 Radius for shape functions =  2.41000000
 mmax=  972
 Radial grid used for partial waves is grid 1
 Radial grid used for projectors is grid 1
 Radial grid used for (t)core density is grid 1
 Radial grid used for Vloc is grid 1
 Radial grid used for pseudo valence density is grid 1
 Mesh size for Vloc has been set to  809 to avoid numerical noise.
 Compensation charge density is not taken into account in XC energy/potential
 pspatm: atomic psp has been read  and splines computed

- pspini: atom type   4  psp file is ../../../Psps_for_tests/ATOMICDATA/Cl.GGA_PBE-JTH.xml
- pspatm: opening atomic psp file    ../../../Psps_for_tests/ATOMICDATA/Cl.GGA_PBE-JTH.xml
- pspatm : Reading pseudopotential header in XML form from ../../../Psps_for_tests/ATOMICDATA/Cl.GGA_PBE-JTH.xml
 Pseudopotential format is: paw10
 basis_size (lnmax)=  4 (lmn_size=  8), orbitals=   0   0   1   1
 Spheres core radius: rc_sph= 1.80315674
 1 radial meshes are used:
  - mesh 1: r(i)=AA*[exp(BB*(i-1))-1], size=1400 , AA= 0.50355E-03 BB= 0.85603E-02
 Shapefunction is SIN type: shapef(r)=[sin(pi*r/rshp)/(pi*r/rshp)]**2
 Radius for shape functions =  1.61320365
 mmax= 1400
 Radial grid used for partial waves is grid 1
 Radial grid used for projectors is grid 1
 Radial grid used for (t)core density is grid 1
 Radial grid used for Vloc is grid 1
 Radial grid used for pseudo valence density is grid 1
 Mesh size for Vloc has been set to 1238 to avoid numerical noise.
 Compensation charge density is not taken into account in XC energy/potential
 pspatm: atomic psp has been read  and splines computed

--------------------------------------------------------------------------------

_setup2: Arith. and geom. avg. npw (full set) are    8162.490    8162.479

================================================================================

--- !BeginCycle
iteration_state: {dtset: 2, }
solver: {iscf: 17, nstep: 2500, nline: 4, wfoptalg: 10, }
tolerances: {toldfe: 1.00E-08, }
...

     iter   Etot(hartree)      deltaE(h)  residm     nres2
 ETOT  1  -163.15419119641    -1.632E+02 9.278E+00 4.723E+00
 ETOT  2  -164.86204315859    -1.708E+00 3.053E-02 2.997E+00
 ETOT  3  -164.84626266586     1.578E-02 2.841E-02 4.882E-01
 ETOT  4  -164.84677813872    -5.155E-04 7.879E-03 1.067E-01
 ETOT  5  -164.84679355239    -1.541E-05 4.838E-03 1.574E-02
 ETOT  6  -164.84684580764    -5.226E-05 3.736E-03 1.513E-03
 ETOT  7  -164.84686872975    -2.292E-05 2.843E-03 3.941E-04
 ETOT  8  -164.84687166921    -2.939E-06 1.468E-03 3.747E-05
 ETOT  9  -164.84687183360    -1.644E-07 2.190E-03 5.804E-06
 ETOT 10  -164.84687188984    -5.623E-08 4.230E-03 2.449E-06
 ETOT 11  -164.84687189368    -3.838E-09 2.744E-03 5.701E-07
 ETOT 12  -164.84687189461    -9.336E-10 1.515E-03 1.778E-07

 At SCF step   12, etot is converged : 
  for the second time, diff in etot=  9.336E-10 < toldfe=  1.000E-08

 Cartesian components of stress tensor (hartree/bohr^3)
  sigma(1 1)= -1.30025848E-05  sigma(3 2)=  5.39503681E-14
  sigma(2 2)= -1.30467212E-05  sigma(3 1)= -1.05330968E-13
  sigma(3 3)= -1.30025848E-05  sigma(2 1)=  5.39504386E-14


--- !ResultsGS
iteration_state: {dtset: 2, }
comment   : Summary of ground state results
lattice_vectors:
- [  0.0000000,  10.8358360,  11.1001082, ]
- [ 11.1001082,   0.0000000,  11.1001082, ]
- [ 11.1001082,  10.8358360,   0.0000000, ]
lattice_lengths: [  15.51218,   15.69792,   15.51218, ]
lattice_angles: [ 59.603,  60.794,  59.603, ] # degrees, (23, 13, 12)
lattice_volume:   2.6702187E+03
convergence: {deltae: -9.336E-10, res2:  1.778E-07, residm:  1.515E-03, diffor: null, }
etotal    :  -1.64846872E+02
entropy   :   0.00000000E+00
fermie    :  -1.17857113E-01
cartesian_stress_tensor: # hartree/bohr^3
- [ -1.30025848E-05,   5.39504386E-14,  -1.05330968E-13, ]
- [  5.39504386E-14,  -1.30467212E-05,   5.39503681E-14, ]
- [ -1.05330968E-13,   5.39503681E-14,  -1.30025848E-05, ]
pressure_GPa:   3.8298E-01
xred      :
- [  2.4791E-01,   2.5209E-01,   2.4791E-01, Cs]
- [  7.4791E-01,   7.5209E-01,   7.4791E-01, Cs]
- [  7.8253E-01,   2.1747E-01,   7.8253E-01, Cl]
- [  2.4195E-01,   2.4590E-01,   7.5410E-01,  I]
- [  7.5410E-01,   7.5805E-01,   2.4195E-01,  I]
- [  2.4338E-01,   7.5662E-01,   2.4338E-01,  I]
- [  2.4195E-01,   7.5805E-01,   7.5410E-01,  I]
- [  7.5410E-01,   2.4590E-01,   2.4195E-01,  I]
- [ -6.7983E-03,   6.7983E-03,  -6.7983E-03, Hf]
cartesian_forces: # hartree/bohr
- [ -2.02259433E-22,   2.75890765E-05,   2.58232397E-22, ]
- [ -2.02259433E-22,   2.75890765E-05,   2.58232397E-22, ]
- [ -2.59977848E-21,   3.04069107E-05,   2.65575144E-21, ]
- [  4.25537913E-17,  -6.49656521E-06,  -5.01662657E-06, ]
- [ -4.25537499E-17,  -6.49656521E-06,   5.01662657E-06, ]
- [ -2.35511599E-22,  -4.39376791E-06,   2.91484563E-22, ]
- [  5.01662657E-06,  -6.49656521E-06,  -4.25526716E-17, ]
- [ -5.01662657E-06,  -6.49656521E-06,   4.25545812E-17, ]
- [  4.78848235E-21,  -5.52050349E-05,  -4.73250939E-21, ]
force_length_stats: {min:   4.39376791E-06, max:   5.52050349E-05, mean:   1.97795580E-05, }
...

 Integrated electronic density in atomic spheres:
 ------------------------------------------------
 Atom  Sphere_radius  Integrated_density
    1        2.20660          5.35438712
    2        2.20660          5.35438712
    3        1.80316          4.36580473
    4        2.30022          4.01717812
    5        2.30022          4.01717812
    6        2.30022          4.01542972
    7        2.30022          4.01717812
    8        2.30022          4.01717812
    9        2.41000          9.27549446

 PAW TEST:
 ==== Compensation charge inside spheres ============
 The following values must be close to each other ...
 Compensation charge over spherical meshes =     -0.733595743249544
 Compensation charge over fine fft grid    =     -0.733598260500696

 ==== Results concerning PAW augmentation regions ====

 Total pseudopotential strength Dij (hartree):
 Atom #  1
   0.44833  -0.14841  -0.00000   0.00000   0.00000   0.00000   0.00000   0.00000   0.00000   0.00000   0.00000  -0.00000 ...
  -0.14841   0.04478   0.00000   0.00000   0.00000  -0.00000   0.00000   0.00000   0.00000   0.00000  -0.00000   0.00000 ...
[...]
                       8.1450125889E+00  5.2941360215E+00  5.4743518148E+00
                       2.8036910406E+00  5.2941360215E+00  5.4743518147E+00
                       2.9658513895E-12 -1.1584338438E-01  2.9658513895E-12
           xangst10    2.7089480994E+00  2.6106287495E+00  2.7089480994E+00
                       8.1268442982E+00  7.8310816071E+00  8.1268442982E+00
                       5.4178961987E+00  7.9097391019E+00  5.4178961987E+00
                       5.4178961987E+00  5.2347561727E+00  2.7898472552E+00
                       5.4178961989E+00  5.2347561727E+00  8.0459451424E+00
                       5.4178961989E+00  2.6708473066E+00  5.4178961989E+00
                       8.0459451424E+00  5.2347561727E+00  5.4178961989E+00
                       2.7898472552E+00  5.2347561727E+00  5.4178961987E+00
                       3.6383356189E-12 -1.2435980447E-01  3.6383356189E-12
            xcart1     5.6057516041E+00  5.4270727865E+00  5.6057516041E+00
                       1.6817254812E+01  1.6377133063E+01  1.6817254812E+01
                       1.1211503208E+01  1.7193821922E+01  1.1211503208E+01
                       1.1211503208E+01  1.0902187533E+01  5.4241781078E+00
                       1.1211503208E+01  1.0902187533E+01  1.6998828309E+01
                       1.1211503208E+01  5.2895718683E+00  1.1211503208E+01
                       1.6998828309E+01  1.0902187533E+01  1.1211503208E+01
                       5.4241781078E+00  1.0902187533E+01  1.1211503208E+01
                       4.0383172472E-12 -1.4203719491E-01  4.0383172472E-12
            xcart2     5.5500540780E+00  5.3725198740E+00  5.5500540780E+00
                       1.6650162234E+01  1.6208355873E+01  1.6650162234E+01
                       1.1100108156E+01  1.6958631917E+01  1.1100108156E+01
                       1.1100108156E+01  1.0793071499E+01  5.4152197758E+00
                       1.1100108156E+01  1.0793071499E+01  1.6784996536E+01
                       1.1100108156E+01  5.2744502447E+00  1.1100108156E+01
                       1.6784996536E+01  1.0793071499E+01  1.1100108156E+01
                       5.4152197758E+00  1.0793071499E+01  1.1100108156E+01
                       1.2802026811E-12 -1.4733020920E-01  1.2802026811E-12
            xcart3     5.4940039118E+00  5.3180172628E+00  5.4940039118E+00
                       1.6482011735E+01  1.6041007238E+01  1.6482011735E+01
                       1.0988007823E+01  1.6725929679E+01  1.0988007823E+01
                       1.0988007823E+01  1.0686415025E+01  5.4043708947E+00
                       1.0988007824E+01  1.0686415025E+01  1.6571644753E+01
                       1.0988007824E+01  5.2571146082E+00  1.0988007824E+01
                       1.6571644753E+01  1.0686415025E+01  1.0988007824E+01
                       5.4043708947E+00  1.0686415025E+01  1.0988007823E+01
                       4.3302387609E-12 -1.5316868560E-01  4.3302387609E-12
            xcart4     5.4387194990E+00  5.2646042960E+00  5.4387194990E+00
                       1.6316158497E+01  1.5871761452E+01  1.6316158497E+01
                       1.0877438998E+01  1.6485298951E+01  1.0877438998E+01
                       1.0877438998E+01  1.0577401336E+01  5.3919524370E+00
                       1.0877438998E+01  1.0577401336E+01  1.6362925559E+01
                       1.0877438998E+01  5.2362491105E+00  1.0877438998E+01
                       1.6362925559E+01  1.0577401336E+01  1.0877438998E+01
                       5.3919524370E+00  1.0577401336E+01  1.0877438998E+01
                       3.1548749537E-12 -1.6124876431E-01  3.1548749537E-12
            xcart5     5.3841851557E+00  5.2078380672E+00  5.3841851557E+00
                       1.6152555467E+01  1.5696243552E+01  1.6152555467E+01
                       1.0768370311E+01  1.6241579957E+01  1.0768370311E+01
                       1.0768370311E+01  1.0465789040E+01  5.3777207551E+00
                       1.0768370311E+01  1.0465789040E+01  1.6159019868E+01
                       1.0768370311E+01  5.2136575391E+00  1.0768370311E+01
                       1.6159019868E+01  1.0465789040E+01  1.0768370311E+01
                       5.3777207551E+00  1.0465789040E+01  1.0768370311E+01
                       1.4758760852E-12 -1.6788651902E-01  1.4758760852E-12
            xcart6     5.3312527289E+00  5.1536804908E+00  5.3312527289E+00
                       1.5993758187E+01  1.5517113513E+01  1.5993758187E+01
                       1.0662505458E+01  1.5979516955E+01  1.0662505458E+01
                       1.0662505458E+01  1.0349585959E+01  5.3613715076E+00
                       1.0662505458E+01  1.0349585959E+01  1.5963639408E+01
                       1.0662505458E+01  5.1849031804E+00  1.0662505458E+01
                       1.5963639408E+01  1.0349585959E+01  1.0662505458E+01
                       5.3613715076E+00  1.0349585959E+01  1.0662505458E+01
                      -3.3288796465E-12 -1.8050457884E-01 -3.3288796465E-12
            xcart7     5.2775720528E+00  5.0968447553E+00  5.2775720528E+00
                       1.5832716158E+01  1.5338240041E+01  1.5832716158E+01
                       1.0555144106E+01  1.5727741784E+01  1.0555144106E+01
                       1.0555144106E+01  1.0236765690E+01  5.3425437660E+00
                       1.0555144106E+01  1.0236765690E+01  1.5767744445E+01
                       1.0555144106E+01  5.1557805014E+00  1.0555144106E+01
                       1.5767744445E+01  1.0236765690E+01  1.0555144106E+01
                       5.3425437660E+00  1.0236765690E+01  1.0555144106E+01
                       9.9974218794E-13 -1.9063276673E-01  9.9974218794E-13
            xcart8     5.2253263444E+00  5.0409786123E+00  5.2253263444E+00
                       1.5675979033E+01  1.5154799762E+01  1.5675979033E+01
                       1.0450652689E+01  1.5461914990E+01  1.0450652689E+01
                       1.0450652689E+01  1.0119313935E+01  5.3217371514E+00
                       1.0450652689E+01  1.0119313935E+01  1.5579568226E+01
                       1.0450652689E+01  5.1218753486E+00  1.0450652689E+01
                       1.5579568226E+01  1.0119313935E+01  1.0450652689E+01
                       5.3217371514E+00  1.0119313935E+01  1.0450652689E+01
                      -1.0917630126E-12 -2.0417267517E-01 -1.0917630126E-12
            xcart9     5.1725128425E+00  4.9864479461E+00  5.1725128425E+00
                       1.5517538527E+01  1.4974933539E+01  1.5517538527E+01
                       1.0345025685E+01  1.5202128825E+01  1.0345025685E+01
                       1.0345025685E+01  1.0004467191E+01  5.2982082280E+00
                       1.0345025685E+01  1.0004467191E+01  1.5391843142E+01
                       1.0345025685E+01  5.0857397595E+00  1.0345025685E+01
                       1.5391843142E+01  1.0004467191E+01  1.0345025685E+01
                       5.2982082280E+00  1.0004467191E+01  1.0345025685E+01
                       5.6046468769E-12 -2.1891227078E-01  5.6046468769E-12
            xcart10    5.1191700161E+00  4.9333733711E+00  5.1191700161E+00
                       1.5357510048E+01  1.4798599562E+01  1.5357510048E+01
                       1.0238340032E+01  1.4947240685E+01  1.0238340032E+01
                       1.0238340032E+01  9.8922555388E+00  5.2720472650E+00
                       1.0238340032E+01  9.8922555388E+00  1.5204632799E+01
                       1.0238340032E+01  5.0471699523E+00  1.0238340032E+01
                       1.5204632799E+01  9.8922555388E+00  1.0238340032E+01
                       5.2720472650E+00  9.8922555388E+00  1.0238340032E+01
                       6.8754578993E-12 -2.3500597239E-01  6.8754578993E-12
             xred1     2.4781017865E-01  2.5218982135E-01  2.4781017865E-01
                       7.4781017865E-01  7.5218982135E-01  7.4781017865E-01
                       7.8510170213E-01  2.1489829787E-01  7.8510170213E-01
                       2.3971639922E-01  2.4408831519E-01  7.5591168481E-01
                       7.5591168481E-01  7.6028360078E-01  2.3971639922E-01
                       2.4153163247E-01  7.5846836753E-01  2.4153163247E-01
                       2.3971639922E-01  7.6028360078E-01  7.5591168481E-01
                       7.5591168481E-01  2.4408831519E-01  2.3971639922E-01
                      -6.4856809608E-03  6.4856809608E-03 -6.4856809608E-03
             xred2     2.4790518583E-01  2.5209481417E-01  2.4790518583E-01
                       7.4790518583E-01  7.5209481417E-01  7.4790518583E-01
                       7.8252531317E-01  2.1747468683E-01  7.8252531317E-01
                       2.4195315167E-01  2.4589973226E-01  7.5410026774E-01
                       7.5410026774E-01  7.5804684833E-01  2.4195315167E-01
                       2.4337994065E-01  7.5662005935E-01  2.4337994065E-01
                       2.4195315167E-01  7.5804684833E-01  7.5410026774E-01
                       7.5410026774E-01  2.4589973226E-01  2.4195315167E-01
                      -6.7982853012E-03  6.7982853012E-03 -6.7982853012E-03
             xred3     2.4797268650E-01  2.5202731350E-01  2.4797268650E-01
                       7.4797268650E-01  7.5202731350E-01  7.4797268650E-01
                       7.7990978814E-01  2.2009021186E-01  7.7990978814E-01
                       2.4421587988E-01  2.4762677089E-01  7.5237322911E-01
                       7.5237322911E-01  7.5578412012E-01  2.4421587988E-01
                       2.4513286968E-01  7.5486713032E-01  2.4513286968E-01
                       2.4421587988E-01  7.5578412012E-01  7.5237322911E-01
                       7.5237322911E-01  2.4762677089E-01  2.4421587988E-01
                      -7.1420697937E-03  7.1420697937E-03 -7.1420697937E-03
             xred4     2.4816283093E-01  2.5183716907E-01  2.4816283093E-01
                       7.4816283093E-01  7.5183716907E-01  7.4816283093E-01
                       7.7708375150E-01  2.2291624850E-01  7.7708375150E-01
                       2.4644764303E-01  2.4925290174E-01  7.5074709826E-01
                       7.5074709826E-01  7.5355235697E-01  2.4644764303E-01
                       2.4682622466E-01  7.5317377534E-01  2.4682622466E-01
                       2.4644764303E-01  7.5355235697E-01  7.5074709826E-01
                       7.5074709826E-01  2.4925290174E-01  2.4644764303E-01
                      -7.6009416066E-03  7.6009416066E-03 -7.6009416066E-03
             xred5     2.4826643452E-01  2.5173356548E-01  2.4826643452E-01
                       7.4826643452E-01  7.5173356548E-01  7.4826643452E-01
                       7.7426354176E-01  2.2573645824E-01  7.7426354176E-01
                       2.4862167900E-01  2.5077800727E-01  7.4922199273E-01
                       7.4922199273E-01  7.5137832100E-01  2.4862167900E-01
                       2.4854385857E-01  7.5145614143E-01  2.4854385857E-01
                       2.4862167900E-01  7.5137832100E-01  7.4922199273E-01
                       7.4922199273E-01  2.5077800727E-01  2.4862167900E-01
                      -8.0034338518E-03  8.0034338518E-03 -8.0034338518E-03
             xred6     2.4864735844E-01  2.5135264156E-01  2.4864735844E-01
                       7.4864735844E-01  7.5135264156E-01  7.4864735844E-01
                       7.7095673416E-01  2.2904326584E-01  7.7095673416E-01
                       2.5074429555E-01  2.5208044192E-01  7.4791955808E-01
                       7.4791955808E-01  7.4925570445E-01  2.5074429555E-01
                       2.5015374583E-01  7.4984625417E-01  2.5015374583E-01
                       2.5074429555E-01  7.4925570445E-01  7.4791955808E-01
                       7.4791955808E-01  2.5208044192E-01  2.5074429555E-01
                      -8.7087251132E-03  8.7087251132E-03 -8.7087251132E-03
             xred7     2.4883546690E-01  2.5116453310E-01  2.4883546690E-01
                       7.4883546690E-01  7.5116453310E-01  7.4883546690E-01
                       7.6785151558E-01  2.3214848442E-01  7.6785151558E-01
                       2.5285170374E-01  2.5330375113E-01  7.4669624887E-01
                       7.4669624887E-01  7.4714829626E-01  2.5285170374E-01
                       2.5171279682E-01  7.4828720318E-01  2.5171279682E-01
                       2.5285170374E-01  7.4714829626E-01  7.4669624887E-01
                       7.4669624887E-01  2.5330375113E-01  2.5285170374E-01
                      -9.3069724099E-03  9.3069724099E-03 -9.3069724099E-03
             xred8     2.4921236681E-01  2.5078763319E-01  2.4921236681E-01
                       7.4921236681E-01  7.5078763319E-01  7.4921236681E-01
                       7.6439531416E-01  2.3560468584E-01  7.6439531416E-01
                       2.5488421764E-01  2.5434112071E-01  7.4565887929E-01
                       7.4565887929E-01  7.4511578236E-01  2.5488421764E-01
                       2.5321168295E-01  7.4678831705E-01  2.5321168295E-01
                       2.5488421764E-01  7.4511578236E-01  7.4565887929E-01
                       7.4565887929E-01  2.5434112071E-01  2.5488421764E-01
                      -1.0093745586E-02  1.0093745586E-02 -1.0093745586E-02
             xred9     2.4960980821E-01  2.5039019179E-01  2.4960980821E-01
                       7.4960980821E-01  7.5039019179E-01  7.4960980821E-01
                       7.6098266770E-01  2.3901733230E-01  7.6098266770E-01
                       2.5687516170E-01  2.5527515956E-01  7.4472484044E-01
                       7.4472484044E-01  7.4312483830E-01  2.5687516170E-01
                       2.5458012190E-01  7.4541987810E-01  2.5458012190E-01
                       2.5687516170E-01  7.4312483830E-01  7.4472484044E-01
                       7.4472484044E-01  2.5527515956E-01  2.5687516170E-01
                      -1.0958231293E-02  1.0958231293E-02 -1.0958231293E-02
             xred10    2.5003853312E-01  2.4996146688E-01  2.5003853312E-01
                       7.5003853312E-01  7.4996146688E-01  7.5003853312E-01
                       7.5757212235E-01  2.4242787765E-01  7.5757212235E-01
                       2.5883585018E-01  2.5609598920E-01  7.4390401080E-01
                       7.4390401080E-01  7.4116414982E-01  2.5883585018E-01
                       2.5580609379E-01  7.4419390621E-01  2.5580609379E-01
                       2.5883585018E-01  7.4116414982E-01  7.4390401080E-01
                       7.4390401080E-01  2.5609598920E-01  2.5883585018E-01
                      -1.1910825350E-02  1.1910825350E-02 -1.1910825350E-02
            znucl       55.00000   53.00000   72.00000   17.00000

================================================================================


- Timing analysis has been suppressed with timopt=0



================================================================================

 Suggested references for the acknowledgment of ABINIT usage.

 The users of ABINIT have little formal obligations with respect to the ABINIT group
 (those specified in the GNU General Public License, http://www.gnu.org/copyleft/gpl.txt).
 However, it is common practice in the scientific literature,
 to acknowledge the efforts of people that have made the research possible.
 In this spirit, please find below suggested citations of work written by ABINIT developers,
 corresponding to implementations inside of ABINIT that you have used in the present run.
 Note also that it will be of great value to readers of publications presenting these results,
 to read papers enabling them to understand the theoretical formalism and details
 of the ABINIT implementation.
 For information on why they are suggested, see also https://docs.abinit.org/theory/acknowledgments.
-
- [1] Implementation of the Projector Augmented-Wave Method in the ABINIT code.
- M. Torrent, F. Jollet, F. Bottin, G. Zerah, and X. Gonze Comput. Mat. Science 42, 337, (2008).
- Comment: PAW calculations. Strong suggestion to cite this paper.
- DOI and bibtex: see https://docs.abinit.org/theory/bibliography/#torrent2008
-
- [2] Libxc: A library of exchange and correlation functionals for density functional theory.
- M.A.L. Marques, M.J.T. Oliveira, T. Burnus, Computer Physics Communications 183, 2227 (2012).
- Comment: to be cited when LibXC is used (negative value of ixc)
- Strong suggestion to cite this paper.
- DOI and bibtex: see https://docs.abinit.org/theory/bibliography/#marques2012
-
- [3] The Abinit project: Impact, environment and recent developments.
- Computer Phys. Comm. 248, 107042 (2020).
- X.Gonze, B. Amadon, G. Antonius, F.Arnardi, L.Baguet, J.-M.Beuken,
- J.Bieder, F.Bottin, J.Bouchet, E.Bousquet, N.Brouwer, F.Bruneval,
- G.Brunin, T.Cavignac, J.-B. Charraud, Wei Chen, M.Cote, S.Cottenier,
- J.Denier, G.Geneste, Ph.Ghosez, M.Giantomassi, Y.Gillet, O.Gingras,
- D.R.Hamann, G.Hautier, Xu He, N.Helbig, N.Holzwarth, Y.Jia, F.Jollet,
- W.Lafargue-Dit-Hauret, K.Lejaeghere, M.A.L.Marques, A.Martin, C.Martins,
- H.P.C. Miranda, F.Naccarato, K. Persson, G.Petretto, V.Planes, Y.Pouillon,
- S.Prokhorenko, F.Ricci, G.-M.Rignanese, A.H.Romero, M.M.Schmitt, M.Torrent,
- M.J.van Setten, B.Van Troeye, M.J.Verstraete, G.Zerah and J.W.Zwanzig
- Comment: the fifth generic paper describing the ABINIT project.
- Note that a version of this paper, that is not formatted for Computer Phys. Comm. 
- is available at https://www.abinit.org/sites/default/files/ABINIT20.pdf .
- The licence allows the authors to put it on the Web.
- DOI and bibtex: see https://docs.abinit.org/theory/bibliography/#gonze2020
-
- [4] ABINIT: Overview, and focus on selected capabilities
- J. Chem. Phys. 152, 124102 (2020).
- A. Romero, D.C. Allan, B. Amadon, G. Antonius, T. Applencourt, L.Baguet,
- J.Bieder, F.Bottin, J.Bouchet, E.Bousquet, F.Bruneval,
- G.Brunin, D.Caliste, M.Cote,
- J.Denier, C. Dreyer, Ph.Ghosez, M.Giantomassi, Y.Gillet, O.Gingras,
- D.R.Hamann, G.Hautier, F.Jollet, G. Jomard,
- A.Martin, 
- H.P.C. Miranda, F.Naccarato, G.Petretto, N.A. Pike, V.Planes,
- S.Prokhorenko, T. Rangel, F.Ricci, G.-M.Rignanese, M.Royo, M.Stengel, M.Torrent,
- M.J.van Setten, B.Van Troeye, M.J.Verstraete, J.Wiktor, J.W.Zwanziger, and X.Gonze.
- Comment: a global overview of ABINIT, with focus on selected capabilities .
- Note that a version of this paper, that is not formatted for J. Chem. Phys 
- is available at https://www.abinit.org/sites/default/files/ABINIT20_JPC.pdf .
- The licence allows the authors to put it on the Web.
- DOI and bibtex: see https://docs.abinit.org/theory/bibliography/#romero2020
-
- [5] Recent developments in the ABINIT software package.
- Computer Phys. Comm. 205, 106 (2016).
- X.Gonze, F.Jollet, F.Abreu Araujo, D.Adams, B.Amadon, T.Applencourt,
- C.Audouze, J.-M.Beuken, J.Bieder, A.Bokhanchuk, E.Bousquet, F.Bruneval
- D.Caliste, M.Cote, F.Dahm, F.Da Pieve, M.Delaveau, M.Di Gennaro,
- B.Dorado, C.Espejo, G.Geneste, L.Genovese, A.Gerossier, M.Giantomassi,
- Y.Gillet, D.R.Hamann, L.He, G.Jomard, J.Laflamme Janssen, S.Le Roux,
- A.Levitt, A.Lherbier, F.Liu, I.Lukacevic, A.Martin, C.Martins,
- M.J.T.Oliveira, S.Ponce, Y.Pouillon, T.Rangel, G.-M.Rignanese,
- A.H.Romero, B.Rousseau, O.Rubel, A.A.Shukri, M.Stankovski, M.Torrent,
- M.J.Van Setten, B.Van Troeye, M.J.Verstraete, D.Waroquier, J.Wiktor,
- B.Xu, A.Zhou, J.W.Zwanziger.
- Comment: the fourth generic paper describing the ABINIT project.
- Note that a version of this paper, that is not formatted for Computer Phys. Comm. 
- is available at https://www.abinit.org/sites/default/files/ABINIT16.pdf .
- The licence allows the authors to put it on the Web.
- DOI and bibtex: see https://docs.abinit.org/theory/bibliography/#gonze2016
-
- Proc.   0 individual time (sec): cpu=       7501.5  wall=       7501.6

================================================================================

 Calculation completed.
.Delivered   0 WARNINGs and   1 COMMENTs to log file.
+Overall time at end (sec) : cpu=      45009.0  wall=      45009.5
