
.Version 9.2.2 of ABINIT 
.(MPI version, prepared for a x86_64_linux_gnu9.3 computer) 

.Copyright (C) 1998-2020 ABINIT group . 
 ABINIT comes with ABSOLUTELY NO WARRANTY.
 It is free software, and you are welcome to redistribute it
 under certain conditions (GNU General Public License,
 see ~abinit/COPYING or http://www.gnu.org/copyleft/gpl.txt).

 ABINIT is a project of the Universite Catholique de Louvain,
 Corning Inc. and other collaborators, see ~abinit/doc/developers/contributors.txt .
 Please read https://docs.abinit.org/theory/acknowledgments for suggested
 acknowledgments of the ABINIT effort.
 For more information, see https://www.abinit.org .

.Starting date : Wed  9 Nov 2022.
- ( at 07h41 )
  
- input  file    -> Cs2TiI6.in
- output file    -> Cs2TiI6.out
- root for input  files -> Cs2TiI6i
- root for output files -> Cs2TiI6o

- inpspheads : Reading pseudopotential header in XML form from 
-   ../../../Psps_for_tests/ATOMICDATA/Cs.GGA_PBE-JTH.xml
- inpspheads : Reading pseudopotential header in XML form from 
-   ../../../Psps_for_tests/ATOMICDATA/I.GGA_PBE-JTH.xml
- inpspheads : Reading pseudopotential header in XML form from 
-   ../../../Psps_for_tests/ATOMICDATA/Hf.GGA_PBE-JTH.xml
- inpspheads : Reading pseudopotential header in XML form from 
-   ../../../Psps_for_tests/ATOMICDATA/Br.GGA_PBE-JTH.xml

 DATASET    1 : space group I4/m m m (#139); Bravais tI (body-center tetrag.)
================================================================================
 Values of the parameters that define the memory need for DATASET  1.
     intxc =       0    ionmov =       2      iscf =      17    lmnmax =      18
     lnmax =       6     mgfft =      64  mpssoang =       3    mqgrid =    3956
     natom =       9  nloc_mem =       2    nspden =       1   nspinor =       1
    nsppol =       1      nsym =      16    n1xccc =       1    ntypat =       4
    occopt =       1   xclevel =       2
-    mband =          42        mffmem =           1         mkmem =           4
       mpw =       10693          nfft =      262144          nkpt =          20
Pmy_natom=         2
 PAW method is used; the additional fine FFT grid is defined by:
   mgfftf=       100    nfftf =   1000000
================================================================================
P This job should need less than                     330.992 Mbytes of memory.
  Rough estimation (10% accuracy) of disk space for files :
_ WF disk file :    137.058 Mbytes ; DEN or POT disk file :      7.631 Mbytes.
================================================================================


 DATASET    2 : space group I4/m m m (#139); Bravais tI (body-center tetrag.)
================================================================================
 Values of the parameters that define the memory need for DATASET  2.
     intxc =       0    ionmov =       2      iscf =      17    lmnmax =      18
     lnmax =       6     mgfft =      64  mpssoang =       3    mqgrid =    3952
     natom =       9  nloc_mem =       2    nspden =       1   nspinor =       1
    nsppol =       1      nsym =      16    n1xccc =       1    ntypat =       4
    occopt =       1   xclevel =       2
-    mband =          42        mffmem =           1         mkmem =           4
       mpw =       10655          nfft =      262144          nkpt =          20
Pmy_natom=         2
 PAW method is used; the additional fine FFT grid is defined by:
   mgfftf=       100    nfftf =   1000000
================================================================================
P This job should need less than                     330.951 Mbytes of memory.
  Rough estimation (10% accuracy) of disk space for files :
_ WF disk file :    136.571 Mbytes ; DEN or POT disk file :      7.631 Mbytes.
================================================================================


 DATASET    3 : space group I4/m m m (#139); Bravais tI (body-center tetrag.)
================================================================================
 Values of the parameters that define the memory need for DATASET  3.
     intxc =       0    ionmov =       2      iscf =      17    lmnmax =      18
     lnmax =       6     mgfft =      64  mpssoang =       3    mqgrid =    3948
     natom =       9  nloc_mem =       2    nspden =       1   nspinor =       1
    nsppol =       1      nsym =      16    n1xccc =       1    ntypat =       4
    occopt =       1   xclevel =       2
-    mband =          42        mffmem =           1         mkmem =           4
       mpw =       10624          nfft =      262144          nkpt =          20
Pmy_natom=         2
 PAW method is used; the additional fine FFT grid is defined by:
   mgfftf=       100    nfftf =   1000000
================================================================================
P This job should need less than                     330.932 Mbytes of memory.
  Rough estimation (10% accuracy) of disk space for files :
_ WF disk file :    136.174 Mbytes ; DEN or POT disk file :      7.631 Mbytes.
================================================================================


 DATASET    4 : space group I4/m m m (#139); Bravais tI (body-center tetrag.)
================================================================================
 Values of the parameters that define the memory need for DATASET  4.
     intxc =       0    ionmov =       2      iscf =      17    lmnmax =      18
     lnmax =       6     mgfft =      64  mpssoang =       3    mqgrid =    3944
     natom =       9  nloc_mem =       2    nspden =       1   nspinor =       1
    nsppol =       1      nsym =      16    n1xccc =       1    ntypat =       4
    occopt =       1   xclevel =       2
-    mband =          42        mffmem =           1         mkmem =           4
       mpw =       10591          nfft =      262144          nkpt =          20
Pmy_natom=         2
 PAW method is used; the additional fine FFT grid is defined by:
   mgfftf=       100    nfftf =   1000000
================================================================================
P This job should need less than                     330.905 Mbytes of memory.
  Rough estimation (10% accuracy) of disk space for files :
_ WF disk file :    135.751 Mbytes ; DEN or POT disk file :      7.631 Mbytes.
================================================================================


 DATASET    5 : space group I4/m m m (#139); Bravais tI (body-center tetrag.)
================================================================================
 Values of the parameters that define the memory need for DATASET  5.
     intxc =       0    ionmov =       2      iscf =      17    lmnmax =      18
     lnmax =       6     mgfft =      64  mpssoang =       3    mqgrid =    3940
     natom =       9  nloc_mem =       2    nspden =       1   nspinor =       1
    nsppol =       1      nsym =      16    n1xccc =       1    ntypat =       4
    occopt =       1   xclevel =       2
-    mband =          42        mffmem =           1         mkmem =           4
       mpw =       10554          nfft =      262144          nkpt =          20
Pmy_natom=         2
 PAW method is used; the additional fine FFT grid is defined by:
   mgfftf=       100    nfftf =   1000000
================================================================================
P This job should need less than                     330.869 Mbytes of memory.
  Rough estimation (10% accuracy) of disk space for files :
_ WF disk file :    135.277 Mbytes ; DEN or POT disk file :      7.631 Mbytes.
================================================================================


 DATASET    6 : space group I4/m m m (#139); Bravais tI (body-center tetrag.)
================================================================================
 Values of the parameters that define the memory need for DATASET  6.
     intxc =       0    ionmov =       2      iscf =      17    lmnmax =      18
     lnmax =       6     mgfft =      64  mpssoang =       3    mqgrid =    3936
     natom =       9  nloc_mem =       2    nspden =       1   nspinor =       1
    nsppol =       1      nsym =      16    n1xccc =       1    ntypat =       4
    occopt =       1   xclevel =       2
-    mband =          42        mffmem =           1         mkmem =           4
       mpw =       10526          nfft =      262144          nkpt =          20
Pmy_natom=         2
 PAW method is used; the additional fine FFT grid is defined by:
   mgfftf=       100    nfftf =   1000000
================================================================================
P This job should need less than                     330.859 Mbytes of memory.
  Rough estimation (10% accuracy) of disk space for files :
_ WF disk file :    134.918 Mbytes ; DEN or POT disk file :      7.631 Mbytes.
================================================================================


 DATASET    7 : space group I4/m m m (#139); Bravais tI (body-center tetrag.)
================================================================================
 Values of the parameters that define the memory need for DATASET  7.
     intxc =       0    ionmov =       2      iscf =      17    lmnmax =      18
     lnmax =       6     mgfft =      64  mpssoang =       3    mqgrid =    3932
     natom =       9  nloc_mem =       2    nspden =       1   nspinor =       1
    nsppol =       1      nsym =      16    n1xccc =       1    ntypat =       4
    occopt =       1   xclevel =       2
-    mband =          42        mffmem =           1         mkmem =           4
       mpw =       10494          nfft =      262144          nkpt =          20
Pmy_natom=         2
 PAW method is used; the additional fine FFT grid is defined by:
   mgfftf=       100    nfftf =   1000000
================================================================================
P This job should need less than                     330.837 Mbytes of memory.
  Rough estimation (10% accuracy) of disk space for files :
_ WF disk file :    134.508 Mbytes ; DEN or POT disk file :      7.631 Mbytes.
================================================================================


 DATASET    8 : space group I4/m m m (#139); Bravais tI (body-center tetrag.)
================================================================================
 Values of the parameters that define the memory need for DATASET  8.
     intxc =       0    ionmov =       2      iscf =      17    lmnmax =      18
     lnmax =       6     mgfft =      64  mpssoang =       3    mqgrid =    3929
     natom =       9  nloc_mem =       2    nspden =       1   nspinor =       1
    nsppol =       1      nsym =      16    n1xccc =       1    ntypat =       4
    occopt =       1   xclevel =       2
-    mband =          42        mffmem =           1         mkmem =           4
       mpw =       10468          nfft =      262144          nkpt =          20
Pmy_natom=         2
 PAW method is used; the additional fine FFT grid is defined by:
   mgfftf=       100    nfftf =   1000000
================================================================================
P This job should need less than                     330.832 Mbytes of memory.
  Rough estimation (10% accuracy) of disk space for files :
_ WF disk file :    134.174 Mbytes ; DEN or POT disk file :      7.631 Mbytes.
================================================================================


 DATASET    9 : space group I4/m m m (#139); Bravais tI (body-center tetrag.)
================================================================================
 Values of the parameters that define the memory need for DATASET  9.
     intxc =       0    ionmov =       2      iscf =      17    lmnmax =      18
     lnmax =       6     mgfft =      64  mpssoang =       3    mqgrid =    3925
     natom =       9  nloc_mem =       2    nspden =       1   nspinor =       1
    nsppol =       1      nsym =      16    n1xccc =       1    ntypat =       4
    occopt =       1   xclevel =       2
-    mband =          42        mffmem =           1         mkmem =           4
       mpw =       10448          nfft =      262144          nkpt =          20
Pmy_natom=         2
 PAW method is used; the additional fine FFT grid is defined by:
   mgfftf=       100    nfftf =   1000000
================================================================================
P This job should need less than                     330.846 Mbytes of memory.
  Rough estimation (10% accuracy) of disk space for files :
_ WF disk file :    133.918 Mbytes ; DEN or POT disk file :      7.631 Mbytes.
================================================================================


 DATASET   10 : space group I4/m m m (#139); Bravais tI (body-center tetrag.)
================================================================================
 Values of the parameters that define the memory need for DATASET 10.
     intxc =       0    ionmov =       2      iscf =      17    lmnmax =      18
     lnmax =       6     mgfft =      64  mpssoang =       3    mqgrid =    3921
     natom =       9  nloc_mem =       2    nspden =       1   nspinor =       1
    nsppol =       1      nsym =      16    n1xccc =       1    ntypat =       4
    occopt =       1   xclevel =       2
-    mband =          42        mffmem =           1         mkmem =           4
       mpw =       10402          nfft =      262144          nkpt =          20
Pmy_natom=         2
 PAW method is used; the additional fine FFT grid is defined by:
   mgfftf=       100    nfftf =   1000000
================================================================================
P This job should need less than                     330.786 Mbytes of memory.
  Rough estimation (10% accuracy) of disk space for files :
_ WF disk file :    133.328 Mbytes ; DEN or POT disk file :      7.631 Mbytes.
================================================================================

--------------------------------------------------------------------------------
------------- Echo of variables that govern the present computation ------------
--------------------------------------------------------------------------------
-
- outvars: echo of selected default values                                      
-   iomode0 =  0 , fftalg0 =112 , wfoptalg0 = 10
-
- outvars: echo of global parameters not present in the input file              
-  max_nthreads =    0
-
 -outvars: echo values of preprocessed input variables --------
            acell1     1.4700990452E+01  1.5026998163E+01  1.4700990452E+01 Bohr
            acell2     1.4686274746E+01  1.5011956123E+01  1.4686274746E+01 Bohr
            acell3     1.4671559040E+01  1.4996914082E+01  1.4671559040E+01 Bohr
            acell4     1.4656843333E+01  1.4981872042E+01  1.4656843333E+01 Bohr
            acell5     1.4642127627E+01  1.4966830002E+01  1.4642127627E+01 Bohr
            acell6     1.4627411921E+01  1.4951787962E+01  1.4627411921E+01 Bohr
            acell7     1.4612696215E+01  1.4936745922E+01  1.4612696215E+01 Bohr
            acell8     1.4597980509E+01  1.4921703881E+01  1.4597980509E+01 Bohr
            acell9     1.4583264803E+01  1.4906661841E+01  1.4583264803E+01 Bohr
            acell10    1.4568549096E+01  1.4891619801E+01  1.4568549096E+01 Bohr
              amu      1.32905430E+02  1.26904470E+02  1.78490000E+02
                       7.99040000E+01
           diemac      1.20000000E+01
          dilatmx      1.15000000E+00
             ecut      1.60000000E+01 Hartree
           ecutsm      5.00000000E-01 Hartree
-          fftalg         112
          getxred1          0
          getxred2         -1
          getxred3         -1
          getxred4         -1
          getxred5         -1
          getxred6         -1
          getxred7         -1
          getxred8         -1
          getxred9         -1
          getxred10        -1
           ionmov           2
              ixc     -101130
           jdtset        1    2    3    4    5    6    7    8    9   10
              kpt      0.00000000E+00 -1.25000000E-01  0.00000000E+00
                       0.00000000E+00 -3.75000000E-01  0.00000000E+00
                       1.25000000E-01 -2.50000000E-01  0.00000000E+00
                       1.25000000E-01 -1.25000000E-01  1.25000000E-01
                       1.25000000E-01  5.00000000E-01  0.00000000E+00
                       2.50000000E-01 -3.75000000E-01  0.00000000E+00
                       1.25000000E-01 -3.75000000E-01  1.25000000E-01
                       2.50000000E-01 -2.50000000E-01  1.25000000E-01
                       2.50000000E-01 -1.25000000E-01  2.50000000E-01
                       1.25000000E-01  2.50000000E-01  0.00000000E+00
                       2.50000000E-01  3.75000000E-01  0.00000000E+00
                       3.75000000E-01  5.00000000E-01  0.00000000E+00
                       1.25000000E-01  3.75000000E-01  1.25000000E-01
                       2.50000000E-01  5.00000000E-01  1.25000000E-01
                       3.75000000E-01 -3.75000000E-01  1.25000000E-01
                       2.50000000E-01 -3.75000000E-01  2.50000000E-01
                       3.75000000E-01 -2.50000000E-01  2.50000000E-01
                       3.75000000E-01 -1.25000000E-01  3.75000000E-01
                       5.00000000E-01  2.50000000E-01  1.25000000E-01
                      -3.75000000E-01  3.75000000E-01  1.25000000E-01
         kptrlatt        4    4   -4     -4    4    4      4   -4    4
          kptrlen1     8.12753477E+01
          kptrlen2     8.11939909E+01
          kptrlen3     8.11126342E+01
          kptrlen4     8.10312775E+01
          kptrlen5     8.09499208E+01
          kptrlen6     8.08685641E+01
          kptrlen7     8.07872074E+01
          kptrlen8     8.07058507E+01
          kptrlen9     8.06244940E+01
          kptrlen10    8.05431373E+01
P           mkmem           4
            natom           9
            nband          42
           ndtset          10
            ngfft          64      64      64
          ngfftdg         100     100     100
             nkpt          20
            nstep        2500
             nsym          16
            ntime        1000
           ntypat           4
              occ      2.000000  2.000000  2.000000  2.000000  2.000000  2.000000
                       2.000000  2.000000  2.000000  2.000000  2.000000  2.000000
                       2.000000  2.000000  2.000000  2.000000  2.000000  2.000000
                       2.000000  2.000000  2.000000  2.000000  2.000000  2.000000
                       2.000000  2.000000  2.000000  2.000000  2.000000  2.000000
                       2.000000  2.000000  2.000000  2.000000  2.000000  2.000000
                       0.000000  0.000000  0.000000  0.000000  0.000000  0.000000
          optcell           3
        optforces           1
        pawecutdg      4.00000000E+01 Hartree
            prtwf           0
            rprim      0.0000000000E+00  6.9107033908E-01  7.2278751126E-01
                       7.0710678119E-01  0.0000000000E+00  7.0710678119E-01
                       7.2278751126E-01  6.9107033908E-01  0.0000000000E+00
           shiftk     -5.00000000E-01  5.00000000E-01  5.00000000E-01
          spgroup         139
           symrel      1  0  0   0  1  0   0  0  1      -1  0  0   0 -1  0   0  0 -1
                       0  0 -1   0 -1  0  -1  0  0       0  0  1   0  1  0   1  0  0
                       0 -1  1   0 -1  0   1 -1  0       0  1 -1   0  1  0  -1  1  0
                      -1  1  0   0  1  0   0  1 -1       1 -1  0   0 -1  0   0 -1  1
                       0 -1  1  -1  0  1   0  0  1       0  1 -1   1  0 -1   0  0 -1
                       0  0 -1   1  0 -1   0  1 -1       0  0  1  -1  0  1   0 -1  1
                       1  0  0   1  0 -1   1 -1  0      -1  0  0  -1  0  1  -1  1  0
                      -1  1  0  -1  0  1  -1  0  0       1 -1  0   1  0 -1   1  0  0
           toldff      1.00000000E-08
           tolmxf      1.00000000E-05
            typat      1  1  4  2  2  4  2  2  3
           useylm           1
              wtk        0.03125    0.03125    0.06250    0.03125    0.06250    0.06250
                         0.03125    0.06250    0.03125    0.06250    0.06250    0.06250
                         0.03125    0.06250    0.06250    0.03125    0.06250    0.03125
                         0.06250    0.06250
           xangst1     2.8114370958E+00  2.6880663498E+00  2.8114370958E+00
                       8.4343112874E+00  8.0641990495E+00  8.4343112874E+00
                       5.6228741916E+00  8.1669644259E+00  5.6228741916E+00
                       5.6228741916E+00  5.3761326996E+00  2.8387422160E+00
                       5.6228741916E+00  5.3761326996E+00  8.4070061672E+00
                       5.6228741916E+00  2.5853009733E+00  5.6228741916E+00
                       8.4070061672E+00  5.3761326996E+00  5.6228741916E+00
                       2.8387422160E+00  5.3761326996E+00  5.6228741916E+00
                      -2.7882536979E-33  5.6922019068E-22 -2.7882536979E-33
           xangst2     2.8086228445E+00  2.6853755927E+00  2.8086228445E+00
                       8.4258685334E+00  8.0561267781E+00  8.4258685334E+00
                       5.6172456889E+00  8.1587892864E+00  5.6172456889E+00
                       5.6172456889E+00  5.3707511854E+00  2.8359006322E+00
                       5.6172456889E+00  5.3707511854E+00  8.3985907457E+00
                       5.6172456889E+00  2.5827130845E+00  5.6172456889E+00
                       8.3985907457E+00  5.3707511854E+00  5.6172456889E+00
                       2.8359006322E+00  5.3707511854E+00  5.6172456889E+00
                       0.0000000000E+00  0.0000000000E+00  0.0000000000E+00
           xangst3     2.8058085931E+00  2.6826848356E+00  2.8058085931E+00
                       8.4174257793E+00  8.0480545068E+00  8.4174257793E+00
                       5.6116171862E+00  8.1506141468E+00  5.6116171862E+00
                       5.6116171862E+00  5.3653696712E+00  2.8330590484E+00
                       5.6116171862E+00  5.3653696712E+00  8.3901753241E+00
                       5.6116171862E+00  2.5801251956E+00  5.6116171862E+00
                       8.3901753241E+00  5.3653696712E+00  5.6116171862E+00
                       2.8330590484E+00  5.3653696712E+00  5.6116171862E+00
                       0.0000000000E+00  2.8404030536E-22  2.9707654025E-22
           xangst4     2.8029943418E+00  2.6799940785E+00  2.8029943418E+00
                       8.4089830253E+00  8.0399822355E+00  8.4089830253E+00
                       5.6059886835E+00  8.1424390072E+00  5.6059886835E+00
                       5.6059886835E+00  5.3599881570E+00  2.8302174646E+00
                       5.6059886835E+00  5.3599881570E+00  8.3817599025E+00
                       5.6059886835E+00  2.5775373068E+00  5.6059886835E+00
                       8.3817599025E+00  5.3599881570E+00  5.6059886835E+00
                       2.8302174646E+00  5.3599881570E+00  5.6059886835E+00
                       0.0000000000E+00  2.8375541037E-22  2.9677856980E-22
           xangst5     2.8001800904E+00  2.6773033214E+00  2.8001800904E+00
                       8.4005402712E+00  8.0319099642E+00  8.4005402712E+00
                       5.6003601808E+00  8.1342638677E+00  5.6003601808E+00
                       5.6003601808E+00  5.3546066428E+00  2.8273758808E+00
                       5.6003601808E+00  5.3546066428E+00  8.3733444809E+00
                       5.6003601808E+00  2.5749494179E+00  5.6003601808E+00
                       8.3733444809E+00  5.3546066428E+00  5.6003601808E+00
                       2.8273758808E+00  5.3546066428E+00  5.6003601808E+00
                       0.0000000000E+00  0.0000000000E+00  0.0000000000E+00
           xangst6     2.7973658391E+00  2.6746125643E+00  2.7973658391E+00
                       8.3920975172E+00  8.0238376929E+00  8.3920975172E+00
                       5.5947316781E+00  8.1260887281E+00  5.5947316781E+00
                       5.5947316781E+00  5.3492251286E+00  2.8245342970E+00
                       5.5947316781E+00  5.3492251286E+00  8.3649290593E+00
                       5.5947316781E+00  2.5723615290E+00  5.5947316781E+00
                       8.3649290593E+00  5.3492251286E+00  5.5947316781E+00
                       2.8245342970E+00  5.3492251286E+00  5.5947316781E+00
                       0.0000000000E+00  0.0000000000E+00  0.0000000000E+00
           xangst7     2.7945515877E+00  2.6719218072E+00  2.7945515877E+00
                       8.3836547632E+00  8.0157654215E+00  8.3836547632E+00
                       5.5891031754E+00  8.1179135885E+00  5.5891031754E+00
                       5.5891031754E+00  5.3438436144E+00  2.8216927132E+00
                       5.5891031754E+00  5.3438436144E+00  8.3565136377E+00
                       5.5891031754E+00  2.5697736402E+00  5.5891031754E+00
                       8.3565136377E+00  5.3438436144E+00  5.5891031754E+00
                       2.8216927132E+00  5.3438436144E+00  5.5891031754E+00
                       0.0000000000E+00  0.0000000000E+00  0.0000000000E+00
           xangst8     2.7917373364E+00  2.6692310501E+00  2.7917373364E+00
                       8.3752120091E+00  8.0076931502E+00  8.3752120091E+00
                       5.5834746727E+00  8.1097384490E+00  5.5834746727E+00
                       5.5834746727E+00  5.3384621001E+00  2.8188511294E+00
                       5.5834746728E+00  5.3384621001E+00  8.3480982161E+00
                       5.5834746728E+00  2.5671857513E+00  5.5834746728E+00
                       8.3480982161E+00  5.3384621001E+00  5.5834746728E+00
                       2.8188511294E+00  5.3384621001E+00  5.5834746727E+00
                       0.0000000000E+00  0.0000000000E+00  0.0000000000E+00
           xangst9     2.7889230850E+00  2.6665402930E+00  2.7889230850E+00
                       8.3667692551E+00  7.9996208789E+00  8.3667692551E+00
                       5.5778461700E+00  8.1015633094E+00  5.5778461700E+00
                       5.5778461700E+00  5.3330805859E+00  2.8160095456E+00
                       5.5778461701E+00  5.3330805859E+00  8.3396827945E+00
                       5.5778461701E+00  2.5645978624E+00  5.5778461701E+00
                       8.3396827945E+00  5.3330805859E+00  5.5778461701E+00
                       2.8160095456E+00  5.3330805859E+00  5.5778461700E+00
                       2.9528871755E-22  2.8233093542E-22  0.0000000000E+00
           xangst10    2.7861088337E+00  2.6638495359E+00  2.7861088337E+00
                       8.3583265010E+00  7.9915486076E+00  8.3583265010E+00
                       5.5722176673E+00  8.0933881698E+00  5.5722176673E+00
                       5.5722176673E+00  5.3276990717E+00  2.8131679618E+00
                       5.5722176674E+00  5.3276990717E+00  8.3312673729E+00
                       5.5722176674E+00  2.5620099736E+00  5.5722176674E+00
                       8.3312673729E+00  5.3276990717E+00  5.5722176674E+00
                       2.8131679618E+00  5.3276990717E+00  5.5722176673E+00
                       0.0000000000E+00  0.0000000000E+00  0.0000000000E+00
            xcart1     5.3128461509E+00  5.0797092282E+00  5.3128461509E+00
                       1.5938538453E+01  1.5239127685E+01  1.5938538453E+01
                       1.0625692302E+01  1.5433326102E+01  1.0625692302E+01
                       1.0625692302E+01  1.0159418456E+01  5.3644453500E+00
                       1.0625692302E+01  1.0159418456E+01  1.5886939254E+01
                       1.0625692302E+01  4.8855108107E+00  1.0625692302E+01
                       1.5886939254E+01  1.0159418456E+01  1.0625692302E+01
                       5.3644453500E+00  1.0159418456E+01  1.0625692302E+01
                      -5.2690358781E-33  1.0756702697E-21 -5.2690358781E-33
            xcart2     5.3075279866E+00  5.0746244342E+00  5.3075279866E+00
                       1.5922583960E+01  1.5223873302E+01  1.5922583960E+01
                       1.0615055973E+01  1.5417877327E+01  1.0615055973E+01
                       1.0615055973E+01  1.0149248868E+01  5.3590755349E+00
                       1.0615055973E+01  1.0149248868E+01  1.5871036411E+01
                       1.0615055973E+01  4.8806204095E+00  1.0615055973E+01
                       1.5871036411E+01  1.0149248868E+01  1.0615055973E+01
                       5.3590755349E+00  1.0149248868E+01  1.0615055973E+01
                       0.0000000000E+00  0.0000000000E+00  0.0000000000E+00
            xcart3     5.3022098223E+00  5.0695396401E+00  5.3022098223E+00
                       1.5906629467E+01  1.5208618920E+01  1.5906629467E+01
                       1.0604419645E+01  1.5402428552E+01  1.0604419645E+01
                       1.0604419645E+01  1.0139079280E+01  5.3537057197E+00
                       1.0604419645E+01  1.0139079280E+01  1.5855133569E+01
                       1.0604419645E+01  4.8757300083E+00  1.0604419645E+01
                       1.5855133569E+01  1.0139079280E+01  1.0604419645E+01
                       5.3537057197E+00  1.0139079280E+01  1.0604419645E+01
                       0.0000000000E+00  5.3675838783E-22  5.6139330159E-22
            xcart4     5.2968916580E+00  5.0644548461E+00  5.2968916580E+00
                       1.5890674974E+01  1.5193364538E+01  1.5890674974E+01
                       1.0593783316E+01  1.5386979777E+01  1.0593783316E+01
                       1.0593783316E+01  1.0128909692E+01  5.3483359045E+00
                       1.0593783316E+01  1.0128909692E+01  1.5839230727E+01
                       1.0593783316E+01  4.8708396071E+00  1.0593783316E+01
                       1.5839230727E+01  1.0128909692E+01  1.0593783316E+01
                       5.3483359045E+00  1.0128909692E+01  1.0593783316E+01
                       0.0000000000E+00  5.3622001432E-22  5.6083021904E-22
            xcart5     5.2915734936E+00  5.0593700521E+00  5.2915734936E+00
                       1.5874720481E+01  1.5178110156E+01  1.5874720481E+01
                       1.0583146987E+01  1.5371531003E+01  1.0583146987E+01
                       1.0583146987E+01  1.0118740104E+01  5.3429660894E+00
                       1.0583146987E+01  1.0118740104E+01  1.5823327885E+01
                       1.0583146987E+01  4.8659492059E+00  1.0583146987E+01
                       1.5823327885E+01  1.0118740104E+01  1.0583146987E+01
                       5.3429660894E+00  1.0118740104E+01  1.0583146987E+01
                       0.0000000000E+00  0.0000000000E+00  0.0000000000E+00
            xcart6     5.2862553293E+00  5.0542852581E+00  5.2862553293E+00
                       1.5858765988E+01  1.5162855774E+01  1.5858765988E+01
                       1.0572510659E+01  1.5356082228E+01  1.0572510659E+01
                       1.0572510659E+01  1.0108570516E+01  5.3375962742E+00
                       1.0572510659E+01  1.0108570516E+01  1.5807425043E+01
                       1.0572510659E+01  4.8610588046E+00  1.0572510659E+01
                       1.5807425043E+01  1.0108570516E+01  1.0572510659E+01
                       5.3375962742E+00  1.0108570516E+01  1.0572510659E+01
                       0.0000000000E+00  0.0000000000E+00  0.0000000000E+00
            xcart7     5.2809371650E+00  5.0492004640E+00  5.2809371650E+00
                       1.5842811495E+01  1.5147601392E+01  1.5842811495E+01
                       1.0561874330E+01  1.5340633453E+01  1.0561874330E+01
                       1.0561874330E+01  1.0098400928E+01  5.3322264590E+00
                       1.0561874330E+01  1.0098400928E+01  1.5791522201E+01
                       1.0561874330E+01  4.8561684034E+00  1.0561874330E+01
                       1.5791522201E+01  1.0098400928E+01  1.0561874330E+01
                       5.3322264590E+00  1.0098400928E+01  1.0561874330E+01
                       0.0000000000E+00  0.0000000000E+00  0.0000000000E+00
            xcart8     5.2756190007E+00  5.0441156700E+00  5.2756190007E+00
                       1.5826857002E+01  1.5132347010E+01  1.5826857002E+01
                       1.0551238001E+01  1.5325184678E+01  1.0551238001E+01
                       1.0551238001E+01  1.0088231340E+01  5.3268566439E+00
                       1.0551238001E+01  1.0088231340E+01  1.5775619359E+01
                       1.0551238001E+01  4.8512780022E+00  1.0551238001E+01
                       1.5775619359E+01  1.0088231340E+01  1.0551238001E+01
                       5.3268566439E+00  1.0088231340E+01  1.0551238001E+01
                       0.0000000000E+00  0.0000000000E+00  0.0000000000E+00
            xcart9     5.2703008364E+00  5.0390308760E+00  5.2703008364E+00
                       1.5810902509E+01  1.5117092628E+01  1.5810902509E+01
                       1.0540601673E+01  1.5309735903E+01  1.0540601673E+01
                       1.0540601673E+01  1.0078061752E+01  5.3214868287E+00
                       1.0540601673E+01  1.0078061752E+01  1.5759716517E+01
                       1.0540601673E+01  4.8463876010E+00  1.0540601673E+01
                       1.5759716517E+01  1.0078061752E+01  1.0540601673E+01
                       5.3214868287E+00  1.0078061752E+01  1.0540601673E+01
                       5.5801480629E-22  5.3352814678E-22  0.0000000000E+00
            xcart10    5.2649826721E+00  5.0339460820E+00  5.2649826721E+00
                       1.5794948016E+01  1.5101838246E+01  1.5794948016E+01
                       1.0529965344E+01  1.5294287128E+01  1.0529965344E+01
                       1.0529965344E+01  1.0067892164E+01  5.3161170135E+00
                       1.0529965344E+01  1.0067892164E+01  1.5743813675E+01
                       1.0529965344E+01  4.8414971998E+00  1.0529965344E+01
                       1.5743813675E+01  1.0067892164E+01  1.0529965344E+01
                       5.3161170135E+00  1.0067892164E+01  1.0529965344E+01
                       0.0000000000E+00  0.0000000000E+00  0.0000000000E+00
             xred      2.5000000000E-01  2.5000000000E-01  2.5000000000E-01
                       7.5000000000E-01  7.5000000000E-01  7.5000000000E-01
                       7.5955755580E-01  2.4044244420E-01  7.5955755580E-01
                       2.5242803940E-01  2.5242803940E-01  7.4757196060E-01
                       7.4757196060E-01  7.4757196060E-01  2.5242803940E-01
                       2.4044244420E-01  7.5955755580E-01  2.4044244420E-01
                       2.5242803940E-01  7.4757196060E-01  7.4757196060E-01
                       7.4757196060E-01  2.5242803940E-01  2.5242803940E-01
                       5.2939559203E-23 -5.2939559203E-23  5.2939559203E-23
            znucl       55.00000   53.00000   72.00000   35.00000

================================================================================

 chkinp: Checking input parameters for consistency, jdtset=   1.

 chkinp: Checking input parameters for consistency, jdtset=   2.

 chkinp: Checking input parameters for consistency, jdtset=   3.

 chkinp: Checking input parameters for consistency, jdtset=   4.

 chkinp: Checking input parameters for consistency, jdtset=   5.

 chkinp: Checking input parameters for consistency, jdtset=   6.

 chkinp: Checking input parameters for consistency, jdtset=   7.

 chkinp: Checking input parameters for consistency, jdtset=   8.

 chkinp: Checking input parameters for consistency, jdtset=   9.

 chkinp: Checking input parameters for consistency, jdtset=  10.

================================================================================
== DATASET  1 ==================================================================
-   mpi_nproc: 6, omp_nthreads: -1 (-1 if OMP is not activated)


--- !DatasetInfo
iteration_state: {dtset: 1, }
dimensions: {natom: 9, nkpt: 20, mband: 42, nsppol: 1, nspinor: 1, nspden: 1, mpw: 10693, }
cutoff_energies: {ecut:  16.0, pawecutdg:  40.0, }
electrons: {nelect:   7.20000000E+01, charge:   0.00000000E+00, occopt:   1.00000000E+00, tsmear:   1.00000000E-02, }
meta: {optdriver: 0, ionmov: 2, optcell: 3, iscf: 17, paral_kgb: 0, }
...

 Real(R)+Recip(G) space primitive vectors, cartesian coordinates (Bohr,Bohr^-1):
 R(1)=  0.0000000 10.1594185 10.6256923  G(1)= -0.0470558  0.0492154  0.0470558
 R(2)= 10.6256923  0.0000000 10.6256923  G(2)=  0.0470558 -0.0492154  0.0470558
 R(3)= 10.6256923 10.1594185  0.0000000  G(3)=  0.0470558  0.0492154 -0.0470558
 Unit cell volume ucvol=  2.2941051E+03 bohr^3
 Angles (23,13,12)=  5.92636752E+01  6.14726496E+01  5.92636752E+01 degrees

 Coarse grid specifications (used for wave-functions):

 getcut: wavevector=  0.0000  0.0000  0.0000  ngfft=  64  64  64
         ecut(hartree)=     21.160   => boxcut(ratio)=   2.05677

 Fine grid specifications (used for densities):

 getcut: wavevector=  0.0000  0.0000  0.0000  ngfft= 100 100 100
         ecut(hartree)=     52.900   => boxcut(ratio)=   2.03252

--- Pseudopotential description ------------------------------------------------
- pspini: atom type   1  psp file is ../../../Psps_for_tests/ATOMICDATA/Cs.GGA_PBE-JTH.xml
- pspatm: opening atomic psp file    ../../../Psps_for_tests/ATOMICDATA/Cs.GGA_PBE-JTH.xml
- pspatm : Reading pseudopotential header in XML form from ../../../Psps_for_tests/ATOMICDATA/Cs.GGA_PBE-JTH.xml
 Pseudopotential format is: paw10
 basis_size (lnmax)=  6 (lmn_size= 18), orbitals=   0   0   1   1   2   2
 Spheres core radius: rc_sph= 2.20660278
 1 radial meshes are used:
  - mesh 1: r(i)=AA*[exp(BB*(i-1))-1], size=1500 , AA= 0.15922E-03 BB= 0.87573E-02
 Shapefunction is SIN type: shapef(r)=[sin(pi*r/rshp)/(pi*r/rshp)]**2
 Radius for shape functions =  2.00394208
 mmax= 1500
 Radial grid used for partial waves is grid 1
 Radial grid used for projectors is grid 1
 Radial grid used for (t)core density is grid 1
 Radial grid used for Vloc is grid 1
 Radial grid used for pseudo valence density is grid 1
 Mesh size for Vloc has been set to 1341 to avoid numerical noise.
 Compensation charge density is not taken into account in XC energy/potential
 pspatm: atomic psp has been read  and splines computed

- pspini: atom type   2  psp file is ../../../Psps_for_tests/ATOMICDATA/I.GGA_PBE-JTH.xml
- pspatm: opening atomic psp file    ../../../Psps_for_tests/ATOMICDATA/I.GGA_PBE-JTH.xml
- pspatm : Reading pseudopotential header in XML form from ../../../Psps_for_tests/ATOMICDATA/I.GGA_PBE-JTH.xml
 Pseudopotential format is: paw10
 basis_size (lnmax)=  4 (lmn_size=  8), orbitals=   0   0   1   1
 Spheres core radius: rc_sph= 2.30022271
 1 radial meshes are used:
  - mesh 1: r(i)=AA*[exp(BB*(i-1))-1], size=2000 , AA= 0.12610E-03 BB= 0.66836E-02
 Shapefunction is SIN type: shapef(r)=[sin(pi*r/rshp)/(pi*r/rshp)]**2
 Radius for shape functions =  2.10879093
 mmax= 2000
 Radial grid used for partial waves is grid 1
 Radial grid used for projectors is grid 1
 Radial grid used for (t)core density is grid 1
 Radial grid used for Vloc is grid 1
 Radial grid used for pseudo valence density is grid 1
 Mesh size for Vloc has been set to 1792 to avoid numerical noise.
 Compensation charge density is not taken into account in XC energy/potential
 pspatm: atomic psp has been read  and splines computed

- pspini: atom type   3  psp file is ../../../Psps_for_tests/ATOMICDATA/Hf.GGA_PBE-JTH.xml
- pspatm: opening atomic psp file    ../../../Psps_for_tests/ATOMICDATA/Hf.GGA_PBE-JTH.xml
- pspatm : Reading pseudopotential header in XML form from ../../../Psps_for_tests/ATOMICDATA/Hf.GGA_PBE-JTH.xml
 Pseudopotential format is: paw10
 basis_size (lnmax)=  6 (lmn_size= 18), orbitals=   0   0   1   1   2   2
 Spheres core radius: rc_sph= 2.41000000
 1 radial meshes are used:
  - mesh 1: r(i)=AA*[exp(BB*(i-1))-1], size= 972 , AA= 0.19796E-03 BB= 0.14253E-01
 Shapefunction is SIN type: shapef(r)=[sin(pi*r/rshp)/(pi*r/rshp)]**2
 Radius for shape functions =  2.41000000
 mmax=  972
 Radial grid used for partial waves is grid 1
 Radial grid used for projectors is grid 1
 Radial grid used for (t)core density is grid 1
 Radial grid used for Vloc is grid 1
 Radial grid used for pseudo valence density is grid 1
 Mesh size for Vloc has been set to  809 to avoid numerical noise.
 Compensation charge density is not taken into account in XC energy/potential
 pspatm: atomic psp has been read  and splines computed

- pspini: atom type   4  psp file is ../../../Psps_for_tests/ATOMICDATA/Br.GGA_PBE-JTH.xml
- pspatm: opening atomic psp file    ../../../Psps_for_tests/ATOMICDATA/Br.GGA_PBE-JTH.xml
- pspatm : Reading pseudopotential header in XML form from ../../../Psps_for_tests/ATOMICDATA/Br.GGA_PBE-JTH.xml
 Pseudopotential format is: paw10
 basis_size (lnmax)=  4 (lmn_size=  8), orbitals=   0   0   1   1
 Spheres core radius: rc_sph= 2.20000000
 1 radial meshes are used:
  - mesh 1: r(i)=AA*[exp(BB*(i-1))-1], size= 927 , AA= 0.40483E-03 BB= 0.14169E-01
 Shapefunction is BESSEL type: shapef(r,l)=aa(1,l)*jl(q(1,l)*r)+aa(2,l)*jl(q(2,l)*r)
 Radius for shape functions =  2.02066386
 mmax=  927
 Radial grid used for partial waves is grid 1
 Radial grid used for projectors is grid 1
 Radial grid used for (t)core density is grid 1
 Radial grid used for Vloc is grid 1
 Radial grid used for pseudo valence density is grid 1
 Mesh size for Vloc has been set to  763 to avoid numerical noise.
 Compensation charge density is not taken into account in XC energy/potential
 pspatm: atomic psp has been read  and splines computed

   4.24151776E+04                                ecore*ucvol(ha*bohr**3)
--------------------------------------------------------------------------------

_setup2: Arith. and geom. avg. npw (full set) are   10666.750   10666.745

================================================================================

=== [ionmov= 2] Broyden-Fletcher-Goldfard-Shanno method (forces)            
================================================================================

--- Iteration: (   1/1000) Internal Cycle: (1/1)
--------------------------------------------------------------------------------

---SELF-CONSISTENT-FIELD CONVERGENCE--------------------------------------------

--- !BeginCycle
iteration_state: {dtset: 1, itime: 1, icycle: 1, }
solver: {iscf: 17, nstep: 2500, nline: 4, wfoptalg: 10, }
tolerances: {toldff: 1.00E-08, }
...

     iter   Etot(hartree)      deltaE(h)  residm     nres2    diffor    maxfor
 ETOT  1  -163.63990305977    -1.636E+02 7.076E+00 7.993E+00 1.320E-02 1.320E-02
 ETOT  2  -165.25883278261    -1.619E+00 1.836E-02 2.957E+00 1.817E-02 1.096E-02
 ETOT  3  -165.25091133008     7.921E-03 1.202E-02 5.524E-01 2.627E-02 3.012E-02
 ETOT  4  -165.25158317349    -6.718E-04 7.267E-03 1.199E-01 3.879E-02 8.669E-03
 ETOT  5  -165.25150520470     7.797E-05 3.560E-03 1.098E-02 1.253E-02 3.866E-03
 ETOT  6  -165.25157310976    -6.791E-05 1.549E-03 1.022E-03 4.384E-03 5.182E-04
 ETOT  7  -165.25158010258    -6.993E-06 2.123E-03 3.020E-04 7.896E-05 5.663E-04
 ETOT  8  -165.25158319496    -3.092E-06 1.339E-03 4.245E-05 1.875E-04 3.788E-04
 ETOT  9  -165.25158344045    -2.455E-07 1.114E-03 7.610E-06 1.460E-04 5.247E-04
 ETOT 10  -165.25158351838    -7.793E-08 5.409E-04 2.171E-06 1.340E-05 5.381E-04
 ETOT 11  -165.25158351900    -6.197E-10 3.974E-04 5.096E-07 2.256E-05 5.156E-04
 ETOT 12  -165.25158351997    -9.697E-10 1.862E-04 2.193E-08 3.742E-06 5.118E-04
 ETOT 13  -165.25158352015    -1.841E-10 1.328E-04 1.254E-08 3.350E-06 5.152E-04
 ETOT 14  -165.25158352018    -2.836E-11 9.208E-05 4.663E-10 7.678E-07 5.158E-04
 ETOT 15  -165.25158352017     4.292E-12 5.572E-05 6.120E-10 1.730E-07 5.159E-04
 ETOT 16  -165.25158352018    -8.100E-12 6.805E-05 3.860E-11 1.986E-07 5.160E-04
 ETOT 17  -165.25158352018    -6.821E-13 4.626E-05 1.104E-10 8.600E-08 5.161E-04
 ETOT 18  -165.25158352018    -1.450E-12 4.971E-05 9.925E-12 4.072E-08 5.161E-04
 ETOT 19  -165.25158352018     7.958E-13 4.031E-05 1.597E-12 1.702E-08 5.161E-04
 ETOT 20  -165.25158352018     4.860E-12 3.561E-05 1.157E-12 3.764E-10 5.161E-04
 ETOT 21  -165.25158352019    -1.225E-11 3.406E-05 1.436E-14 4.437E-09 5.161E-04

 At SCF step   21, forces are converged : 
  for the second time, max diff in force=  4.437E-09 < toldff=  1.000E-08

 Cartesian components of stress tensor (hartree/bohr^3)
  sigma(1 1)= -8.56327184E-05  sigma(3 2)=  3.90577399E-14
  sigma(2 2)= -8.59086666E-05  sigma(3 1)= -7.46890292E-14
  sigma(3 3)= -8.56327184E-05  sigma(2 1)=  3.90584988E-14


--- !ResultsGS
iteration_state: {dtset: 1, itime: 1, icycle: 1, }
comment   : Summary of ground state results
lattice_vectors:
- [  0.0000000,  10.1594185,  10.6256923, ]
- [ 10.6256923,   0.0000000,  10.6256923, ]
- [ 10.6256923,  10.1594185,   0.0000000, ]
lattice_lengths: [  14.70099,   15.02700,   14.70099, ]
lattice_angles: [ 59.264,  61.473,  59.264, ] # degrees, (23, 13, 12)
lattice_volume:   2.2941051E+03
convergence: {deltae: -1.225E-11, res2:  1.436E-14, residm:  3.406E-05, diffor:  4.437E-09, }
etotal    :  -1.65251584E+02
entropy   :   0.00000000E+00
fermie    :  -9.62747474E-02
cartesian_stress_tensor: # hartree/bohr^3
- [ -8.56327184E-05,   3.90584988E-14,  -7.46890292E-14, ]
- [  3.90584988E-14,  -8.59086666E-05,   3.90577399E-14, ]
- [ -7.46890292E-14,   3.90577399E-14,  -8.56327184E-05, ]
pressure_GPa:   2.5221E+00
xred      :
- [  2.5000E-01,   2.5000E-01,   2.5000E-01, Cs]
- [  7.5000E-01,   7.5000E-01,   7.5000E-01, Cs]
- [  7.5956E-01,   2.4044E-01,   7.5956E-01, Br]
- [  2.5243E-01,   2.5243E-01,   7.4757E-01,  I]
- [  7.4757E-01,   7.4757E-01,   2.5243E-01,  I]
- [  2.4044E-01,   7.5956E-01,   2.4044E-01, Br]
- [  2.5243E-01,   7.4757E-01,   7.4757E-01,  I]
- [  7.4757E-01,   2.5243E-01,   2.5243E-01,  I]
- [  5.2940E-23,  -5.2940E-23,   5.2940E-23, Hf]
cartesian_forces: # hartree/bohr
- [  6.02334547E-21,   4.96948700E-29,  -6.65867006E-21, ]
- [  6.02334512E-21,  -3.97558960E-29,  -6.65866971E-21, ]
- [ -4.24688419E-20,  -5.16098085E-04,   4.18335173E-20, ]
- [ -1.91850555E-15,   2.00656260E-15,   4.09645553E-04, ]
- [  1.91851759E-15,  -2.00656260E-15,  -4.09645553E-04, ]
- [  3.05424101E-22,   5.16098085E-04,  -9.40748690E-22, ]
- [ -4.09645553E-04,  -2.00660529E-15,   1.91854573E-15, ]
- [  4.09645553E-04,   2.00660529E-15,  -1.91855904E-15, ]
- [  6.02334540E-21,  -0.00000000E+00,  -6.65866999E-21, ]
force_length_stats: {min:   8.97878436E-21, max:   5.16098085E-04, mean:   2.96753153E-04, }
...

 Integrated electronic density in atomic spheres:
 ------------------------------------------------
 Atom  Sphere_radius  Integrated_density
    1        2.20660          5.36998616
    2        2.20660          5.36998616
    3        2.20000          4.93991574
    4        2.30022          4.03387948
    5        2.30022          4.03387948
    6        2.20000          4.93991574
    7        2.30022          4.03387948
    8        2.30022          4.03387948
    9        2.41000          9.30442231

 PAW TEST:
 ==== Compensation charge inside spheres ============
 The following values must be close to each other ...
 Compensation charge over spherical meshes =     -0.490108148002872
 Compensation charge over fine fft grid    =     -0.490099137169632

 ==== Results concerning PAW augmentation regions ====

 Total pseudopotential strength Dij (hartree):
 Atom #  1
   0.44085  -0.14598   0.00000   0.00000   0.00000   0.00000   0.00000   0.00000   0.00000   0.00000   0.00000   0.00000 ...
  -0.14598   0.04399   0.00000   0.00000   0.00000   0.00000   0.00000   0.00000   0.00000   0.00000  -0.00000   0.00000 ...
   0.00000   0.00000  -0.09363   0.00000   0.00000  -0.16654   0.00000   0.00000   0.00000   0.00000   0.00000  -0.00000 ...
   0.00000   0.00000   0.00000  -0.09363   0.00000   0.00000  -0.16655   0.00000  -0.00000   0.00000   0.00000   0.00000 ...
   0.00000   0.00000   0.00000   0.00000  -0.09363   0.00000   0.00000  -0.16655   0.00000  -0.00000   0.00000   0.00000 ...
   0.00000   0.00000  -0.16654   0.00000   0.00000   0.40423   0.00000   0.00000   0.00000   0.00000   0.00000   0.00000 ...
   0.00000   0.00000   0.00000  -0.16655   0.00000   0.00000   0.40423   0.00000   0.00000   0.00000   0.00000   0.00000 ...
   0.00000   0.00000   0.00000   0.00000  -0.16655   0.00000   0.00000   0.40423   0.00000   0.00000   0.00000   0.00000 ...
   0.00000   0.00000   0.00000  -0.00000   0.00000   0.00000   0.00000   0.00000   0.00522   0.00000   0.00000   0.00000 ...
   0.00000   0.00000   0.00000   0.00000  -0.00000   0.00000   0.00000   0.00000   0.00000   0.00522   0.00000   0.00000 ...
   0.00000  -0.00000   0.00000   0.00000   0.00000   0.00000   0.00000   0.00000   0.00000   0.00000   0.00522   0.00000 ...
   0.00000   0.00000  -0.00000   0.00000   0.00000   0.00000   0.00000   0.00000   0.00000   0.00000   0.00000   0.00522 ...
   ...  only 12  components have been written...
 Atom #  9
  -3.52112   0.42920   0.00000   0.00000   0.00000   0.00000   0.00000   0.00000   0.00000   0.00000  -0.00009   0.00000 ...
   0.42920   0.00268   0.00000   0.00000   0.00000   0.00000   0.00000   0.00000   0.00000   0.00000   0.00001   0.00000 ...
   0.00000   0.00000  -1.46005   0.00000   0.00000   0.12421   0.00000   0.00000   0.00000   0.00000   0.00000   0.00000 ...
   0.00000   0.00000   0.00000  -1.46065   0.00000   0.00000   0.12431   0.00000   0.00000   0.00000   0.00000   0.00000 ...
   0.00000   0.00000   0.00000   0.00000  -1.46065   0.00000   0.00000   0.12431   0.00000   0.00000   0.00000   0.00000 ...
   0.00000   0.00000   0.12421   0.00000   0.00000   0.01326   0.00000   0.00000   0.00000   0.00000   0.00000   0.00000 ...
   0.00000   0.00000   0.00000   0.12431   0.00000   0.00000   0.01324   0.00000   0.00000   0.00000   0.00000   0.00000 ...
   0.00000   0.00000   0.00000   0.00000   0.12431   0.00000   0.00000   0.01324   0.00000   0.00000   0.00000   0.00000 ...
   0.00000   0.00000   0.00000   0.00000   0.00000   0.00000   0.00000   0.00000  -0.39481   0.00000   0.00000   0.00000 ...
   0.00000   0.00000   0.00000   0.00000   0.00000   0.00000   0.00000   0.00000   0.00000  -0.39481   0.00000   0.00000 ...
  -0.00009   0.00001   0.00000   0.00000   0.00000   0.00000   0.00000   0.00000   0.00000   0.00000  -0.39422   0.00000 ...
   0.00000   0.00000   0.00000   0.00000   0.00000   0.00000   0.00000   0.00000   0.00000   0.00000   0.00000  -0.39493 ...
   ...  only 12  components have been written...


 Augmentation waves occupancies Rhoij:
 Atom #  1
   1.99797  -0.01407   0.00000   0.00000   0.00000   0.00000   0.00000   0.00000   0.00000   0.00000   0.00065   0.00000 ...
  -0.01407   0.18943   0.00000   0.00000   0.00000   0.00000   0.00000   0.00000   0.00000   0.00000  -0.01083   0.00000 ...
   0.00000   0.00000   2.00813   0.00000   0.00000  -0.00517   0.00000   0.00000   0.00000   0.00000   0.00000  -0.00137 ...
   0.00000   0.00000   0.00000   2.00698   0.00000   0.00000  -0.00490   0.00000  -0.00160   0.00000   0.00000   0.00000 ...
   0.00000   0.00000   0.00000   0.00000   2.00698   0.00000   0.00000  -0.00490   0.00000  -0.00160   0.00000   0.00000 ...
   0.00000   0.00000  -0.00517   0.00000   0.00000   0.00016   0.00000   0.00000   0.00000   0.00000   0.00000   0.00005 ...
   0.00000   0.00000   0.00000  -0.00490   0.00000   0.00000   0.00013   0.00000   0.00006   0.00000   0.00000   0.00000 ...
   0.00000   0.00000   0.00000   0.00000  -0.00490   0.00000   0.00000   0.00013   0.00000   0.00006   0.00000   0.00000 ...
   0.00000   0.00000   0.00000  -0.00160   0.00000   0.00000   0.00006   0.00000   0.08022   0.00000   0.00000   0.00000 ...
   0.00000   0.00000   0.00000   0.00000  -0.00160   0.00000   0.00000   0.00006   0.00000   0.08022   0.00000   0.00000 ...
   0.00065  -0.01083   0.00000   0.00000   0.00000   0.00000   0.00000   0.00000   0.00000   0.00000   0.05011   0.00000 ...
   0.00000   0.00000  -0.00137   0.00000   0.00000   0.00005   0.00000   0.00000   0.00000   0.00000   0.00000   0.03573 ...
   ...  only 12  components have been written...
 Atom #  9
   1.99797  -0.02021   0.00000   0.00000   0.00000   0.00000   0.00000   0.00000   0.00000   0.00000  -0.00038   0.00000 ...
  -0.02021   1.01461   0.00000   0.00000   0.00000   0.00000   0.00000   0.00000   0.00000   0.00000  -0.02446   0.00000 ...
   0.00000   0.00000   1.99269   0.00000   0.00000  -0.06318   0.00000   0.00000   0.00000   0.00000   0.00000   0.00000 ...
   0.00000   0.00000   0.00000   1.99302   0.00000   0.00000  -0.05784   0.00000   0.00000   0.00000   0.00000   0.00000 ...
   0.00000   0.00000   0.00000   0.00000   1.99302   0.00000   0.00000  -0.05784   0.00000   0.00000   0.00000   0.00000 ...
   0.00000   0.00000  -0.06318   0.00000   0.00000   1.40358   0.00000   0.00000   0.00000   0.00000   0.00000   0.00000 ...
   0.00000   0.00000   0.00000  -0.05784   0.00000   0.00000   1.19950   0.00000   0.00000   0.00000   0.00000   0.00000 ...
   0.00000   0.00000   0.00000   0.00000  -0.05784   0.00000   0.00000   1.19950   0.00000   0.00000   0.00000   0.00000 ...
   0.00000   0.00000   0.00000   0.00000   0.00000   0.00000   0.00000   0.00000   0.49850   0.00000   0.00000   0.00000 ...
   0.00000   0.00000   0.00000   0.00000   0.00000   0.00000   0.00000   0.00000   0.00000   0.49850   0.00000   0.00000 ...
  -0.00038  -0.02446   0.00000   0.00000   0.00000   0.00000   0.00000   0.00000   0.00000   0.00000   1.41155   0.00000 ...
   0.00000   0.00000   0.00000   0.00000   0.00000   0.00000   0.00000   0.00000   0.00000   0.00000   0.00000   0.45852 ...
   ...  only 12  components have been written...



---OUTPUT-----------------------------------------------------------------------

 Cartesian coordinates (xcart) [bohr]
  5.31284615089683E+00  5.07970922818315E+00  5.31284615089683E+00
  1.59385384526905E+01  1.52391276845494E+01  1.59385384526905E+01
  1.06256923017678E+01  1.54333261020324E+01  1.06256923017678E+01
  1.06256923017690E+01  1.01594184563663E+01  5.36444535001890E+00
  1.06256923018183E+01  1.01594184563663E+01  1.58869392535684E+01
  1.06256923018195E+01  4.88551081070020E+00  1.06256923018195E+01
  1.58869392535684E+01  1.01594184563663E+01  1.06256923018183E+01
  5.36444535001890E+00  1.01594184563663E+01  1.06256923017690E+01
 -5.26903587812582E-33  1.07567026968571E-21 -5.26903587812582E-33
 Reduced coordinates (xred)
  2.50000000000000E-01  2.50000000000000E-01  2.50000000000000E-01
  7.50000000000000E-01  7.50000000000000E-01  7.50000000000000E-01
  7.59557555795000E-01  2.40442444205000E-01  7.59557555795000E-01
  2.52428039400000E-01  2.52428039400000E-01  7.47571960600000E-01
  7.47571960600000E-01  7.47571960600000E-01  2.52428039400000E-01
  2.40442444205000E-01  7.59557555795000E-01  2.40442444205000E-01
  2.52428039400000E-01  7.47571960600000E-01  7.47571960600000E-01
  7.47571960600000E-01  2.52428039400000E-01  2.52428039400000E-01
  5.29395592033938E-23 -5.29395592033938E-23  5.29395592033938E-23
 Cartesian forces (fcart) [Ha/bohr]; max,rms= 5.16098E-04 2.11165E-04 (free atoms)
  6.02334546921709E-21  4.96948699878658E-29 -6.65867005832486E-21
  6.02334511761221E-21 -3.97558959902927E-29 -6.65866970671998E-21
 -4.24688419197101E-20 -5.16098084710391E-04  4.18335173306024E-20
 -1.91850554740899E-15  2.00656260392034E-15  4.09645552783535E-04
  1.91851759409979E-15 -2.00656260392034E-15 -4.09645552783535E-04
  3.05424100829408E-22  5.16098084710391E-04 -9.40748689937181E-22
 -4.09645552783535E-04 -2.00660529148862E-15  1.91854572644799E-15
  4.09645552783535E-04  2.00660529148862E-15 -1.91855904378797E-15
  6.02334540269725E-21 -0.00000000000000E+00 -6.65866999180502E-21
 Reduced forces (fred)
  7.07529786737241E-20  6.75076359565431E-21 -6.40022160878750E-20
  7.07529758464466E-20  6.75076359565431E-21 -6.40022114430620E-20
  5.24325640710204E-03  6.75076359565432E-21  5.24325640710204E-03
 -4.35276759667602E-03 -4.35276759667602E-03 -5.95261661167165E-20
  4.35276759667602E-03  4.35276759667602E-03 -6.84782636337901E-20
 -5.24325640710204E-03  6.75076359565431E-21 -5.24325640710204E-03
  6.62769297156405E-20  4.35276759667602E-03  4.35276759667602E-03
  7.52290272307050E-20 -4.35276759667602E-03 -4.35276759667602E-03
  7.07529784717757E-20  6.75076359565431E-21 -6.40022148761846E-20
 Scale of Primitive Cell (acell) [bohr]
  1.47009904518420E+01  1.50269981627970E+01  1.47009904518420E+01
 Real space primitive translations (rprimd) [bohr]
  0.00000000000000E+00  1.01594184563663E+01  1.06256923017439E+01
  1.06256923018434E+01  0.00000000000000E+00  1.06256923018434E+01
  1.06256923017439E+01  1.01594184563663E+01  0.00000000000000E+00
 Unitary Cell Volume (ucvol) [Bohr^3]=  2.29410512689375E+03
 Angles (23,13,12)= [degrees]
  5.92636752114320E+01  6.14726495771360E+01  5.92636752114320E+01
 Lengths [Bohr]
  1.47009904517653E+01  1.50269981628704E+01  1.47009904517653E+01
 Stress tensor in cartesian coordinates (strten) [Ha/bohr^3]
 -8.56327183906980E-05  3.90584987734031E-14 -7.46890291955195E-14
  3.90584987734031E-14 -8.59086665636541E-05  3.90577399351565E-14
 -7.46890291955195E-14  3.90577399351565E-14 -8.56327183906963E-05
 Total energy (etotal) [Ha]= -1.65251583520190E+02

--- Iteration: (   2/1000) Internal Cycle: (1/1)
--------------------------------------------------------------------------------

---SELF-CONSISTENT-FIELD CONVERGENCE--------------------------------------------

--- !BeginCycle
iteration_state: {dtset: 1, itime: 2, icycle: 1, }
solver: {iscf: 17, nstep: 2500, nline: 4, wfoptalg: 10, }
tolerances: {toldff: 1.00E-08, }
...

     iter   Etot(hartree)      deltaE(h)  residm     nres2    diffor    maxfor
 ETOT  1  -165.25158668024    -1.653E+02 2.791E-05 3.089E-04 1.723E-03 2.240E-03
 ETOT  2  -165.25158480928     1.871E-06 2.267E-05 3.551E-05 1.826E-03 4.130E-04
 ETOT  3  -165.25158465735     1.519E-07 1.655E-05 2.561E-06 2.156E-04 6.287E-04
 ETOT  4  -165.25158464385     1.350E-08 1.786E-05 5.229E-07 1.638E-04 4.649E-04
 ETOT  5  -165.25158464526    -1.410E-09 1.508E-05 2.213E-07 4.484E-06 4.694E-04
 ETOT  6  -165.25158464576    -5.018E-10 1.391E-05 2.225E-08 1.559E-05 4.538E-04
 ETOT  7  -165.25158464602    -2.572E-10 1.644E-05 1.117E-08 1.263E-06 4.539E-04
 ETOT  8  -165.25158464638    -3.609E-10 1.337E-05 1.181E-09 2.411E-06 4.519E-04
 ETOT  9  -165.25158464637     9.209E-12 1.776E-05 6.837E-10 9.915E-08 4.518E-04
 ETOT 10  -165.25158464632     5.750E-11 1.433E-05 1.322E-10 3.703E-07 4.514E-04
 ETOT 11  -165.25158464630     1.955E-11 1.898E-05 4.223E-11 8.594E-08 4.515E-04
 ETOT 12  -165.25158464625     4.846E-11 1.519E-05 3.465E-12 3.053E-08 4.516E-04
 ETOT 13  -165.25158464624     6.935E-12 2.004E-05 2.516E-12 1.282E-08 4.516E-04
 ETOT 14  -165.25158464623     8.612E-12 1.591E-05 2.034E-13 1.342E-08 4.516E-04
 ETOT 15  -165.25158464623     2.984E-12 2.090E-05 2.912E-14 6.935E-09 4.515E-04
 ETOT 16  -165.25158464623     2.274E-12 1.646E-05 1.469E-14 3.335E-10 4.515E-04

 At SCF step   16, forces are converged : 
  for the second time, max diff in force=  3.335E-10 < toldff=  1.000E-08

 Cartesian components of stress tensor (hartree/bohr^3)
  sigma(1 1)= -8.54785009E-05  sigma(3 2)=  3.90604392E-14
  sigma(2 2)= -8.56879003E-05  sigma(3 1)= -7.46953502E-14
  sigma(3 3)= -8.54785009E-05  sigma(2 1)=  3.90611723E-14


--- !ResultsGS
iteration_state: {dtset: 1, itime: 2, icycle: 1, }
comment   : Summary of ground state results
lattice_vectors:
- [  0.0000000,  10.1594745,  10.6256630, ]
- [ 10.6256630,   0.0000000,  10.6256630, ]
- [ 10.6256630,  10.1594745,   0.0000000, ]
lattice_lengths: [  14.70101,   15.02696,   14.70101, ]
lattice_angles: [ 59.264,  61.472,  59.264, ] # degrees, (23, 13, 12)
lattice_volume:   2.2941051E+03
convergence: {deltae:  2.274E-12, res2:  1.469E-14, residm:  1.646E-05, diffor:  3.335E-10, }
etotal    :  -1.65251585E+02
entropy   :   0.00000000E+00
fermie    :  -9.62713180E-02
cartesian_stress_tensor: # hartree/bohr^3
- [ -8.54785009E-05,   3.90611723E-14,  -7.46953502E-14, ]
- [  3.90611723E-14,  -8.56879003E-05,   3.90604392E-14, ]
- [ -7.46953502E-14,   3.90604392E-14,  -8.54785009E-05, ]
pressure_GPa:   2.5169E+00
xred      :
- [  2.5000E-01,   2.5000E-01,   2.5000E-01, Cs]
- [  7.5000E-01,   7.5000E-01,   7.5000E-01, Cs]
- [  7.5953E-01,   2.4047E-01,   7.5953E-01, Br]
- [  2.5245E-01,   2.5245E-01,   7.4755E-01,  I]
- [  7.4755E-01,   7.4755E-01,   2.5245E-01,  I]
- [  2.4047E-01,   7.5953E-01,   2.4047E-01, Br]
- [  2.5245E-01,   7.4755E-01,   7.4755E-01,  I]
- [  7.4755E-01,   2.5245E-01,   2.5245E-01,  I]
- [ -1.2234E-21,  -1.1760E-22,   1.4054E-21, Hf]
cartesian_forces: # hartree/bohr
- [  1.20470022E-20,   6.02350824E-21,  -1.09995221E-20, ]
- [  1.20463794E-20,   6.02318256E-21,  -1.09995221E-20, ]
- [  1.60178050E-20,  -4.51546685E-04,  -1.49706363E-20, ]
- [ -1.70006311E-15,   1.77811371E-15,   3.62982749E-04, ]
- [  1.70004639E-15,  -1.77805897E-15,  -3.62982749E-04, ]
- [ -3.27388996E-20,   4.51546685E-04,   3.37860683E-20, ]
- [ -3.62982749E-04,  -1.77805897E-15,   1.70002335E-15, ]
- [  3.62982749E-04,   1.77807102E-15,  -1.70004535E-15, ]
- [  1.20466908E-20,   6.02334540E-21,  -1.09995221E-20, ]
force_length_stats: {min:   1.73891769E-20, max:   4.51546685E-04, mean:   2.61669374E-04, }
...

 Integrated electronic density in atomic spheres:
 ------------------------------------------------
 Atom  Sphere_radius  Integrated_density
    1        2.20660          5.36998668
    2        2.20660          5.36998668
    3        2.20000          4.93984621
    4        2.30022          4.03325860
    5        2.30022          4.03325860
    6        2.20000          4.93984621
    7        2.30022          4.03325860
    8        2.30022          4.03325860
    9        2.41000          9.30408910

 PAW TEST:
 ==== Compensation charge inside spheres ============
 The following values must be close to each other ...
 Compensation charge over spherical meshes =     -0.490139539293827
 Compensation charge over fine fft grid    =     -0.490130621341824

 ==== Results concerning PAW augmentation regions ====

 Total pseudopotential strength Dij (hartree):
 Atom #  1
   0.44085  -0.14598   0.00000   0.00000   0.00000   0.00000   0.00000   0.00000   0.00000   0.00000   0.00000   0.00000 ...
  -0.14598   0.04399   0.00000   0.00000   0.00000   0.00000   0.00000   0.00000   0.00000   0.00000  -0.00000   0.00000 ...
   0.00000   0.00000  -0.09363   0.00000   0.00000  -0.16655   0.00000   0.00000   0.00000   0.00000   0.00000  -0.00000 ...
   0.00000   0.00000   0.00000  -0.09363   0.00000   0.00000  -0.16655   0.00000  -0.00000   0.00000   0.00000   0.00000 ...
   0.00000   0.00000   0.00000   0.00000  -0.09363   0.00000   0.00000  -0.16655   0.00000  -0.00000   0.00000   0.00000 ...
   0.00000   0.00000  -0.16655   0.00000   0.00000   0.40422   0.00000   0.00000   0.00000   0.00000   0.00000   0.00000 ...
   0.00000   0.00000   0.00000  -0.16655   0.00000   0.00000   0.40423   0.00000   0.00000   0.00000   0.00000   0.00000 ...
   0.00000   0.00000   0.00000   0.00000  -0.16655   0.00000   0.00000   0.40423   0.00000   0.00000   0.00000   0.00000 ...
   0.00000   0.00000   0.00000  -0.00000   0.00000   0.00000   0.00000   0.00000   0.00522   0.00000   0.00000   0.00000 ...
   0.00000   0.00000   0.00000   0.00000  -0.00000   0.00000   0.00000   0.00000   0.00000   0.00522   0.00000   0.00000 ...
   0.00000  -0.00000   0.00000   0.00000   0.00000   0.00000   0.00000   0.00000   0.00000   0.00000   0.00522   0.00000 ...
   0.00000   0.00000  -0.00000   0.00000   0.00000   0.00000   0.00000   0.00000   0.00000   0.00000   0.00000   0.00522 ...
   ...  only 12  components have been written...
 Atom #  9
  -3.52114   0.42921   0.00000   0.00000   0.00000   0.00000   0.00000   0.00000   0.00000   0.00000  -0.00009   0.00000 ...
   0.42921   0.00268   0.00000   0.00000   0.00000   0.00000   0.00000   0.00000   0.00000   0.00000   0.00001   0.00000 ...
   0.00000   0.00000  -1.46007   0.00000   0.00000   0.12421   0.00000   0.00000   0.00000   0.00000   0.00000   0.00000 ...
   0.00000   0.00000   0.00000  -1.46067   0.00000   0.00000   0.12432   0.00000   0.00000   0.00000   0.00000   0.00000 ...
   0.00000   0.00000   0.00000   0.00000  -1.46067   0.00000   0.00000   0.12432   0.00000   0.00000   0.00000   0.00000 ...
   0.00000   0.00000   0.12421   0.00000   0.00000   0.01326   0.00000   0.00000   0.00000   0.00000   0.00000   0.00000 ...
   0.00000   0.00000   0.00000   0.12432   0.00000   0.00000   0.01324   0.00000   0.00000   0.00000   0.00000   0.00000 ...
   0.00000   0.00000   0.00000   0.00000   0.12432   0.00000   0.00000   0.01324   0.00000   0.00000   0.00000   0.00000 ...
   0.00000   0.00000   0.00000   0.00000   0.00000   0.00000   0.00000   0.00000  -0.39482   0.00000   0.00000   0.00000 ...
   0.00000   0.00000   0.00000   0.00000   0.00000   0.00000   0.00000   0.00000   0.00000  -0.39482   0.00000   0.00000 ...
  -0.00009   0.00001   0.00000   0.00000   0.00000   0.00000   0.00000   0.00000   0.00000   0.00000  -0.39422   0.00000 ...
   0.00000   0.00000   0.00000   0.00000   0.00000   0.00000   0.00000   0.00000   0.00000   0.00000   0.00000  -0.39493 ...
   ...  only 12  components have been written...


 Augmentation waves occupancies Rhoij:
 Atom #  1
   1.99797  -0.01407   0.00000   0.00000   0.00000   0.00000   0.00000   0.00000   0.00000   0.00000   0.00064   0.00000 ...
  -0.01407   0.18943   0.00000   0.00000   0.00000   0.00000   0.00000   0.00000   0.00000   0.00000  -0.01083   0.00000 ...
   0.00000   0.00000   2.00813   0.00000   0.00000  -0.00517   0.00000   0.00000   0.00000   0.00000   0.00000  -0.00137 ...
   0.00000   0.00000   0.00000   2.00698   0.00000   0.00000  -0.00490   0.00000  -0.00160   0.00000   0.00000   0.00000 ...
   0.00000   0.00000   0.00000   0.00000   2.00698   0.00000   0.00000  -0.00490   0.00000  -0.00160   0.00000   0.00000 ...
   0.00000   0.00000  -0.00517   0.00000   0.00000   0.00016   0.00000   0.00000   0.00000   0.00000   0.00000   0.00005 ...
   0.00000   0.00000   0.00000  -0.00490   0.00000   0.00000   0.00013   0.00000   0.00006   0.00000   0.00000   0.00000 ...
   0.00000   0.00000   0.00000   0.00000  -0.00490   0.00000   0.00000   0.00013   0.00000   0.00006   0.00000   0.00000 ...
   0.00000   0.00000   0.00000  -0.00160   0.00000   0.00000   0.00006   0.00000   0.08022   0.00000   0.00000   0.00000 ...
   0.00000   0.00000   0.00000   0.00000  -0.00160   0.00000   0.00000   0.00006   0.00000   0.08022   0.00000   0.00000 ...
   0.00064  -0.01083   0.00000   0.00000   0.00000   0.00000   0.00000   0.00000   0.00000   0.00000   0.05011   0.00000 ...
   0.00000   0.00000  -0.00137   0.00000   0.00000   0.00005   0.00000   0.00000   0.00000   0.00000   0.00000   0.03574 ...
   ...  only 12  components have been written...
 Atom #  9
   1.99797  -0.02022   0.00000   0.00000   0.00000   0.00000   0.00000   0.00000   0.00000   0.00000  -0.00038   0.00000 ...
  -0.02022   1.01448   0.00000   0.00000   0.00000   0.00000   0.00000   0.00000   0.00000   0.00000  -0.02440   0.00000 ...
   0.00000   0.00000   1.99269   0.00000   0.00000  -0.06323   0.00000   0.00000   0.00000   0.00000   0.00000   0.00000 ...
   0.00000   0.00000   0.00000   1.99302   0.00000   0.00000  -0.05789   0.00000   0.00000   0.00000   0.00000   0.00000 ...
   0.00000   0.00000   0.00000   0.00000   1.99302   0.00000   0.00000  -0.05789   0.00000   0.00000   0.00000   0.00000 ...
   0.00000   0.00000  -0.06323   0.00000   0.00000   1.40280   0.00000   0.00000   0.00000   0.00000   0.00000   0.00000 ...
   0.00000   0.00000   0.00000  -0.05789   0.00000   0.00000   1.19909   0.00000   0.00000   0.00000   0.00000   0.00000 ...
   0.00000   0.00000   0.00000   0.00000  -0.05789   0.00000   0.00000   1.19909   0.00000   0.00000   0.00000   0.00000 ...
   0.00000   0.00000   0.00000   0.00000   0.00000   0.00000   0.00000   0.00000   0.49823   0.00000   0.00000   0.00000 ...
   0.00000   0.00000   0.00000   0.00000   0.00000   0.00000   0.00000   0.00000   0.00000   0.49823   0.00000   0.00000 ...
  -0.00038  -0.02440   0.00000   0.00000   0.00000   0.00000   0.00000   0.00000   0.00000   0.00000   1.41097   0.00000 ...
   0.00000   0.00000   0.00000   0.00000   0.00000   0.00000   0.00000   0.00000   0.00000   0.00000   0.00000   0.45835 ...
   ...  only 12  components have been written...



---OUTPUT-----------------------------------------------------------------------

 Cartesian coordinates (xcart) [bohr]
  5.31283149023540E+00  5.07973726295144E+00  5.31283149023540E+00
  1.59384944707062E+01  1.52392117888543E+01  1.59384944707062E+01
  1.06256629804450E+01  1.54328951771797E+01  1.06256629804450E+01
  1.06256629804462E+01  1.01594745259029E+01  5.36484019139319E+00
  1.06256629804955E+01  1.01594745259029E+01  1.58864857695484E+01
  1.06256629804966E+01  4.88605387462608E+00  1.06256629804966E+01
  1.58864857695484E+01  1.01594745259029E+01  1.06256629804955E+01
  5.36484019139319E+00  1.01594745259029E+01  1.06256629804462E+01
  1.36840533956292E-20  1.84948875011785E-21 -1.42487848053696E-20
 Reduced coordinates (xred)
  2.50000000000000E-01  2.50000000000000E-01  2.50000000000000E-01
  7.50000000000000E-01  7.50000000000000E-01  7.50000000000000E-01
  7.59532155813351E-01  2.40467844186649E-01  7.59532155813351E-01
  2.52447315581784E-01  2.52447315581784E-01  7.47552684418216E-01
  7.47552684418216E-01  7.47552684418216E-01  2.52447315581784E-01
  2.40467844186649E-01  7.59532155813352E-01  2.40467844186649E-01
  2.52447315581784E-01  7.47552684418216E-01  7.47552684418216E-01
  7.47552684418216E-01  2.52447315581784E-01  2.52447315581784E-01
 -1.22338163231486E-21 -1.17596792430288E-22  1.40542734200214E-21
 Cartesian forces (fcart) [Ha/bohr]; max,rms= 4.51547E-04 1.86072E-04 (free atoms)
  1.20470021951361E-20  6.02350824194852E-21 -1.09995221166670E-20
  1.20463794156529E-20  6.02318256344597E-21 -1.09995221166670E-20
  1.60178050151215E-20 -4.51546685242425E-04 -1.49706363263940E-20
 -1.70006311440156E-15  1.77811370565301E-15  3.62982749230136E-04
  1.70004639330696E-15 -1.77805897162952E-15 -3.62982749230136E-04
 -3.27388996203867E-20  4.51546685242425E-04  3.37860683091141E-20
 -3.62982749230136E-04 -1.77805897162952E-15  1.70002334709403E-15
  3.62982749230136E-04  1.77807101832032E-15 -1.70004534613827E-15
  1.20466908053945E-20  6.02334540269725E-21 -1.09995221166670E-20
 Reduced forces (fred)
  5.56815364167495E-20 -1.11301702926217E-20 -1.89203063790551E-19
  5.56848451391997E-20 -1.11235528477213E-20 -1.89193137623200E-19
  4.58747704597630E-03 -1.11268615701715E-20  4.58747704597630E-03
 -3.85693236104417E-03 -3.85693236104417E-03 -4.03197664545682E-19
  3.85693236104417E-03  3.85693236104417E-03  2.48014631334357E-20
 -4.58747704597630E-03 -1.11268615701715E-20 -4.58747704597630E-03
  2.69682754619217E-19  3.85693236104417E-03  3.85693236104417E-03
 -1.58316373059633E-19 -3.85693236104417E-03 -3.85693236104417E-03
  5.56831907779746E-20 -1.11268615701715E-20 -1.89198100706876E-19
 Scale of Primitive Cell (acell) [bohr]
  1.47010080067987E+01  1.50269566962579E+01  1.47010080067987E+01
 Real space primitive translations (rprimd) [bohr]
  0.00000000000000E+00  1.01594745259029E+01  1.06256629804210E+01
  1.06256629805206E+01  0.00000000000000E+00  1.06256629805206E+01
  1.06256629804210E+01  1.01594745259029E+01  0.00000000000000E+00
 Unitary Cell Volume (ucvol) [Bohr^3]=  2.29410512689375E+03
 Angles (23,13,12)= [degrees]
  5.92638099064195E+01  6.14723801871611E+01  5.92638099064195E+01
 Lengths [Bohr]
  1.47010080067987E+01  1.50269566962579E+01  1.47010080067987E+01
 Stress tensor in cartesian coordinates (strten) [Ha/bohr^3]
 -8.54785009377652E-05  3.90611723279171E-14 -7.46953502359914E-14
  3.90611723279171E-14 -8.56879002652834E-05  3.90604391619800E-14
 -7.46953502359914E-14  3.90604391619800E-14 -8.54785009377634E-05
 Total energy (etotal) [Ha]= -1.65251584646227E+02

 Difference of energy with previous step (new-old):
           Absolute (Ha)=-1.12604E-06
           Relative     =-6.81407E-09

--- Iteration: (   3/1000) Internal Cycle: (1/1)
--------------------------------------------------------------------------------

---SELF-CONSISTENT-FIELD CONVERGENCE--------------------------------------------

--- !BeginCycle
iteration_state: {dtset: 1, itime: 3, icycle: 1, }
solver: {iscf: 17, nstep: 2500, nline: 4, wfoptalg: 10, }
tolerances: {toldff: 1.00E-08, }
...

     iter   Etot(hartree)      deltaE(h)  residm     nres2    diffor    maxfor
 ETOT  1  -165.25169444818    -1.653E+02 1.460E-05 1.683E-02 1.272E-02 1.317E-02
 ETOT  2  -165.25159699353     9.745E-05 2.590E-05 1.927E-03 1.347E-02 3.037E-04
 ETOT  3  -165.25158873139     8.262E-06 3.043E-05 1.399E-04 1.594E-03 1.290E-03
 ETOT  4  -165.25158840151     3.299E-07 1.914E-05 2.853E-05 1.213E-03 1.079E-04
 ETOT  5  -165.25158848356    -8.206E-08 2.966E-05 1.207E-05 3.334E-05 1.390E-04
 ETOT  6  -165.25158851187    -2.831E-08 1.825E-05 1.199E-06 1.141E-04 4.485E-05
 ETOT  7  -165.25158851640    -4.524E-09 2.853E-05 6.009E-07 9.509E-06 3.534E-05
 ETOT  8  -165.25158852349    -7.088E-09 1.746E-05 6.342E-08 1.763E-05 1.771E-05
 ETOT  9  -165.25158852363    -1.401E-10 2.721E-05 3.665E-08 7.684E-07 1.825E-05
 ETOT 10  -165.25158852335     2.793E-10 1.656E-05 7.164E-09 2.761E-06 2.101E-05
 ETOT 11  -165.25158852319     1.545E-10 2.569E-05 2.294E-09 6.424E-07 2.037E-05
 ETOT 12  -165.25158852287     3.225E-10 1.552E-05 1.894E-10 2.277E-07 2.014E-05
 ETOT 13  -165.25158852281     6.284E-11 2.398E-05 1.370E-10 9.252E-08 2.011E-05
 ETOT 14  -165.25158852276     4.724E-11 1.438E-05 1.118E-11 9.875E-08 2.021E-05
 ETOT 15  -165.25158852275     7.702E-12 2.217E-05 1.521E-12 5.080E-08 2.026E-05
 ETOT 16  -165.25158852274     9.379E-12 1.320E-05 8.045E-13 2.564E-09 2.025E-05
 ETOT 17  -165.25158852274     2.444E-12 2.031E-05 6.612E-14 3.855E-09 2.025E-05

 At SCF step   17, forces are converged : 
  for the second time, max diff in force=  3.855E-09 < toldff=  1.000E-08

 Cartesian components of stress tensor (hartree/bohr^3)
  sigma(1 1)= -8.43341748E-05  sigma(3 2)=  3.90629002E-14
  sigma(2 2)= -8.40779445E-05  sigma(3 1)= -7.47013924E-14
  sigma(3 3)= -8.43341748E-05  sigma(2 1)=  3.90626731E-14


--- !ResultsGS
iteration_state: {dtset: 1, itime: 3, icycle: 1, }
comment   : Summary of ground state results
lattice_vectors:
- [  0.0000000,  10.1598318,  10.6254762, ]
- [ 10.6254762,   0.0000000,  10.6254762, ]
- [ 10.6254762,  10.1598318,   0.0000000, ]
lattice_lengths: [  14.70112,   15.02669,   14.70112, ]
lattice_angles: [ 59.265,  61.471,  59.265, ] # degrees, (23, 13, 12)
lattice_volume:   2.2941051E+03
convergence: {deltae:  2.444E-12, res2:  6.612E-14, residm:  2.031E-05, diffor:  3.855E-09, }
etotal    :  -1.65251589E+02
entropy   :   0.00000000E+00
fermie    :  -9.62459428E-02
cartesian_stress_tensor: # hartree/bohr^3
- [ -8.43341748E-05,   3.90626731E-14,  -7.47013924E-14, ]
- [  3.90626731E-14,  -8.40779445E-05,   3.90629002E-14, ]
- [ -7.47013924E-14,   3.90629002E-14,  -8.43341748E-05, ]
pressure_GPa:   2.4787E+00
xred      :
- [  2.5000E-01,   2.5000E-01,   2.5000E-01, Cs]
- [  7.5000E-01,   7.5000E-01,   7.5000E-01, Cs]
- [  7.5935E-01,   2.4065E-01,   7.5935E-01, Br]
- [  2.5259E-01,   2.5259E-01,   7.4741E-01,  I]
- [  7.4741E-01,   7.4741E-01,   2.5259E-01,  I]
- [  2.4065E-01,   7.5935E-01,   2.4065E-01, Br]
- [  2.5259E-01,   7.4741E-01,   7.4741E-01,  I]
- [  7.4741E-01,   2.5259E-01,   2.5259E-01,  I]
- [  0.0000E+00,   0.0000E+00,   0.0000E+00, Hf]
cartesian_forces: # hartree/bohr
- [  3.73967926E-22,  -1.86275542E-22,  -2.54785792E-22, ]
- [  3.78950249E-22,  -1.90183546E-22,  -2.59768115E-22, ]
- [ -6.96180118E-22,   2.02527046E-05,   8.15362252E-22, ]
- [ -8.01317404E-17,   8.38041537E-17,   1.71086169E-05, ]
- [  8.01341874E-17,  -8.38045302E-17,  -1.71086169E-05, ]
- [ -2.44967601E-22,  -2.02527046E-05,   3.64149735E-22, ]
- [ -1.71086169E-05,  -8.38015022E-17,   8.01288901E-17, ]
- [  1.71086169E-05,   8.38028198E-17,  -8.01310987E-17, ]
- [  3.76459088E-22,  -1.88229544E-22,  -2.57276954E-22, ]
force_length_stats: {min:   4.89353029E-22, max:   2.02527046E-05, mean:   1.21044307E-05, }
...

 Integrated electronic density in atomic spheres:
 ------------------------------------------------
 Atom  Sphere_radius  Integrated_density
    1        2.20660          5.36999066
    2        2.20660          5.36999066
    3        2.20000          4.94178093
    4        2.30022          4.03234729
    5        2.30022          4.03234729
    6        2.20000          4.94178093
    7        2.30022          4.03234729
    8        2.30022          4.03234729
    9        2.41000          9.30163424

 PAW TEST:
 ==== Compensation charge inside spheres ============
 The following values must be close to each other ...
 Compensation charge over spherical meshes =     -0.490372098567625
 Compensation charge over fine fft grid    =     -0.490363877068884

 ==== Results concerning PAW augmentation regions ====

 Total pseudopotential strength Dij (hartree):
 Atom #  1
   0.44084  -0.14597   0.00000   0.00000   0.00000   0.00000   0.00000   0.00000   0.00000   0.00000   0.00000   0.00000 ...
  -0.14597   0.04399   0.00000   0.00000   0.00000   0.00000   0.00000   0.00000   0.00000   0.00000  -0.00000   0.00000 ...
   0.00000   0.00000  -0.09363   0.00000   0.00000  -0.16655   0.00000   0.00000   0.00000   0.00000   0.00000  -0.00000 ...
   0.00000   0.00000   0.00000  -0.09363   0.00000   0.00000  -0.16655   0.00000  -0.00000   0.00000   0.00000   0.00000 ...
   0.00000   0.00000   0.00000   0.00000  -0.09363   0.00000   0.00000  -0.16655   0.00000  -0.00000   0.00000   0.00000 ...
   0.00000   0.00000  -0.16655   0.00000   0.00000   0.40422   0.00000   0.00000   0.00000   0.00000   0.00000   0.00000 ...
   0.00000   0.00000   0.00000  -0.16655   0.00000   0.00000   0.40422   0.00000   0.00000   0.00000   0.00000   0.00000 ...
   0.00000   0.00000   0.00000   0.00000  -0.16655   0.00000   0.00000   0.40422   0.00000   0.00000   0.00000   0.00000 ...
   0.00000   0.00000   0.00000  -0.00000   0.00000   0.00000   0.00000   0.00000   0.00522   0.00000   0.00000   0.00000 ...
   0.00000   0.00000   0.00000   0.00000  -0.00000   0.00000   0.00000   0.00000   0.00000   0.00522   0.00000   0.00000 ...
   0.00000  -0.00000   0.00000   0.00000   0.00000   0.00000   0.00000   0.00000   0.00000   0.00000   0.00522   0.00000 ...
   0.00000   0.00000  -0.00000   0.00000   0.00000   0.00000   0.00000   0.00000   0.00000   0.00000   0.00000   0.00522 ...
   ...  only 12  components have been written...
 Atom #  9
  -3.52127   0.42925   0.00000   0.00000   0.00000   0.00000   0.00000   0.00000   0.00000   0.00000  -0.00009   0.00000 ...
   0.42925   0.00267   0.00000   0.00000   0.00000   0.00000   0.00000   0.00000   0.00000   0.00000   0.00001   0.00000 ...
   0.00000   0.00000  -1.46028   0.00000   0.00000   0.12426   0.00000   0.00000   0.00000   0.00000   0.00000   0.00000 ...
   0.00000   0.00000   0.00000  -1.46088   0.00000   0.00000   0.12436   0.00000   0.00000   0.00000   0.00000   0.00000 ...
   0.00000   0.00000   0.00000   0.00000  -1.46088   0.00000   0.00000   0.12436   0.00000   0.00000   0.00000   0.00000 ...
   0.00000   0.00000   0.12426   0.00000   0.00000   0.01325   0.00000   0.00000   0.00000   0.00000   0.00000   0.00000 ...
   0.00000   0.00000   0.00000   0.12436   0.00000   0.00000   0.01324   0.00000   0.00000   0.00000   0.00000   0.00000 ...
   0.00000   0.00000   0.00000   0.00000   0.12436   0.00000   0.00000   0.01324   0.00000   0.00000   0.00000   0.00000 ...
   0.00000   0.00000   0.00000   0.00000   0.00000   0.00000   0.00000   0.00000  -0.39486   0.00000   0.00000   0.00000 ...
[...]
                       8.3311116125E+00  5.3248040541E+00  5.5821794090E+00
                       2.8332472054E+00  5.3248040541E+00  5.5821794090E+00
                       7.5184642659E-22 -9.5597284340E-22 -2.4902752800E-21
           xangst10    2.7883157940E+00  2.6596343149E+00  2.7883157940E+00
                       8.3649473820E+00  7.9789029446E+00  8.3649473820E+00
                       5.5766315880E+00  8.0552152392E+00  5.5766315880E+00
                       5.5766315880E+00  5.3192686297E+00  2.8322358377E+00
                       5.5766315880E+00  5.3192686297E+00  8.3210273383E+00
                       5.5766315880E+00  2.5833220203E+00  5.5766315880E+00
                       8.3210273383E+00  5.3192686297E+00  5.5766315880E+00
                       2.8322358377E+00  5.3192686297E+00  5.5766315880E+00
                       1.8201961974E-21 -5.3343350844E-21 -1.2906164215E-21
            xcart1     5.3128688104E+00  5.0796658982E+00  5.3128688104E+00
                       1.5938606431E+01  1.5238997695E+01  1.5938606431E+01
                       1.0625737621E+01  1.5429029842E+01  1.0625737621E+01
                       1.0625737621E+01  1.0159331796E+01  5.3681208370E+00
                       1.0625737621E+01  1.0159331796E+01  1.5883354404E+01
                       1.0625737621E+01  4.8896337514E+00  1.0625737621E+01
                       1.5883354404E+01  1.0159331796E+01  1.0625737621E+01
                       5.3681208370E+00  1.0159331796E+01  1.0625737621E+01
                       0.0000000000E+00  0.0000000000E+00  0.0000000000E+00
            xcart2     5.3083295740E+00  5.0730919565E+00  5.3083295740E+00
                       1.5924988722E+01  1.5219275870E+01  1.5924988722E+01
                       1.0616659148E+01  1.5403694773E+01  1.0616659148E+01
                       1.0616659148E+01  1.0146183913E+01  5.3664632338E+00
                       1.0616659148E+01  1.0146183913E+01  1.5866855062E+01
                       1.0616659148E+01  4.8886730530E+00  1.0616659148E+01
                       1.5866855062E+01  1.0146183913E+01  1.0616659148E+01
                       5.3664632338E+00  1.0146183913E+01  1.0616659148E+01
                       2.7145782054E-21  1.2842565434E-21  3.5226352629E-23
            xcart3     5.3036612228E+00  5.0667653582E+00  5.3036612228E+00
                       1.5910983668E+01  1.5200296075E+01  1.5910983668E+01
                       1.0607322446E+01  1.5379267295E+01  1.0607322446E+01
                       1.0607322446E+01  1.0133530716E+01  5.3647945194E+00
                       1.0607322446E+01  1.0133530716E+01  1.5849850372E+01
                       1.0607322446E+01  4.8877941384E+00  1.0607322446E+01
                       1.5849850372E+01  1.0133530716E+01  1.0607322446E+01
                       5.3647945194E+00  1.0133530716E+01  1.0607322446E+01
                       0.0000000000E+00  0.0000000000E+00  0.0000000000E+00
            xcart4     5.2987954041E+00  5.0608163948E+00  5.2987954041E+00
                       1.5896386212E+01  1.5182449184E+01  1.5896386212E+01
                       1.0597590808E+01  1.5356316427E+01  1.0597590808E+01
                       1.0597590808E+01  1.0121632790E+01  5.3630180907E+00
                       1.0597590808E+01  1.0121632790E+01  1.5832163526E+01
                       1.0597590808E+01  4.8869491519E+00  1.0597590808E+01
                       1.5832163526E+01  1.0121632790E+01  1.0597590808E+01
                       5.3630180907E+00  1.0121632790E+01  1.0597590808E+01
                       4.0595864698E-22 -4.1769454633E-21  3.9787561415E-22
            xcart5     5.2942772343E+00  5.0542038203E+00  5.2942772343E+00
                       1.5882831703E+01  1.5162611461E+01  1.5882831703E+01
                       1.0588554469E+01  1.5330762782E+01  1.0588554469E+01
                       1.0588554469E+01  1.0108407641E+01  5.3613819058E+00
                       1.0588554469E+01  1.0108407641E+01  1.5815727032E+01
                       1.0588554469E+01  4.8860524994E+00  1.0588554469E+01
                       1.5815727032E+01  1.0108407641E+01  1.0588554469E+01
                       5.3613819058E+00  1.0108407641E+01  1.0588554469E+01
                      -2.0846126863E-21  4.6671129221E-21  3.3975297715E-22
            xcart6     5.2892036957E+00  5.0486519975E+00  5.2892036957E+00
                       1.5867611087E+01  1.5145955993E+01  1.5867611087E+01
                       1.0578407391E+01  1.5309288590E+01  1.0578407391E+01
                       1.0578407391E+01  1.0097303995E+01  5.3595408531E+00
                       1.0578407391E+01  1.0097303995E+01  1.5797273930E+01
                       1.0578407391E+01  4.8853194003E+00  1.0578407391E+01
                       1.5797273930E+01  1.0097303995E+01  1.0578407391E+01
                       5.3595408531E+00  1.0097303995E+01  1.0578407391E+01
                      -2.1526017482E-21 -1.5517368311E-21  1.6422969151E-21
            xcart7     5.2845225835E+00  5.0423512719E+00  5.2845225835E+00
                       1.5853567750E+01  1.5127053816E+01  1.5853567750E+01
                       1.0569045167E+01  1.5284906756E+01  1.0569045167E+01
                       1.0569045167E+01  1.0084702544E+01  5.3577743254E+00
                       1.0569045167E+01  1.0084702544E+01  1.5780316008E+01
                       1.0569045167E+01  4.8844983315E+00  1.0569045167E+01
                       1.5780316008E+01  1.0084702544E+01  1.0569045167E+01
                       5.3577743254E+00  1.0084702544E+01  1.0569045167E+01
                       2.3992518178E-21 -1.1559874401E-21 -4.1815438968E-22
            xcart8     5.2792110228E+00  5.0372538829E+00  5.2792110228E+00
                       1.5837633068E+01  1.5111761649E+01  1.5837633068E+01
                       1.0558422046E+01  1.5265424991E+01  1.0558422046E+01
                       1.0558422046E+01  1.0074507766E+01  5.3558673338E+00
                       1.0558422046E+01  1.0074507766E+01  1.5760976758E+01
                       1.0558422046E+01  4.8835905401E+00  1.0558422046E+01
                       1.5760976758E+01  1.0074507766E+01  1.0558422046E+01
                       5.3558673338E+00  1.0074507766E+01  1.0558422046E+01
                       1.1810539763E-20 -1.2698136544E-21 -1.1556504209E-20
            xcart9     5.2743951538E+00  5.0312106867E+00  5.2743951538E+00
                       1.5823185461E+01  1.5093632060E+01  1.5823185461E+01
                       1.0548790308E+01  1.5242122730E+01  1.0548790308E+01
                       1.0548790308E+01  1.0062421373E+01  5.3540612850E+00
                       1.0548790308E+01  1.0062421373E+01  1.5743519330E+01
                       1.0548790308E+01  4.8827200166E+00  1.0548790308E+01
                       1.5743519330E+01  1.0062421373E+01  1.0548790308E+01
                       5.3540612850E+00  1.0062421373E+01  1.0548790308E+01
                       1.4207838402E-21 -1.8065268645E-21 -4.7059382747E-21
            xcart10    5.2691532227E+00  5.0259804687E+00  5.2691532227E+00
                       1.5807459668E+01  1.5077941406E+01  1.5807459668E+01
                       1.0538306445E+01  1.5222150744E+01  1.0538306445E+01
                       1.0538306445E+01  1.0051960937E+01  5.3521500770E+00
                       1.0538306445E+01  1.0051960937E+01  1.5724462814E+01
                       1.0538306445E+01  4.8817711314E+00  1.0538306445E+01
                       1.5724462814E+01  1.0051960937E+01  1.0538306445E+01
                       5.3521500770E+00  1.0051960937E+01  1.0538306445E+01
                       3.4396723212E-21 -1.0080432411E-20 -2.4389115793E-21
             xred1     2.5000000000E-01  2.5000000000E-01  2.5000000000E-01
                       7.5000000000E-01  7.5000000000E-01  7.5000000000E-01
                       7.5935259083E-01  2.4064740917E-01  7.5935259083E-01
                       2.5259991488E-01  2.5259991488E-01  7.4740008512E-01
                       7.4740008512E-01  7.4740008512E-01  2.5259991488E-01
                       2.4064740917E-01  7.5935259083E-01  2.4064740917E-01
                       2.5259991488E-01  7.4740008512E-01  7.4740008512E-01
                       7.4740008512E-01  2.5259991488E-01  2.5259991488E-01
                       0.0000000000E+00  0.0000000000E+00  0.0000000000E+00
             xred2     2.5000000000E-01  2.5000000000E-01  2.5000000000E-01
                       7.5000000000E-01  7.5000000000E-01  7.5000000000E-01
                       7.5908809189E-01  2.4091190811E-01  7.5908809189E-01
                       2.5273785091E-01  2.5273785091E-01  7.4726214909E-01
                       7.4726214909E-01  7.4726214909E-01  2.5273785091E-01
                       2.4091190811E-01  7.5908809189E-01  2.4091190811E-01
                       2.5273785091E-01  7.4726214909E-01  7.4726214909E-01
                       7.4726214909E-01  2.5273785091E-01  2.5273785091E-01
                      -6.2898541537E-23  6.6216567682E-23  1.8947386823E-22
             xred3     2.5000000000E-01  2.5000000000E-01  2.5000000000E-01
                       7.5000000000E-01  7.5000000000E-01  7.5000000000E-01
                       7.5883064476E-01  2.4116935524E-01  7.5883064476E-01
                       2.5288165543E-01  2.5288165543E-01  7.4711834457E-01
                       7.4711834457E-01  7.4711834457E-01  2.5288165543E-01
                       2.4116935524E-01  7.5883064476E-01  2.4116935524E-01
                       2.5288165543E-01  7.4711834457E-01  7.4711834457E-01
                       7.4711834457E-01  2.5288165543E-01  2.5288165543E-01
                       0.0000000000E+00  0.0000000000E+00  0.0000000000E+00
             xred4     2.5000000000E-01  2.5000000000E-01  2.5000000000E-01
                       7.5000000000E-01  7.5000000000E-01  7.5000000000E-01
                       7.5858889304E-01  2.4141110696E-01  7.5858889304E-01
                       2.5303006069E-01  2.5303006069E-01  7.4696993931E-01
                       7.4696993931E-01  7.4696993931E-01  2.5303006069E-01
                       2.4141110696E-01  7.5858889304E-01  2.4141110696E-01
                       2.5303006069E-01  7.4696993931E-01  7.4696993931E-01
                       7.4696993931E-01  2.5303006069E-01  2.5303006069E-01
                      -2.0671889401E-22  2.4426286238E-22 -2.0595617039E-22
             xred5     2.5000000000E-01  2.5000000000E-01  2.5000000000E-01
                       7.5000000000E-01  7.5000000000E-01  7.5000000000E-01
                       7.5831739908E-01  2.4168260092E-01  7.5831739908E-01
                       2.5316873619E-01  2.5316873619E-01  7.4683126381E-01
                       7.4683126381E-01  7.4683126381E-01  2.5316873619E-01
                       2.4168260092E-01  7.5831739908E-01  2.4168260092E-01
                       2.5316873619E-01  7.4683126381E-01  7.4683126381E-01
                       7.4683126381E-01  2.5316873619E-01  2.5316873619E-01
                       3.4533350613E-22 -3.1324669219E-22  1.1637253978E-22
             xred6     2.5000000000E-01  2.5000000000E-01  2.5000000000E-01
                       7.5000000000E-01  7.5000000000E-01  7.5000000000E-01
                       7.5808793106E-01  2.4191206894E-01  7.5808793106E-01
                       2.5332456271E-01  2.5332456271E-01  7.4667543729E-01
                       7.4667543729E-01  7.4667543729E-01  2.5332456271E-01
                       2.4191206894E-01  7.5808793106E-01  2.4191206894E-01
                       2.5332456271E-01  7.4667543729E-01  7.4667543729E-01
                       7.4667543729E-01  2.5332456271E-01  2.5332456271E-01
                       1.0253087184E-22  5.2719049475E-23 -2.5620920338E-22
             xred7     2.5000000000E-01  2.5000000000E-01  2.5000000000E-01
                       7.5000000000E-01  7.5000000000E-01  7.5000000000E-01
                       7.5782635580E-01  2.4217364420E-01  7.5782635580E-01
                       2.5346539071E-01  2.5346539071E-01  7.4653460929E-01
                       7.4653460929E-01  7.4653460929E-01  2.5346539071E-01
                       2.4217364420E-01  7.5782635580E-01  2.4217364420E-01
                       2.5346539071E-01  7.4653460929E-01  7.4653460929E-01
                       7.4653460929E-01  2.5346539071E-01  2.5346539071E-01
                      -1.9059965785E-22  1.5103559288E-22  7.5971840612E-23
             xred8     2.5000000000E-01  2.5000000000E-01  2.5000000000E-01
                       7.5000000000E-01  7.5000000000E-01  7.5000000000E-01
                       7.5762634495E-01  2.4237365505E-01  7.5762634495E-01
                       2.5363010262E-01  2.5363010262E-01  7.4636989738E-01
                       7.4636989738E-01  7.4636989738E-01  2.5363010262E-01
                       2.4237365505E-01  7.5762634495E-01  2.4237365505E-01
                       2.5363010262E-01  7.4636989738E-01  7.4636989738E-01
                       7.4636989738E-01  2.5363010262E-01  2.5363010262E-01
                      -1.1695806043E-21  7.5051122569E-23  1.0435383515E-21
             xred9     2.5000000000E-01  2.5000000000E-01  2.5000000000E-01
                       7.5000000000E-01  7.5000000000E-01  7.5000000000E-01
                       7.5737847605E-01  2.4262152395E-01  7.5737847605E-01
                       2.5377607900E-01  2.5377607900E-01  7.4622392100E-01
                       7.4622392100E-01  7.4622392100E-01  2.5377607900E-01
                       2.4262152395E-01  7.5737847605E-01  2.4262152395E-01
                       2.5377607900E-01  7.4622392100E-01  7.4622392100E-01
                       7.4622392100E-01  2.5377607900E-01  2.5377607900E-01
                      -3.8016528645E-22 -6.5946365920E-23  2.0063326355E-22
             xred10    2.5000000000E-01  2.5000000000E-01  2.5000000000E-01
                       7.5000000000E-01  7.5000000000E-01  7.5000000000E-01
                       7.5717319428E-01  2.4282680572E-01  7.5717319428E-01
                       2.5393786491E-01  2.5393786491E-01  7.4606213509E-01
                       7.4606213509E-01  7.4606213509E-01  2.5393786491E-01
                       2.4282680572E-01  7.5717319428E-01  2.4282680572E-01
                       2.5393786491E-01  7.4606213509E-01  7.4606213509E-01
                       7.4606213509E-01  2.5393786491E-01  2.5393786491E-01
                      -7.8033123461E-22  5.4889826272E-22 -2.2250119512E-22
            znucl       55.00000   53.00000   72.00000   35.00000

================================================================================


- Timing analysis has been suppressed with timopt=0



================================================================================

 Suggested references for the acknowledgment of ABINIT usage.

 The users of ABINIT have little formal obligations with respect to the ABINIT group
 (those specified in the GNU General Public License, http://www.gnu.org/copyleft/gpl.txt).
 However, it is common practice in the scientific literature,
 to acknowledge the efforts of people that have made the research possible.
 In this spirit, please find below suggested citations of work written by ABINIT developers,
 corresponding to implementations inside of ABINIT that you have used in the present run.
 Note also that it will be of great value to readers of publications presenting these results,
 to read papers enabling them to understand the theoretical formalism and details
 of the ABINIT implementation.
 For information on why they are suggested, see also https://docs.abinit.org/theory/acknowledgments.
-
- [1] Implementation of the Projector Augmented-Wave Method in the ABINIT code.
- M. Torrent, F. Jollet, F. Bottin, G. Zerah, and X. Gonze Comput. Mat. Science 42, 337, (2008).
- Comment: PAW calculations. Strong suggestion to cite this paper.
- DOI and bibtex: see https://docs.abinit.org/theory/bibliography/#torrent2008
-
- [2] Libxc: A library of exchange and correlation functionals for density functional theory.
- M.A.L. Marques, M.J.T. Oliveira, T. Burnus, Computer Physics Communications 183, 2227 (2012).
- Comment: to be cited when LibXC is used (negative value of ixc)
- Strong suggestion to cite this paper.
- DOI and bibtex: see https://docs.abinit.org/theory/bibliography/#marques2012
-
- [3] The Abinit project: Impact, environment and recent developments.
- Computer Phys. Comm. 248, 107042 (2020).
- X.Gonze, B. Amadon, G. Antonius, F.Arnardi, L.Baguet, J.-M.Beuken,
- J.Bieder, F.Bottin, J.Bouchet, E.Bousquet, N.Brouwer, F.Bruneval,
- G.Brunin, T.Cavignac, J.-B. Charraud, Wei Chen, M.Cote, S.Cottenier,
- J.Denier, G.Geneste, Ph.Ghosez, M.Giantomassi, Y.Gillet, O.Gingras,
- D.R.Hamann, G.Hautier, Xu He, N.Helbig, N.Holzwarth, Y.Jia, F.Jollet,
- W.Lafargue-Dit-Hauret, K.Lejaeghere, M.A.L.Marques, A.Martin, C.Martins,
- H.P.C. Miranda, F.Naccarato, K. Persson, G.Petretto, V.Planes, Y.Pouillon,
- S.Prokhorenko, F.Ricci, G.-M.Rignanese, A.H.Romero, M.M.Schmitt, M.Torrent,
- M.J.van Setten, B.Van Troeye, M.J.Verstraete, G.Zerah and J.W.Zwanzig
- Comment: the fifth generic paper describing the ABINIT project.
- Note that a version of this paper, that is not formatted for Computer Phys. Comm. 
- is available at https://www.abinit.org/sites/default/files/ABINIT20.pdf .
- The licence allows the authors to put it on the Web.
- DOI and bibtex: see https://docs.abinit.org/theory/bibliography/#gonze2020
-
- [4] ABINIT: Overview, and focus on selected capabilities
- J. Chem. Phys. 152, 124102 (2020).
- A. Romero, D.C. Allan, B. Amadon, G. Antonius, T. Applencourt, L.Baguet,
- J.Bieder, F.Bottin, J.Bouchet, E.Bousquet, F.Bruneval,
- G.Brunin, D.Caliste, M.Cote,
- J.Denier, C. Dreyer, Ph.Ghosez, M.Giantomassi, Y.Gillet, O.Gingras,
- D.R.Hamann, G.Hautier, F.Jollet, G. Jomard,
- A.Martin, 
- H.P.C. Miranda, F.Naccarato, G.Petretto, N.A. Pike, V.Planes,
- S.Prokhorenko, T. Rangel, F.Ricci, G.-M.Rignanese, M.Royo, M.Stengel, M.Torrent,
- M.J.van Setten, B.Van Troeye, M.J.Verstraete, J.Wiktor, J.W.Zwanziger, and X.Gonze.
- Comment: a global overview of ABINIT, with focus on selected capabilities .
- Note that a version of this paper, that is not formatted for J. Chem. Phys 
- is available at https://www.abinit.org/sites/default/files/ABINIT20_JPC.pdf .
- The licence allows the authors to put it on the Web.
- DOI and bibtex: see https://docs.abinit.org/theory/bibliography/#romero2020
-
- [5] Recent developments in the ABINIT software package.
- Computer Phys. Comm. 205, 106 (2016).
- X.Gonze, F.Jollet, F.Abreu Araujo, D.Adams, B.Amadon, T.Applencourt,
- C.Audouze, J.-M.Beuken, J.Bieder, A.Bokhanchuk, E.Bousquet, F.Bruneval
- D.Caliste, M.Cote, F.Dahm, F.Da Pieve, M.Delaveau, M.Di Gennaro,
- B.Dorado, C.Espejo, G.Geneste, L.Genovese, A.Gerossier, M.Giantomassi,
- Y.Gillet, D.R.Hamann, L.He, G.Jomard, J.Laflamme Janssen, S.Le Roux,
- A.Levitt, A.Lherbier, F.Liu, I.Lukacevic, A.Martin, C.Martins,
- M.J.T.Oliveira, S.Ponce, Y.Pouillon, T.Rangel, G.-M.Rignanese,
- A.H.Romero, B.Rousseau, O.Rubel, A.A.Shukri, M.Stankovski, M.Torrent,
- M.J.Van Setten, B.Van Troeye, M.J.Verstraete, D.Waroquier, J.Wiktor,
- B.Xu, A.Zhou, J.W.Zwanziger.
- Comment: the fourth generic paper describing the ABINIT project.
- Note that a version of this paper, that is not formatted for Computer Phys. Comm. 
- is available at https://www.abinit.org/sites/default/files/ABINIT16.pdf .
- The licence allows the authors to put it on the Web.
- DOI and bibtex: see https://docs.abinit.org/theory/bibliography/#gonze2016
-
- Proc.   0 individual time (sec): cpu=      21163.1  wall=      21163.7

================================================================================

 Calculation completed.
.Delivered   0 WARNINGs and 108 COMMENTs to log file.
+Overall time at end (sec) : cpu=     126978.8  wall=     126982.3
