
.Version 9.2.2 of ABINIT 
.(MPI version, prepared for a x86_64_linux_gnu9.3 computer) 

.Copyright (C) 1998-2020 ABINIT group . 
 ABINIT comes with ABSOLUTELY NO WARRANTY.
 It is free software, and you are welcome to redistribute it
 under certain conditions (GNU General Public License,
 see ~abinit/COPYING or http://www.gnu.org/copyleft/gpl.txt).

 ABINIT is a project of the Universite Catholique de Louvain,
 Corning Inc. and other collaborators, see ~abinit/doc/developers/contributors.txt .
 Please read https://docs.abinit.org/theory/acknowledgments for suggested
 acknowledgments of the ABINIT effort.
 For more information, see https://www.abinit.org .

.Starting date : Tue 13 Dec 2022.
- ( at 09h40 )
  
- The starting date is more than 2 years after the initial release
- of this version of ABINIT, namely Nov 2020.
- Note that the use beyond 3 years after the release will not be supported.
- Action: please, switch to a more recent version of ABINIT.

- input  file    -> Cs2TiI6.in
- output file    -> Cs2TiI6.out
- root for input  files -> Cs2TiI6i
- root for output files -> Cs2TiI6o

- inpspheads : Reading pseudopotential header in XML form from 
-   ../../../Psps_for_tests/ATOMICDATA/Cs.GGA_PBE-JTH.xml
- inpspheads : Reading pseudopotential header in XML form from 
-   ../../../Psps_for_tests/ATOMICDATA/Cl.GGA_PBE-JTH.xml
- inpspheads : Reading pseudopotential header in XML form from 
-   ../../../Psps_for_tests/ATOMICDATA/Zr.GGA_PBE-JTH.xml

 DATASET    1 : space group Fm -3 m (#225); Bravais cF (face-center cubic)
================================================================================
 Values of the parameters that define the memory need for DATASET  1.
     intxc =       0    ionmov =       2      iscf =      17    lmnmax =      18
     lnmax =       6     mgfft =      60  mpssoang =       3    mqgrid =    3581
     natom =       9  nloc_mem =       2    nspden =       1   nspinor =       1
    nsppol =       1      nsym =      48    n1xccc =       1    ntypat =       3
    occopt =       1   xclevel =       2
-    mband =          42        mffmem =           1         mkmem =           3
       mpw =        7920          nfft =      216000          nkpt =          10
Pmy_natom=         3
 PAW method is used; the additional fine FFT grid is defined by:
   mgfftf=        90    nfftf =    729000
================================================================================
P This job should need less than                     248.246 Mbytes of memory.
  Rough estimation (10% accuracy) of disk space for files :
_ WF disk file :     50.759 Mbytes ; DEN or POT disk file :      5.564 Mbytes.
================================================================================


 DATASET    2 : space group Fm -3 m (#225); Bravais cF (face-center cubic)
================================================================================
 Values of the parameters that define the memory need for DATASET  2.
     intxc =       0    ionmov =       2      iscf =      17    lmnmax =      18
     lnmax =       6     mgfft =      60  mpssoang =       3    mqgrid =    3578
     natom =       9  nloc_mem =       2    nspden =       1   nspinor =       1
    nsppol =       1      nsym =      48    n1xccc =       1    ntypat =       3
    occopt =       1   xclevel =       2
-    mband =          42        mffmem =           1         mkmem =           3
       mpw =        7898          nfft =      216000          nkpt =          10
Pmy_natom=         3
 PAW method is used; the additional fine FFT grid is defined by:
   mgfftf=        90    nfftf =    729000
================================================================================
P This job should need less than                     248.272 Mbytes of memory.
  Rough estimation (10% accuracy) of disk space for files :
_ WF disk file :     50.618 Mbytes ; DEN or POT disk file :      5.564 Mbytes.
================================================================================


 DATASET    3 : space group Fm -3 m (#225); Bravais cF (face-center cubic)
================================================================================
 Values of the parameters that define the memory need for DATASET  3.
     intxc =       0    ionmov =       2      iscf =      17    lmnmax =      18
     lnmax =       6     mgfft =      60  mpssoang =       3    mqgrid =    3574
     natom =       9  nloc_mem =       2    nspden =       1   nspinor =       1
    nsppol =       1      nsym =      48    n1xccc =       1    ntypat =       3
    occopt =       1   xclevel =       2
-    mband =          42        mffmem =           1         mkmem =           3
       mpw =        7877          nfft =      216000          nkpt =          10
Pmy_natom=         3
 PAW method is used; the additional fine FFT grid is defined by:
   mgfftf=        90    nfftf =    729000
================================================================================
P This job should need less than                     248.302 Mbytes of memory.
  Rough estimation (10% accuracy) of disk space for files :
_ WF disk file :     50.483 Mbytes ; DEN or POT disk file :      5.564 Mbytes.
================================================================================


 DATASET    4 : space group Fm -3 m (#225); Bravais cF (face-center cubic)
================================================================================
 Values of the parameters that define the memory need for DATASET  4.
     intxc =       0    ionmov =       2      iscf =      17    lmnmax =      18
     lnmax =       6     mgfft =      60  mpssoang =       3    mqgrid =    3570
     natom =       9  nloc_mem =       2    nspden =       1   nspinor =       1
    nsppol =       1      nsym =      48    n1xccc =       1    ntypat =       3
    occopt =       1   xclevel =       2
-    mband =          42        mffmem =           1         mkmem =           3
       mpw =        7853          nfft =      216000          nkpt =          10
Pmy_natom=         3
 PAW method is used; the additional fine FFT grid is defined by:
   mgfftf=        90    nfftf =    729000
================================================================================
P This job should need less than                     248.326 Mbytes of memory.
  Rough estimation (10% accuracy) of disk space for files :
_ WF disk file :     50.329 Mbytes ; DEN or POT disk file :      5.564 Mbytes.
================================================================================


 DATASET    5 : space group Fm -3 m (#225); Bravais cF (face-center cubic)
================================================================================
 Values of the parameters that define the memory need for DATASET  5.
     intxc =       0    ionmov =       2      iscf =      17    lmnmax =      18
     lnmax =       6     mgfft =      60  mpssoang =       3    mqgrid =    3567
     natom =       9  nloc_mem =       2    nspden =       1   nspinor =       1
    nsppol =       1      nsym =      48    n1xccc =       1    ntypat =       3
    occopt =       1   xclevel =       2
-    mband =          42        mffmem =           1         mkmem =           3
       mpw =        7816          nfft =      216000          nkpt =          10
Pmy_natom=         3
 PAW method is used; the additional fine FFT grid is defined by:
   mgfftf=        90    nfftf =    729000
================================================================================
P This job should need less than                     248.322 Mbytes of memory.
  Rough estimation (10% accuracy) of disk space for files :
_ WF disk file :     50.092 Mbytes ; DEN or POT disk file :      5.564 Mbytes.
================================================================================


 DATASET    6 : space group Fm -3 m (#225); Bravais cF (face-center cubic)
================================================================================
 Values of the parameters that define the memory need for DATASET  6.
     intxc =       0    ionmov =       2      iscf =      17    lmnmax =      18
     lnmax =       6     mgfft =      60  mpssoang =       3    mqgrid =    3563
     natom =       9  nloc_mem =       2    nspden =       1   nspinor =       1
    nsppol =       1      nsym =      48    n1xccc =       1    ntypat =       3
    occopt =       1   xclevel =       2
-    mband =          42        mffmem =           1         mkmem =           3
       mpw =        7791          nfft =      216000          nkpt =          10
Pmy_natom=         3
 PAW method is used; the additional fine FFT grid is defined by:
   mgfftf=        90    nfftf =    729000
================================================================================
P This job should need less than                     248.344 Mbytes of memory.
  Rough estimation (10% accuracy) of disk space for files :
_ WF disk file :     49.932 Mbytes ; DEN or POT disk file :      5.564 Mbytes.
================================================================================


 DATASET    7 : space group Fm -3 m (#225); Bravais cF (face-center cubic)
================================================================================
 Values of the parameters that define the memory need for DATASET  7.
     intxc =       0    ionmov =       2      iscf =      17    lmnmax =      18
     lnmax =       6     mgfft =      60  mpssoang =       3    mqgrid =    3560
     natom =       9  nloc_mem =       2    nspden =       1   nspinor =       1
    nsppol =       1      nsym =      48    n1xccc =       1    ntypat =       3
    occopt =       1   xclevel =       2
-    mband =          42        mffmem =           1         mkmem =           3
       mpw =        7777          nfft =      216000          nkpt =          10
Pmy_natom=         3
 PAW method is used; the additional fine FFT grid is defined by:
   mgfftf=        90    nfftf =    729000
================================================================================
P This job should need less than                     248.391 Mbytes of memory.
  Rough estimation (10% accuracy) of disk space for files :
_ WF disk file :     49.842 Mbytes ; DEN or POT disk file :      5.564 Mbytes.
================================================================================


 DATASET    8 : space group Fm -3 m (#225); Bravais cF (face-center cubic)
================================================================================
 Values of the parameters that define the memory need for DATASET  8.
     intxc =       0    ionmov =       2      iscf =      17    lmnmax =      18
     lnmax =       6     mgfft =      60  mpssoang =       3    mqgrid =    3556
     natom =       9  nloc_mem =       2    nspden =       1   nspinor =       1
    nsppol =       1      nsym =      48    n1xccc =       1    ntypat =       3
    occopt =       1   xclevel =       2
-    mband =          42        mffmem =           1         mkmem =           3
       mpw =        7755          nfft =      216000          nkpt =          10
Pmy_natom=         3
 PAW method is used; the additional fine FFT grid is defined by:
   mgfftf=        90    nfftf =    729000
================================================================================
P This job should need less than                     248.420 Mbytes of memory.
  Rough estimation (10% accuracy) of disk space for files :
_ WF disk file :     49.701 Mbytes ; DEN or POT disk file :      5.564 Mbytes.
================================================================================


 DATASET    9 : space group Fm -3 m (#225); Bravais cF (face-center cubic)
================================================================================
 Values of the parameters that define the memory need for DATASET  9.
     intxc =       0    ionmov =       2      iscf =      17    lmnmax =      18
     lnmax =       6     mgfft =      60  mpssoang =       3    mqgrid =    3552
     natom =       9  nloc_mem =       2    nspden =       1   nspinor =       1
    nsppol =       1      nsym =      48    n1xccc =       1    ntypat =       3
    occopt =       1   xclevel =       2
-    mband =          42        mffmem =           1         mkmem =           3
       mpw =        7729          nfft =      216000          nkpt =          10
Pmy_natom=         3
 PAW method is used; the additional fine FFT grid is defined by:
   mgfftf=        90    nfftf =    729000
================================================================================
P This job should need less than                     248.441 Mbytes of memory.
  Rough estimation (10% accuracy) of disk space for files :
_ WF disk file :     49.535 Mbytes ; DEN or POT disk file :      5.564 Mbytes.
================================================================================


 DATASET   10 : space group Fm -3 m (#225); Bravais cF (face-center cubic)
================================================================================
 Values of the parameters that define the memory need for DATASET 10.
     intxc =       0    ionmov =       2      iscf =      17    lmnmax =      18
     lnmax =       6     mgfft =      60  mpssoang =       3    mqgrid =    3549
     natom =       9  nloc_mem =       2    nspden =       1   nspinor =       1
    nsppol =       1      nsym =      48    n1xccc =       1    ntypat =       3
    occopt =       1   xclevel =       2
-    mband =          42        mffmem =           1         mkmem =           3
       mpw =        7703          nfft =      216000          nkpt =          10
Pmy_natom=         3
 PAW method is used; the additional fine FFT grid is defined by:
   mgfftf=        90    nfftf =    729000
================================================================================
P This job should need less than                     248.462 Mbytes of memory.
  Rough estimation (10% accuracy) of disk space for files :
_ WF disk file :     49.368 Mbytes ; DEN or POT disk file :      5.564 Mbytes.
================================================================================

--------------------------------------------------------------------------------
------------- Echo of variables that govern the present computation ------------
--------------------------------------------------------------------------------
-
- outvars: echo of selected default values                                      
-   iomode0 =  0 , fftalg0 =112 , wfoptalg0 = 10
-
- outvars: echo of global parameters not present in the input file              
-  max_nthreads =    0
-
 -outvars: echo values of preprocessed input variables --------
            acell1     1.3393892289E+01  1.3393892289E+01  1.3393892289E+01 Bohr
            acell2     1.3380484990E+01  1.3380484990E+01  1.3380484990E+01 Bohr
            acell3     1.3367077690E+01  1.3367077690E+01  1.3367077690E+01 Bohr
            acell4     1.3353670391E+01  1.3353670391E+01  1.3353670391E+01 Bohr
            acell5     1.3340263091E+01  1.3340263091E+01  1.3340263091E+01 Bohr
            acell6     1.3326855791E+01  1.3326855791E+01  1.3326855791E+01 Bohr
            acell7     1.3313448492E+01  1.3313448492E+01  1.3313448492E+01 Bohr
            acell8     1.3300041192E+01  1.3300041192E+01  1.3300041192E+01 Bohr
            acell9     1.3286633893E+01  1.3286633893E+01  1.3286633893E+01 Bohr
            acell10    1.3273226593E+01  1.3273226593E+01  1.3273226593E+01 Bohr
              amu      1.32905430E+02  3.54527000E+01  9.12240000E+01
           diemac      1.20000000E+01
          dilatmx      1.15000000E+00
             ecut      1.60000000E+01 Hartree
           ecutsm      5.00000000E-01 Hartree
-          fftalg         112
           ionmov           2
              ixc     -101130
           jdtset        1    2    3    4    5    6    7    8    9   10
              kpt     -1.25000000E-01 -2.50000000E-01  0.00000000E+00
                      -1.25000000E-01  5.00000000E-01  0.00000000E+00
                      -2.50000000E-01 -3.75000000E-01  0.00000000E+00
                      -1.25000000E-01 -3.75000000E-01  1.25000000E-01
                      -1.25000000E-01  2.50000000E-01  0.00000000E+00
                      -2.50000000E-01  3.75000000E-01  0.00000000E+00
                      -3.75000000E-01  5.00000000E-01  0.00000000E+00
                      -2.50000000E-01  5.00000000E-01  1.25000000E-01
                      -1.25000000E-01  0.00000000E+00  0.00000000E+00
                      -3.75000000E-01  0.00000000E+00  0.00000000E+00
         kptrlatt        4   -4    4     -4    4    4     -4   -4    4
          kptrlen1     7.57672965E+01
          kptrlen2     7.56914534E+01
          kptrlen3     7.56156102E+01
          kptrlen4     7.55397671E+01
          kptrlen5     7.54639240E+01
          kptrlen6     7.53880808E+01
          kptrlen7     7.53122377E+01
          kptrlen8     7.52363945E+01
          kptrlen9     7.51605514E+01
          kptrlen10    7.50847083E+01
P           mkmem           3
            natom           9
            nband          42
           ndtset          10
            ngfft          60      60      60
          ngfftdg          90      90      90
             nkpt          10
            nstep        2500
             nsym          48
            ntime        1000
           ntypat           3
              occ      2.000000  2.000000  2.000000  2.000000  2.000000  2.000000
                       2.000000  2.000000  2.000000  2.000000  2.000000  2.000000
                       2.000000  2.000000  2.000000  2.000000  2.000000  2.000000
                       2.000000  2.000000  2.000000  2.000000  2.000000  2.000000
                       2.000000  2.000000  2.000000  2.000000  2.000000  2.000000
                       2.000000  2.000000  2.000000  2.000000  2.000000  2.000000
                       0.000000  0.000000  0.000000  0.000000  0.000000  0.000000
          optcell           3
        optforces           1
        pawecutdg      4.00000000E+01 Hartree
            prtwf           0
            rprim      0.0000000000E+00  7.0710678119E-01  7.0710678119E-01
                       7.0710678119E-01  0.0000000000E+00  7.0710678119E-01
                       7.0710678119E-01  7.0710678119E-01  0.0000000000E+00
           shiftk      5.00000000E-01  5.00000000E-01  5.00000000E-01
          spgroup         225
           symrel      1  0  0   0  1  0   0  0  1      -1  0  0   0 -1  0   0  0 -1
                       0 -1  1   0 -1  0   1 -1  0       0  1 -1   0  1  0  -1  1  0
                      -1  0  0  -1  0  1  -1  1  0       1  0  0   1  0 -1   1 -1  0
                       0  1 -1   1  0 -1   0  0 -1       0 -1  1  -1  0  1   0  0  1
                      -1  0  0  -1  1  0  -1  0  1       1  0  0   1 -1  0   1  0 -1
                       0 -1  1   1 -1  0   0 -1  0       0  1 -1  -1  1  0   0  1  0
                       1  0  0   0  0  1   0  1  0      -1  0  0   0  0 -1   0 -1  0
                       0  1 -1   0  0 -1   1  0 -1       0 -1  1   0  0  1  -1  0  1
                      -1  0  1  -1  1  0  -1  0  0       1  0 -1   1 -1  0   1  0  0
                       0 -1  0   1 -1  0   0 -1  1       0  1  0  -1  1  0   0  1 -1
                       1  0 -1   0  0 -1   0  1 -1      -1  0  1   0  0  1   0 -1  1
                       0  1  0   0  0  1   1  0  0       0 -1  0   0  0 -1  -1  0  0
                       1  0 -1   0  1 -1   0  0 -1      -1  0  1   0 -1  1   0  0  1
                       0 -1  0   0 -1  1   1 -1  0       0  1  0   0  1 -1  -1  1  0
                      -1  0  1  -1  0  0  -1  1  0       1  0 -1   1  0  0   1 -1  0
                       0  1  0   1  0  0   0  0  1       0 -1  0  -1  0  0   0  0 -1
                       0  0 -1   0  1 -1   1  0 -1       0  0  1   0 -1  1  -1  0  1
                       1 -1  0   0 -1  1   0 -1  0      -1  1  0   0  1 -1   0  1  0
                       0  0  1   1  0  0   0  1  0       0  0 -1  -1  0  0   0 -1  0
                      -1  1  0  -1  0  0  -1  0  1       1 -1  0   1  0  0   1  0 -1
                       0  0  1   0  1  0   1  0  0       0  0 -1   0 -1  0  -1  0  0
                       1 -1  0   0 -1  0   0 -1  1      -1  1  0   0  1  0   0  1 -1
                       0  0 -1   1  0 -1   0  1 -1       0  0  1  -1  0  1   0 -1  1
                      -1  1  0  -1  0  1  -1  0  0       1 -1  0   1  0 -1   1  0  0
           toldff      1.00000000E-08
           tolmxf      1.00000000E-05
            typat      1  1  2  2  2  2  2  2  3
           useylm           1
              wtk        0.09375    0.09375    0.09375    0.18750    0.09375    0.09375
                         0.09375    0.18750    0.03125    0.03125
           xangst1     2.5058954045E+00  2.5058954045E+00  2.5058954045E+00
                       7.5176862135E+00  7.5176862135E+00  7.5176862135E+00
                       5.0117908090E+00  5.0117908090E+00  2.4622646458E+00
                       5.0117908090E+00  5.0117908090E+00  7.5613169723E+00
                       7.5613169723E+00  5.0117908090E+00  5.0117908090E+00
                       5.0117908090E+00  7.5613169723E+00  5.0117908090E+00
                       5.0117908090E+00  2.4622646458E+00  5.0117908090E+00
                       2.4622646458E+00  5.0117908090E+00  5.0117908090E+00
                      -1.2569673205E-18  4.3537084621E-18  7.4255131369E-19
           xangst2     2.5033870007E+00  2.5033870007E+00  2.5033870007E+00
                       7.5101610021E+00  7.5101610021E+00  7.5101610021E+00
                       5.0067740014E+00  5.0067740014E+00  2.4597999164E+00
                       5.0067740014E+00  5.0067740014E+00  7.5537480864E+00
                       7.5537480864E+00  5.0067740014E+00  5.0067740014E+00
                       5.0067740014E+00  7.5537480864E+00  5.0067740014E+00
                       5.0067740014E+00  2.4597999164E+00  5.0067740014E+00
                       2.4597999164E+00  5.0067740014E+00  5.0067740014E+00
                      -1.2557090949E-18  4.3493503956E-18  7.4180801908E-19
           xangst3     2.5008785969E+00  2.5008785969E+00  2.5008785969E+00
                       7.5026357907E+00  7.5026357907E+00  7.5026357907E+00
                       5.0017571938E+00  5.0017571938E+00  2.4573351870E+00
                       5.0017571938E+00  5.0017571938E+00  7.5461792006E+00
                       7.5461792006E+00  5.0017571938E+00  5.0017571938E+00
                       5.0017571938E+00  7.5461792006E+00  5.0017571938E+00
                       5.0017571938E+00  2.4573351870E+00  5.0017571938E+00
                       2.4573351870E+00  5.0017571938E+00  5.0017571938E+00
                      -1.2544508694E-18  4.3449923291E-18  7.4106472447E-19
           xangst4     2.4983701931E+00  2.4983701931E+00  2.4983701931E+00
                       7.4951105793E+00  7.4951105793E+00  7.4951105793E+00
                       4.9967403862E+00  4.9967403862E+00  2.4548704577E+00
                       4.9967403862E+00  4.9967403862E+00  7.5386103147E+00
                       7.5386103147E+00  4.9967403862E+00  4.9967403862E+00
                       4.9967403862E+00  7.5386103147E+00  4.9967403862E+00
                       4.9967403862E+00  2.4548704577E+00  4.9967403862E+00
                       2.4548704577E+00  4.9967403862E+00  4.9967403862E+00
                      -1.2531926438E-18  4.3406342625E-18  7.4032142986E-19
           xangst5     2.4958617893E+00  2.4958617893E+00  2.4958617893E+00
                       7.4875853678E+00  7.4875853678E+00  7.4875853678E+00
                       4.9917235786E+00  4.9917235786E+00  2.4524057283E+00
                       4.9917235786E+00  4.9917235786E+00  7.5310414288E+00
                       7.5310414288E+00  4.9917235786E+00  4.9917235786E+00
                       4.9917235786E+00  7.5310414288E+00  4.9917235786E+00
                       4.9917235786E+00  2.4524057283E+00  4.9917235786E+00
                       2.4524057283E+00  4.9917235786E+00  4.9917235786E+00
                      -1.2519344183E-18  4.3362761960E-18  7.3957813525E-19
           xangst6     2.4933533855E+00  2.4933533855E+00  2.4933533855E+00
                       7.4800601564E+00  7.4800601564E+00  7.4800601564E+00
                       4.9867067709E+00  4.9867067709E+00  2.4499409989E+00
                       4.9867067709E+00  4.9867067709E+00  7.5234725430E+00
                       7.5234725430E+00  4.9867067709E+00  4.9867067709E+00
                       4.9867067709E+00  7.5234725430E+00  4.9867067709E+00
                       4.9867067709E+00  2.4499409989E+00  4.9867067709E+00
                       2.4499409989E+00  4.9867067709E+00  4.9867067709E+00
                      -1.2506761927E-18  4.3319181295E-18  7.3883484065E-19
           xangst7     2.4908449817E+00  2.4908449817E+00  2.4908449817E+00
                       7.4725349450E+00  7.4725349450E+00  7.4725349450E+00
                       4.9816899633E+00  4.9816899633E+00  2.4474762695E+00
                       4.9816899633E+00  4.9816899633E+00  7.5159036571E+00
                       7.5159036571E+00  4.9816899633E+00  4.9816899633E+00
                       4.9816899633E+00  7.5159036571E+00  4.9816899633E+00
                       4.9816899633E+00  2.4474762695E+00  4.9816899633E+00
                       2.4474762695E+00  4.9816899633E+00  4.9816899633E+00
                      -1.2494179672E-18  4.3275600629E-18  7.3809154604E-19
           xangst8     2.4883365779E+00  2.4883365779E+00  2.4883365779E+00
                       7.4650097336E+00  7.4650097336E+00  7.4650097336E+00
                       4.9766731557E+00  4.9766731557E+00  2.4450115402E+00
                       4.9766731557E+00  4.9766731557E+00  7.5083347713E+00
                       7.5083347713E+00  4.9766731557E+00  4.9766731557E+00
                       4.9766731557E+00  7.5083347713E+00  4.9766731557E+00
                       4.9766731557E+00  2.4450115402E+00  4.9766731557E+00
                       2.4450115402E+00  4.9766731557E+00  4.9766731557E+00
                      -1.2481597416E-18  4.3232019964E-18  7.3734825143E-19
           xangst9     2.4858281740E+00  2.4858281740E+00  2.4858281740E+00
                       7.4574845221E+00  7.4574845221E+00  7.4574845221E+00
                       4.9716563481E+00  4.9716563481E+00  2.4425468108E+00
                       4.9716563481E+00  4.9716563481E+00  7.5007658854E+00
                       7.5007658854E+00  4.9716563481E+00  4.9716563481E+00
                       4.9716563481E+00  7.5007658854E+00  4.9716563481E+00
                       4.9716563481E+00  2.4425468108E+00  4.9716563481E+00
                       2.4425468108E+00  4.9716563481E+00  4.9716563481E+00
                      -1.2469015161E-18  4.3188439299E-18  7.3660495682E-19
           xangst10    2.4833197702E+00  2.4833197702E+00  2.4833197702E+00
                       7.4499593107E+00  7.4499593107E+00  7.4499593107E+00
                       4.9666395405E+00  4.9666395405E+00  2.4400820814E+00
                       4.9666395405E+00  4.9666395405E+00  7.4931969995E+00
                       7.4931969995E+00  4.9666395405E+00  4.9666395405E+00
                       4.9666395405E+00  7.4931969995E+00  4.9666395405E+00
                       4.9666395405E+00  2.4400820814E+00  4.9666395405E+00
                       2.4400820814E+00  4.9666395405E+00  4.9666395405E+00
                      -1.2456432906E-18  4.3144858634E-18  7.3586166221E-19
            xcart1     4.7354560322E+00  4.7354560322E+00  4.7354560322E+00
                       1.4206368097E+01  1.4206368097E+01  1.4206368097E+01
                       9.4709120644E+00  9.4709120644E+00  4.6530058472E+00
                       9.4709120644E+00  9.4709120644E+00  1.4288818282E+01
                       1.4288818282E+01  9.4709120644E+00  9.4709120644E+00
                       9.4709120644E+00  1.4288818282E+01  9.4709120644E+00
                       9.4709120644E+00  4.6530058472E+00  9.4709120644E+00
                       4.6530058472E+00  9.4709120644E+00  9.4709120644E+00
                      -2.3753239937E-18  8.2273166558E-18  1.4032186225E-18
            xcart2     4.7307158360E+00  4.7307158360E+00  4.7307158360E+00
                       1.4192147508E+01  1.4192147508E+01  1.4192147508E+01
                       9.4614316719E+00  9.4614316719E+00  4.6483481837E+00
                       9.4614316719E+00  9.4614316719E+00  1.4274515160E+01
                       1.4274515160E+01  9.4614316719E+00  9.4614316719E+00
                       9.4614316719E+00  1.4274515160E+01  9.4614316719E+00
                       9.4614316719E+00  4.6483481837E+00  9.4614316719E+00
                       4.6483481837E+00  9.4614316719E+00  9.4614316719E+00
                      -2.3729462920E-18  8.2190811036E-18  1.4018139992E-18
            xcart3     4.7259756397E+00  4.7259756397E+00  4.7259756397E+00
                       1.4177926919E+01  1.4177926919E+01  1.4177926919E+01
                       9.4519512795E+00  9.4519512795E+00  4.6436905202E+00
                       9.4519512795E+00  9.4519512795E+00  1.4260212039E+01
                       1.4260212039E+01  9.4519512795E+00  9.4519512795E+00
                       9.4519512795E+00  1.4260212039E+01  9.4519512795E+00
                       9.4519512795E+00  4.6436905202E+00  9.4519512795E+00
                       4.6436905202E+00  9.4519512795E+00  9.4519512795E+00
                      -2.3705685903E-18  8.2108455514E-18  1.4004093760E-18
            xcart4     4.7212354435E+00  4.7212354435E+00  4.7212354435E+00
                       1.4163706331E+01  1.4163706331E+01  1.4163706331E+01
                       9.4424708870E+00  9.4424708870E+00  4.6390328567E+00
                       9.4424708870E+00  9.4424708870E+00  1.4245908917E+01
                       1.4245908917E+01  9.4424708870E+00  9.4424708870E+00
                       9.4424708870E+00  1.4245908917E+01  9.4424708870E+00
                       9.4424708870E+00  4.6390328567E+00  9.4424708870E+00
                       4.6390328567E+00  9.4424708870E+00  9.4424708870E+00
                      -2.3681908886E-18  8.2026099992E-18  1.3990047527E-18
            xcart5     4.7164952473E+00  4.7164952473E+00  4.7164952473E+00
                       1.4149485742E+01  1.4149485742E+01  1.4149485742E+01
                       9.4329904945E+00  9.4329904945E+00  4.6343751932E+00
                       9.4329904945E+00  9.4329904945E+00  1.4231605796E+01
                       1.4231605796E+01  9.4329904945E+00  9.4329904945E+00
                       9.4329904945E+00  1.4231605796E+01  9.4329904945E+00
                       9.4329904945E+00  4.6343751932E+00  9.4329904945E+00
                       4.6343751932E+00  9.4329904945E+00  9.4329904945E+00
                      -2.3658131869E-18  8.1943744470E-18  1.3976001295E-18
            xcart6     4.7117550510E+00  4.7117550510E+00  4.7117550510E+00
                       1.4135265153E+01  1.4135265153E+01  1.4135265153E+01
                       9.4235101021E+00  9.4235101021E+00  4.6297175297E+00
                       9.4235101021E+00  9.4235101021E+00  1.4217302675E+01
                       1.4217302675E+01  9.4235101021E+00  9.4235101021E+00
                       9.4235101021E+00  1.4217302675E+01  9.4235101021E+00
                       9.4235101021E+00  4.6297175297E+00  9.4235101021E+00
                       4.6297175297E+00  9.4235101021E+00  9.4235101021E+00
                      -2.3634354852E-18  8.1861388948E-18  1.3961955063E-18
            xcart7     4.7070148548E+00  4.7070148548E+00  4.7070148548E+00
                       1.4121044564E+01  1.4121044564E+01  1.4121044564E+01
                       9.4140297096E+00  9.4140297096E+00  4.6250598661E+00
                       9.4140297096E+00  9.4140297096E+00  1.4202999553E+01
                       1.4202999553E+01  9.4140297096E+00  9.4140297096E+00
                       9.4140297096E+00  1.4202999553E+01  9.4140297096E+00
                       9.4140297096E+00  4.6250598661E+00  9.4140297096E+00
                       4.6250598661E+00  9.4140297096E+00  9.4140297096E+00
                      -2.3610577835E-18  8.1779033426E-18  1.3947908830E-18
            xcart8     4.7022746586E+00  4.7022746586E+00  4.7022746586E+00
                       1.4106823976E+01  1.4106823976E+01  1.4106823976E+01
                       9.4045493172E+00  9.4045493172E+00  4.6204022026E+00
                       9.4045493172E+00  9.4045493172E+00  1.4188696432E+01
                       1.4188696432E+01  9.4045493172E+00  9.4045493172E+00
                       9.4045493172E+00  1.4188696432E+01  9.4045493172E+00
                       9.4045493172E+00  4.6204022026E+00  9.4045493172E+00
                       4.6204022026E+00  9.4045493172E+00  9.4045493172E+00
                      -2.3586800818E-18  8.1696677904E-18  1.3933862598E-18
            xcart9     4.6975344624E+00  4.6975344624E+00  4.6975344624E+00
                       1.4092603387E+01  1.4092603387E+01  1.4092603387E+01
                       9.3950689247E+00  9.3950689247E+00  4.6157445391E+00
                       9.3950689247E+00  9.3950689247E+00  1.4174393310E+01
                       1.4174393310E+01  9.3950689247E+00  9.3950689247E+00
                       9.3950689247E+00  1.4174393310E+01  9.3950689247E+00
                       9.3950689247E+00  4.6157445391E+00  9.3950689247E+00
                       4.6157445391E+00  9.3950689247E+00  9.3950689247E+00
                      -2.3563023801E-18  8.1614322381E-18  1.3919816365E-18
            xcart10    4.6927942661E+00  4.6927942661E+00  4.6927942661E+00
                       1.4078382798E+01  1.4078382798E+01  1.4078382798E+01
                       9.3855885323E+00  9.3855885323E+00  4.6110868756E+00
                       9.3855885323E+00  9.3855885323E+00  1.4160090189E+01
                       1.4160090189E+01  9.3855885323E+00  9.3855885323E+00
                       9.3855885323E+00  1.4160090189E+01  9.3855885323E+00
                       9.3855885323E+00  4.6110868756E+00  9.3855885323E+00
                       4.6110868756E+00  9.3855885323E+00  9.3855885323E+00
                      -2.3539246784E-18  8.1531966859E-18  1.3905770133E-18
             xred      2.5000000000E-01  2.5000000000E-01  2.5000000000E-01
                       7.5000000000E-01  7.5000000000E-01  7.5000000000E-01
                       2.4564718876E-01  2.4564718876E-01  7.5435281124E-01
                       7.5435281124E-01  7.5435281124E-01  2.4564718876E-01
                       2.4564718876E-01  7.5435281124E-01  7.5435281124E-01
                       7.5435281124E-01  2.4564718876E-01  7.5435281124E-01
                       2.4564718876E-01  7.5435281124E-01  2.4564718876E-01
                       7.5435281124E-01  2.4564718876E-01  2.4564718876E-01
                       6.3382804055E-19 -4.8566716513E-19  2.3486513281E-19
            znucl       55.00000   17.00000   40.00000

================================================================================

 chkinp: Checking input parameters for consistency, jdtset=   1.

 chkinp: Checking input parameters for consistency, jdtset=   2.

 chkinp: Checking input parameters for consistency, jdtset=   3.

 chkinp: Checking input parameters for consistency, jdtset=   4.

 chkinp: Checking input parameters for consistency, jdtset=   5.

 chkinp: Checking input parameters for consistency, jdtset=   6.

 chkinp: Checking input parameters for consistency, jdtset=   7.

 chkinp: Checking input parameters for consistency, jdtset=   8.

 chkinp: Checking input parameters for consistency, jdtset=   9.

 chkinp: Checking input parameters for consistency, jdtset=  10.

================================================================================
== DATASET  1 ==================================================================
-   mpi_nproc: 4, omp_nthreads: -1 (-1 if OMP is not activated)


--- !DatasetInfo
iteration_state: {dtset: 1, }
dimensions: {natom: 9, nkpt: 10, mband: 42, nsppol: 1, nspinor: 1, nspden: 1, mpw: 7920, }
cutoff_energies: {ecut:  16.0, pawecutdg:  40.0, }
electrons: {nelect:   7.20000000E+01, charge:   0.00000000E+00, occopt:   1.00000000E+00, tsmear:   1.00000000E-02, }
meta: {optdriver: 0, ionmov: 2, optcell: 3, iscf: 17, paral_kgb: 0, }
...

 Real(R)+Recip(G) space primitive vectors, cartesian coordinates (Bohr,Bohr^-1):
 R(1)=  0.0000000  9.4709121  9.4709121  G(1)= -0.0527932  0.0527932  0.0527932
 R(2)=  9.4709121  0.0000000  9.4709121  G(2)=  0.0527932 -0.0527932  0.0527932
 R(3)=  9.4709121  9.4709121  0.0000000  G(3)=  0.0527932  0.0527932 -0.0527932
 Unit cell volume ucvol=  1.6990471E+03 bohr^3
 Angles (23,13,12)=  6.00000000E+01  6.00000000E+01  6.00000000E+01 degrees

 Coarse grid specifications (used for wave-functions):

 getcut: wavevector=  0.0000  0.0000  0.0000  ngfft=  60  60  60
         ecut(hartree)=     21.160   => boxcut(ratio)=   2.16332

 Fine grid specifications (used for densities):

 getcut: wavevector=  0.0000  0.0000  0.0000  ngfft=  90  90  90
         ecut(hartree)=     52.900   => boxcut(ratio)=   2.05256

--- Pseudopotential description ------------------------------------------------
- pspini: atom type   1  psp file is ../../../Psps_for_tests/ATOMICDATA/Cs.GGA_PBE-JTH.xml
- pspatm: opening atomic psp file    ../../../Psps_for_tests/ATOMICDATA/Cs.GGA_PBE-JTH.xml
- pspatm : Reading pseudopotential header in XML form from ../../../Psps_for_tests/ATOMICDATA/Cs.GGA_PBE-JTH.xml
 Pseudopotential format is: paw10
 basis_size (lnmax)=  6 (lmn_size= 18), orbitals=   0   0   1   1   2   2
 Spheres core radius: rc_sph= 2.20660278
 1 radial meshes are used:
  - mesh 1: r(i)=AA*[exp(BB*(i-1))-1], size=1500 , AA= 0.15922E-03 BB= 0.87573E-02
 Shapefunction is SIN type: shapef(r)=[sin(pi*r/rshp)/(pi*r/rshp)]**2
 Radius for shape functions =  2.00394208
 mmax= 1500
 Radial grid used for partial waves is grid 1
 Radial grid used for projectors is grid 1
 Radial grid used for (t)core density is grid 1
 Radial grid used for Vloc is grid 1
 Radial grid used for pseudo valence density is grid 1
 Mesh size for Vloc has been set to 1341 to avoid numerical noise.
 Compensation charge density is not taken into account in XC energy/potential
 pspatm: atomic psp has been read  and splines computed

- pspini: atom type   2  psp file is ../../../Psps_for_tests/ATOMICDATA/Cl.GGA_PBE-JTH.xml
- pspatm: opening atomic psp file    ../../../Psps_for_tests/ATOMICDATA/Cl.GGA_PBE-JTH.xml
- pspatm : Reading pseudopotential header in XML form from ../../../Psps_for_tests/ATOMICDATA/Cl.GGA_PBE-JTH.xml
 Pseudopotential format is: paw10
 basis_size (lnmax)=  4 (lmn_size=  8), orbitals=   0   0   1   1
 Spheres core radius: rc_sph= 1.80315674
 1 radial meshes are used:
  - mesh 1: r(i)=AA*[exp(BB*(i-1))-1], size=1400 , AA= 0.50355E-03 BB= 0.85603E-02
 Shapefunction is SIN type: shapef(r)=[sin(pi*r/rshp)/(pi*r/rshp)]**2
 Radius for shape functions =  1.61320365
 mmax= 1400
 Radial grid used for partial waves is grid 1
 Radial grid used for projectors is grid 1
 Radial grid used for (t)core density is grid 1
 Radial grid used for Vloc is grid 1
 Radial grid used for pseudo valence density is grid 1
 Mesh size for Vloc has been set to 1238 to avoid numerical noise.
 Compensation charge density is not taken into account in XC energy/potential
 pspatm: atomic psp has been read  and splines computed

- pspini: atom type   3  psp file is ../../../Psps_for_tests/ATOMICDATA/Zr.GGA_PBE-JTH.xml
- pspatm: opening atomic psp file    ../../../Psps_for_tests/ATOMICDATA/Zr.GGA_PBE-JTH.xml
- pspatm : Reading pseudopotential header in XML form from ../../../Psps_for_tests/ATOMICDATA/Zr.GGA_PBE-JTH.xml
 Pseudopotential format is: paw10
 basis_size (lnmax)=  6 (lmn_size= 18), orbitals=   0   0   1   1   2   2
 Spheres core radius: rc_sph= 2.21000000
 1 radial meshes are used:
  - mesh 1: r(i)=AA*[exp(BB*(i-1))-1], size= 941 , AA= 0.35256E-03 BB= 0.14102E-01
 Shapefunction is BESSEL type: shapef(r,l)=aa(1,l)*jl(q(1,l)*r)+aa(2,l)*jl(q(2,l)*r)
 Radius for shape functions =  2.21000000
 mmax=  941
 Radial grid used for partial waves is grid 1
 Radial grid used for projectors is grid 1
 Radial grid used for (t)core density is grid 1
 Radial grid used for Vloc is grid 1
 Radial grid used for pseudo valence density is grid 1
 Mesh size for Vloc has been set to  777 to avoid numerical noise.
 Compensation charge density is not taken into account in XC energy/potential
 pspatm: atomic psp has been read  and splines computed

   1.02542921E+04                                ecore*ucvol(ha*bohr**3)
--------------------------------------------------------------------------------

_setup2: Arith. and geom. avg. npw (full set) are    7897.406    7897.398

================================================================================

=== [ionmov= 2] Broyden-Fletcher-Goldfard-Shanno method (forces)            
================================================================================

--- Iteration: (   1/1000) Internal Cycle: (1/1)
--------------------------------------------------------------------------------

---SELF-CONSISTENT-FIELD CONVERGENCE--------------------------------------------

--- !BeginCycle
iteration_state: {dtset: 1, itime: 1, icycle: 1, }
solver: {iscf: 17, nstep: 2500, nline: 4, wfoptalg: 10, }
tolerances: {toldff: 1.00E-08, }
...

     iter   Etot(hartree)      deltaE(h)  residm     nres2    diffor    maxfor
 ETOT  1  -179.63422985122    -1.796E+02 2.045E-01 3.067E+01 1.030E-01 1.030E-01
 ETOT  2  -179.80678125699    -1.726E-01 1.737E-02 5.941E+00 1.679E-01 6.491E-02
 ETOT  3  -179.80598883060     7.924E-04 2.590E-03 1.350E+00 5.470E-02 1.021E-02
 ETOT  4  -179.80664673098    -6.579E-04 3.130E-03 3.996E-02 3.710E-03 1.392E-02
 ETOT  5  -179.80659451034     5.222E-05 5.490E-04 5.538E-03 1.341E-02 5.124E-04
 ETOT  6  -179.80662887553    -3.437E-05 7.231E-04 1.555E-04 3.258E-04 1.866E-04
 ETOT  7  -179.80663044791    -1.572E-06 2.393E-04 4.676E-05 5.696E-04 3.831E-04
 ETOT  8  -179.80663117812    -7.302E-07 3.277E-04 6.102E-06 2.339E-04 6.169E-04
 ETOT  9  -179.80663121425    -3.613E-08 1.207E-04 2.855E-07 8.380E-05 5.332E-04
 ETOT 10  -179.80663122022    -5.962E-09 1.434E-04 5.202E-08 1.955E-05 5.527E-04
 ETOT 11  -179.80663122066    -4.473E-10 4.808E-05 1.483E-08 8.314E-07 5.535E-04
 ETOT 12  -179.80663122089    -2.292E-10 6.539E-05 2.030E-09 1.600E-06 5.551E-04
 ETOT 13  -179.80663122087     2.021E-11 2.275E-05 2.405E-10 6.446E-07 5.558E-04
 ETOT 14  -179.80663122086     1.347E-11 3.753E-05 2.302E-11 1.523E-07 5.559E-04
 ETOT 15  -179.80663122088    -1.691E-11 1.299E-05 1.626E-12 1.283E-07 5.561E-04
 ETOT 16  -179.80663122086     1.012E-11 2.215E-05 1.124E-13 1.517E-09 5.561E-04
 ETOT 17  -179.80663122086     1.137E-13 7.861E-06 1.456E-14 2.900E-09 5.561E-04

 At SCF step   17, forces are converged : 
  for the second time, max diff in force=  2.900E-09 < toldff=  1.000E-08

 Cartesian components of stress tensor (hartree/bohr^3)
  sigma(1 1)= -1.23893640E-04  sigma(3 2)=  0.00000000E+00
  sigma(2 2)= -1.23893640E-04  sigma(3 1)=  0.00000000E+00
  sigma(3 3)= -1.23893640E-04  sigma(2 1)=  0.00000000E+00


--- !ResultsGS
iteration_state: {dtset: 1, itime: 1, icycle: 1, }
comment   : Summary of ground state results
lattice_vectors:
- [  0.0000000,   9.4709121,   9.4709121, ]
- [  9.4709121,   0.0000000,   9.4709121, ]
- [  9.4709121,   9.4709121,   0.0000000, ]
lattice_lengths: [  13.39389,   13.39389,   13.39389, ]
lattice_angles: [ 60.000,  60.000,  60.000, ] # degrees, (23, 13, 12)
lattice_volume:   1.6990471E+03
convergence: {deltae:  1.137E-13, res2:  1.456E-14, residm:  7.861E-06, diffor:  2.900E-09, }
etotal    :  -1.79806631E+02
entropy   :   0.00000000E+00
fermie    :   3.96858109E-02
cartesian_stress_tensor: # hartree/bohr^3
- [ -1.23893640E-04,   0.00000000E+00,   0.00000000E+00, ]
- [  0.00000000E+00,  -1.23893640E-04,   0.00000000E+00, ]
- [  0.00000000E+00,   0.00000000E+00,  -1.23893640E-04, ]
pressure_GPa:   3.6451E+00
xred      :
- [  2.5000E-01,   2.5000E-01,   2.5000E-01, Cs]
- [  7.5000E-01,   7.5000E-01,   7.5000E-01, Cs]
- [  2.4565E-01,   2.4565E-01,   7.5435E-01, Cl]
- [  7.5435E-01,   7.5435E-01,   2.4565E-01, Cl]
- [  2.4565E-01,   7.5435E-01,   7.5435E-01, Cl]
- [  7.5435E-01,   2.4565E-01,   7.5435E-01, Cl]
- [  2.4565E-01,   7.5435E-01,   2.4565E-01, Cl]
- [  7.5435E-01,   2.4565E-01,   2.4565E-01, Cl]
- [  6.3383E-19,  -4.8567E-19,   2.3487E-19, Zr]
cartesian_forces: # hartree/bohr
- [ -1.20466908E-20,  -1.58181434E-22,  -6.02334540E-21, ]
- [ -1.20466908E-20,  -1.58181434E-22,  -6.02334540E-21, ]
- [ -1.25163482E-20,   2.21942697E-21,   5.56057161E-04, ]
- [ -1.99963179E-20,   5.88349462E-21,  -5.56057161E-04, ]
- [ -5.56057161E-04,  -1.10002032E-19,   1.03820505E-19, ]
- [ -1.34703237E-20,  -5.56057161E-04,  -4.59971250E-21, ]
- [ -6.48331665E-20,   5.56057161E-04,   4.67631303E-20, ]
- [  5.56057161E-04,   1.26545147E-21,  -7.44697831E-21, ]
- [ -1.20466908E-20,  -1.58181434E-22,  -6.02334540E-21, ]
force_length_stats: {min:   1.34695386E-20, max:   5.56057161E-04, mean:   3.70704774E-04, }
...

 Integrated electronic density in atomic spheres:
 ------------------------------------------------
 Atom  Sphere_radius  Integrated_density
    1        2.20660          5.37113880
    2        2.20660          5.37113880
    3        1.80316          4.37764373
    4        1.80316          4.37764373
    5        1.80316          4.37764373
    6        1.80316          4.37764373
    7        1.80316          4.37764373
    8        1.80316          4.37764373
    9        2.21000          8.84643713

 PAW TEST:
 ==== Compensation charge inside spheres ============
 The following values must be close to each other ...
 Compensation charge over spherical meshes =     -6.092390069802684
 Compensation charge over fine fft grid    =     -6.092377946980037

 ==== Results concerning PAW augmentation regions ====

 Total pseudopotential strength Dij (hartree):
 Atom #  1
   0.39100  -0.12976   0.00000   0.00000   0.00000   0.00000   0.00000   0.00000   0.00000   0.00000   0.00000   0.00000 ...
  -0.12976   0.03874   0.00000   0.00000   0.00000   0.00000   0.00000   0.00000   0.00000   0.00000   0.00000   0.00000 ...
   0.00000   0.00000  -0.08752   0.00000   0.00000  -0.17020   0.00000   0.00000   0.00000   0.00000   0.00000  -0.00000 ...
   0.00000   0.00000   0.00000  -0.08752   0.00000   0.00000  -0.17020   0.00000  -0.00000   0.00000   0.00000   0.00000 ...
   0.00000   0.00000   0.00000   0.00000  -0.08752   0.00000   0.00000  -0.17020   0.00000  -0.00000   0.00000   0.00000 ...
   0.00000   0.00000  -0.17020   0.00000   0.00000   0.38913   0.00000   0.00000   0.00000   0.00000   0.00000   0.00000 ...
   0.00000   0.00000   0.00000  -0.17020   0.00000   0.00000   0.38913   0.00000   0.00000   0.00000   0.00000   0.00000 ...
   0.00000   0.00000   0.00000   0.00000  -0.17020   0.00000   0.00000   0.38913   0.00000   0.00000   0.00000   0.00000 ...
   0.00000   0.00000   0.00000  -0.00000   0.00000   0.00000   0.00000   0.00000   0.00608   0.00000   0.00000   0.00000 ...
   0.00000   0.00000   0.00000   0.00000  -0.00000   0.00000   0.00000   0.00000   0.00000   0.00608   0.00000   0.00000 ...
   0.00000   0.00000   0.00000   0.00000   0.00000   0.00000   0.00000   0.00000   0.00000   0.00000   0.00608   0.00000 ...
   0.00000   0.00000  -0.00000   0.00000   0.00000   0.00000   0.00000   0.00000   0.00000   0.00000   0.00000   0.00608 ...
   ...  only 12  components have been written...
 Atom #  9
   3.01820  -0.87791   0.00000   0.00000   0.00000   0.00000   0.00000   0.00000   0.00000   0.00000   0.00000   0.00000 ...
  -0.87791   0.26203   0.00000   0.00000   0.00000   0.00000   0.00000   0.00000   0.00000   0.00000   0.00000   0.00000 ...
   0.00000   0.00000   0.28975   0.00000   0.00000  -0.05963   0.00000   0.00000   0.00000   0.00000   0.00000   0.00000 ...
   0.00000   0.00000   0.00000   0.28975   0.00000   0.00000  -0.05963   0.00000   0.00000   0.00000   0.00000   0.00000 ...
   0.00000   0.00000   0.00000   0.00000   0.28975   0.00000   0.00000  -0.05963   0.00000   0.00000   0.00000   0.00000 ...
   0.00000   0.00000  -0.05963   0.00000   0.00000   0.01609   0.00000   0.00000   0.00000   0.00000   0.00000   0.00000 ...
   0.00000   0.00000   0.00000  -0.05963   0.00000   0.00000   0.01609   0.00000   0.00000   0.00000   0.00000   0.00000 ...
   0.00000   0.00000   0.00000   0.00000  -0.05963   0.00000   0.00000   0.01609   0.00000   0.00000   0.00000   0.00000 ...
   0.00000   0.00000   0.00000   0.00000   0.00000   0.00000   0.00000   0.00000   0.00866   0.00000   0.00000   0.00000 ...
   0.00000   0.00000   0.00000   0.00000   0.00000   0.00000   0.00000   0.00000   0.00000   0.00866   0.00000   0.00000 ...
   0.00000   0.00000   0.00000   0.00000   0.00000   0.00000   0.00000   0.00000   0.00000   0.00000   0.00875   0.00000 ...
   0.00000   0.00000   0.00000   0.00000   0.00000   0.00000   0.00000   0.00000   0.00000   0.00000   0.00000   0.00866 ...
   ...  only 12  components have been written...


 Augmentation waves occupancies Rhoij:
 Atom #  1
   2.00034  -0.00910   0.00000   0.00000   0.00000   0.00000   0.00000   0.00000   0.00000   0.00000   0.00000   0.00000 ...
  -0.00910   0.18204   0.00000   0.00000   0.00000   0.00000   0.00000   0.00000   0.00000   0.00000   0.00000   0.00000 ...
   0.00000   0.00000   2.01285   0.00000   0.00000  -0.00484   0.00000   0.00000   0.00000   0.00000   0.00000  -0.00215 ...
   0.00000   0.00000   0.00000   2.01285   0.00000   0.00000  -0.00484   0.00000  -0.00215   0.00000   0.00000   0.00000 ...
   0.00000   0.00000   0.00000   0.00000   2.01285   0.00000   0.00000  -0.00484   0.00000  -0.00215   0.00000   0.00000 ...
   0.00000   0.00000  -0.00484   0.00000   0.00000   0.00015   0.00000   0.00000   0.00000   0.00000   0.00000  -0.00015 ...
   0.00000   0.00000   0.00000  -0.00484   0.00000   0.00000   0.00015   0.00000  -0.00015   0.00000   0.00000   0.00000 ...
   0.00000   0.00000   0.00000   0.00000  -0.00484   0.00000   0.00000   0.00015   0.00000  -0.00015   0.00000   0.00000 ...
   0.00000   0.00000   0.00000  -0.00215   0.00000   0.00000  -0.00015   0.00000   0.06857   0.00000   0.00000   0.00000 ...
   0.00000   0.00000   0.00000   0.00000  -0.00215   0.00000   0.00000  -0.00015   0.00000   0.06857   0.00000   0.00000 ...
   0.00000   0.00000   0.00000   0.00000   0.00000   0.00000   0.00000   0.00000   0.00000   0.00000   0.04301   0.00000 ...
   0.00000   0.00000  -0.00215   0.00000   0.00000  -0.00015   0.00000   0.00000   0.00000   0.00000   0.00000   0.06857 ...
   ...  only 12  components have been written...
 Atom #  9
   1.99337  -0.07060   0.00000   0.00000   0.00000   0.00000   0.00000   0.00000   0.00000   0.00000   0.00000   0.00000 ...
  -0.07060   1.09043   0.00000   0.00000   0.00000   0.00000   0.00000   0.00000   0.00000   0.00000   0.00000   0.00000 ...
   0.00000   0.00000   1.96561   0.00000   0.00000  -0.21058   0.00000   0.00000   0.00000   0.00000   0.00000   0.00000 ...
   0.00000   0.00000   0.00000   1.96561   0.00000   0.00000  -0.21058   0.00000   0.00000   0.00000   0.00000   0.00000 ...
   0.00000   0.00000   0.00000   0.00000   1.96561   0.00000   0.00000  -0.21058   0.00000   0.00000   0.00000   0.00000 ...
   0.00000   0.00000  -0.21058   0.00000   0.00000   1.89447   0.00000   0.00000   0.00000   0.00000   0.00000   0.00000 ...
   0.00000   0.00000   0.00000  -0.21058   0.00000   0.00000   1.89447   0.00000   0.00000   0.00000   0.00000   0.00000 ...
   0.00000   0.00000   0.00000   0.00000  -0.21058   0.00000   0.00000   1.89447   0.00000   0.00000   0.00000   0.00000 ...
   0.00000   0.00000   0.00000   0.00000   0.00000   0.00000   0.00000   0.00000   0.55329   0.00000   0.00000   0.00000 ...
   0.00000   0.00000   0.00000   0.00000   0.00000   0.00000   0.00000   0.00000   0.00000   0.55329   0.00000   0.00000 ...
   0.00000   0.00000   0.00000   0.00000   0.00000   0.00000   0.00000   0.00000   0.00000   0.00000   1.65525   0.00000 ...
   0.00000   0.00000   0.00000   0.00000   0.00000   0.00000   0.00000   0.00000   0.00000   0.00000   0.00000   0.55329 ...
   ...  only 12  components have been written...



---OUTPUT-----------------------------------------------------------------------

 Cartesian coordinates (xcart) [bohr]
  4.73545603218549E+00  4.73545603218549E+00  4.73545603218549E+00
  1.42063680965565E+01  1.42063680965565E+01  1.42063680965565E+01
  9.47091206437097E+00  9.47091206437097E+00  4.65300584721180E+00
  9.47091206437097E+00  9.47091206437097E+00  1.42888182815302E+01
  1.42888182815302E+01  9.47091206437097E+00  9.47091206437097E+00
  9.47091206437097E+00  1.42888182815301E+01  9.47091206437097E+00
  9.47091206437097E+00  4.65300584721180E+00  9.47091206437097E+00
  4.65300584721180E+00  9.47091206437097E+00  9.47091206437097E+00
 -2.37532399366825E-18  8.22731665581193E-18  1.40321862248304E-18
 Reduced coordinates (xred)
  2.50000000000000E-01  2.50000000000000E-01  2.50000000000000E-01
  7.50000000000000E-01  7.50000000000000E-01  7.50000000000000E-01
  2.45647188760000E-01  2.45647188760000E-01  7.54352811240000E-01
  7.54352811240000E-01  7.54352811240000E-01  2.45647188760000E-01
  2.45647188760000E-01  7.54352811240000E-01  7.54352811240000E-01
  7.54352811240000E-01  2.45647188760000E-01  7.54352811240000E-01
  2.45647188760000E-01  7.54352811240000E-01  2.45647188760000E-01
  7.54352811240000E-01  2.45647188760000E-01  2.45647188760000E-01
  6.33828040550000E-19 -4.85667165130000E-19  2.34865132810000E-19
 Cartesian forces (fcart) [Ha/bohr]; max,rms= 5.56057E-04 2.62128E-04 (free atoms)
 -1.20466908053945E-20 -1.58181433767325E-22 -6.02334540269725E-21
 -1.20466908053945E-20 -1.58181433767325E-22 -6.02334540269725E-21
 -1.25163482059236E-20  2.21942697351541E-21  5.56057160540000E-04
 -1.99963178670534E-20  5.88349462113793E-21 -5.56057160540000E-04
 -5.56057160540000E-04 -1.10002031586224E-19  1.03820504749759E-19
 -1.34703237093004E-20 -5.56057160540000E-04 -4.59971249879132E-21
 -6.48331665257638E-20  5.56057160540000E-04  4.67631303176721E-20
  5.56057160540000E-04  1.26545147013860E-21 -7.44697830660317E-21
 -1.20466908053945E-20 -1.58181433767325E-22 -6.02334540269725E-21
 Reduced forces (fred)
  5.85446970917052E-20  1.71139723926836E-19  1.15591271733984E-19
  5.85446970917052E-20  1.71139723926836E-19  1.15591271733984E-19
 -5.26636847023815E-03 -5.26636847023815E-03  9.75212355258923E-20
  5.26636847023816E-03  5.26636847023816E-03  1.33661307942076E-19
  5.85446970917054E-20  5.26636847023815E-03  5.26636847023815E-03
  5.26636847023815E-03  1.71139723926836E-19  5.26636847023815E-03
 -5.26636847023816E-03  1.71139723926836E-19 -5.26636847023815E-03
  5.85446970917052E-20 -5.26636847023815E-03 -5.26636847023815E-03
  5.85446970917052E-20  1.71139723926836E-19  1.15591271733984E-19
 Scale of Primitive Cell (acell) [bohr]
  1.33938922894110E+01  1.33938922894110E+01  1.33938922894110E+01
 Real space primitive translations (rprimd) [bohr]
  0.00000000000000E+00  9.47091206437097E+00  9.47091206437097E+00
  9.47091206437097E+00  0.00000000000000E+00  9.47091206437097E+00
  9.47091206437097E+00  9.47091206437097E+00  0.00000000000000E+00
 Unitary Cell Volume (ucvol) [Bohr^3]=  1.69904706178976E+03
 Angles (23,13,12)= [degrees]
  6.00000000000000E+01  6.00000000000000E+01  6.00000000000000E+01
 Lengths [Bohr]
  1.33938922894764E+01  1.33938922894764E+01  1.33938922894764E+01
 Stress tensor in cartesian coordinates (strten) [Ha/bohr^3]
 -1.23893640150453E-04  0.00000000000000E+00  0.00000000000000E+00
  0.00000000000000E+00 -1.23893640150453E-04  0.00000000000000E+00
  0.00000000000000E+00  0.00000000000000E+00 -1.23893640150453E-04
 Total energy (etotal) [Ha]= -1.79806631220865E+02

--- Iteration: (   2/1000) Internal Cycle: (1/1)
--------------------------------------------------------------------------------

---SELF-CONSISTENT-FIELD CONVERGENCE--------------------------------------------

--- !BeginCycle
iteration_state: {dtset: 1, itime: 2, icycle: 1, }
solver: {iscf: 17, nstep: 2500, nline: 4, wfoptalg: 10, }
tolerances: {toldff: 1.00E-08, }
...

     iter   Etot(hartree)      deltaE(h)  residm     nres2    diffor    maxfor
 ETOT  1  -179.80664058879    -1.798E+02 5.066E-06 1.593E-03 4.463E-03 5.019E-03
 ETOT  2  -179.80663355516     7.034E-06 3.300E-06 2.574E-04 5.013E-03 5.379E-06
 ETOT  3  -179.80663295486     6.003E-07 6.254E-06 1.854E-05 7.335E-04 7.388E-04
 ETOT  4  -179.80663293027     2.459E-08 2.351E-06 2.776E-06 1.996E-04 5.392E-04
 ETOT  5  -179.80663293119    -9.236E-10 4.439E-06 9.377E-07 2.072E-05 5.185E-04
 ETOT  6  -179.80663293700    -5.804E-09 2.036E-06 9.994E-08 3.132E-05 4.872E-04
 ETOT  7  -179.80663293980    -2.800E-09 4.421E-06 1.222E-08 9.313E-06 4.779E-04
 ETOT  8  -179.80663294059    -7.955E-10 1.807E-06 1.419E-09 2.572E-06 4.753E-04
 ETOT  9  -179.80663294063    -3.996E-11 4.386E-06 1.684E-10 1.716E-07 4.755E-04
 ETOT 10  -179.80663294059     4.701E-11 1.632E-06 1.685E-11 2.346E-07 4.752E-04
 ETOT 11  -179.80663294056     2.694E-11 4.332E-06 1.145E-12 4.369E-08 4.753E-04
 ETOT 12  -179.80663294055     1.137E-11 1.493E-06 1.387E-13 1.055E-08 4.753E-04
 ETOT 13  -179.80663294057    -1.779E-11 4.261E-06 3.677E-14 3.940E-09 4.753E-04
 ETOT 14  -179.80663294057    -4.860E-12 1.375E-06 2.841E-15 1.574E-09 4.753E-04

 At SCF step   14, forces are converged : 
  for the second time, max diff in force=  1.574E-09 < toldff=  1.000E-08

 Cartesian components of stress tensor (hartree/bohr^3)
  sigma(1 1)= -1.23534078E-04  sigma(3 2)=  0.00000000E+00
  sigma(2 2)= -1.23534078E-04  sigma(3 1)=  0.00000000E+00
  sigma(3 3)= -1.23534078E-04  sigma(2 1)=  0.00000000E+00


--- !ResultsGS
iteration_state: {dtset: 1, itime: 2, icycle: 1, }
comment   : Summary of ground state results
lattice_vectors:
- [  0.0000000,   9.4709121,   9.4709121, ]
- [  9.4709121,   0.0000000,   9.4709121, ]
- [  9.4709121,   9.4709121,   0.0000000, ]
lattice_lengths: [  13.39389,   13.39389,   13.39389, ]
lattice_angles: [ 60.000,  60.000,  60.000, ] # degrees, (23, 13, 12)
lattice_volume:   1.6990471E+03
convergence: {deltae: -4.860E-12, res2:  2.841E-15, residm:  1.375E-06, diffor:  1.574E-09, }
etotal    :  -1.79806633E+02
entropy   :   0.00000000E+00
fermie    :   3.96917935E-02
cartesian_stress_tensor: # hartree/bohr^3
- [ -1.23534078E-04,   0.00000000E+00,   0.00000000E+00, ]
- [  0.00000000E+00,  -1.23534078E-04,   0.00000000E+00, ]
- [  0.00000000E+00,   0.00000000E+00,  -1.23534078E-04, ]
pressure_GPa:   3.6345E+00
xred      :
- [  2.5000E-01,   2.5000E-01,   2.5000E-01, Cs]
- [  7.5000E-01,   7.5000E-01,   7.5000E-01, Cs]
- [  2.4568E-01,   2.4568E-01,   7.5432E-01, Cl]
- [  7.5432E-01,   7.5432E-01,   2.4568E-01, Cl]
- [  2.4568E-01,   7.5432E-01,   7.5432E-01, Cl]
- [  7.5432E-01,   2.4568E-01,   7.5432E-01, Cl]
- [  2.4568E-01,   7.5432E-01,   2.4568E-01, Cl]
- [  7.5432E-01,   2.4568E-01,   2.4568E-01, Cl]
- [  6.3362E-19,  -4.8706E-19,   2.3509E-19, Zr]
cartesian_forces: # hartree/bohr
- [  1.45565110E-26,   1.10066724E-20,  -1.11112002E-20, ]
- [ -0.00000000E+00,   1.10066870E-20,  -1.11112148E-20, ]
- [ -4.76855496E-20,   5.67842856E-20,   4.75294956E-04, ]
- [  1.01895658E-19,  -8.89810203E-20,  -4.75294956E-04, ]
- [ -4.75294956E-04,  -4.41441716E-20,   4.40396438E-20, ]
- [ -9.36003444E-21,  -4.75294956E-04,  -1.75118031E-21, ]
- [  9.36003444E-21,   4.75294956E-04,  -2.04712492E-20, ]
- [  4.75294956E-04,   2.03667214E-20,  -2.04712492E-20, ]
- [ -0.00000000E+00,   1.10066870E-20,  -1.11112148E-20, ]
force_length_stats: {min:   1.56398724E-20, max:   4.75294956E-04, mean:   3.16863304E-04, }
...

 Integrated electronic density in atomic spheres:
 ------------------------------------------------
 Atom  Sphere_radius  Integrated_density
    1        2.20660          5.37114081
    2        2.20660          5.37114081
    3        1.80316          4.37940991
    4        1.80316          4.37940991
    5        1.80316          4.37940991
    6        1.80316          4.37940991
    7        1.80316          4.37940991
    8        1.80316          4.37940991
    9        2.21000          8.84608619

 PAW TEST:
 ==== Compensation charge inside spheres ============
 The following values must be close to each other ...
 Compensation charge over spherical meshes =     -6.092405793111395
 Compensation charge over fine fft grid    =     -6.092394203340453

 ==== Results concerning PAW augmentation regions ====

 Total pseudopotential strength Dij (hartree):
 Atom #  1
   0.39100  -0.12976   0.00000   0.00000   0.00000   0.00000   0.00000   0.00000   0.00000   0.00000   0.00000   0.00000 ...
  -0.12976   0.03874   0.00000   0.00000   0.00000   0.00000   0.00000   0.00000   0.00000   0.00000   0.00000   0.00000 ...
   0.00000   0.00000  -0.08752   0.00000   0.00000  -0.17020   0.00000   0.00000   0.00000   0.00000   0.00000  -0.00000 ...
   0.00000   0.00000   0.00000  -0.08752   0.00000   0.00000  -0.17020   0.00000  -0.00000   0.00000   0.00000   0.00000 ...
   0.00000   0.00000   0.00000   0.00000  -0.08752   0.00000   0.00000  -0.17020   0.00000  -0.00000   0.00000   0.00000 ...
   0.00000   0.00000  -0.17020   0.00000   0.00000   0.38913   0.00000   0.00000   0.00000   0.00000   0.00000   0.00000 ...
   0.00000   0.00000   0.00000  -0.17020   0.00000   0.00000   0.38913   0.00000   0.00000   0.00000   0.00000   0.00000 ...
   0.00000   0.00000   0.00000   0.00000  -0.17020   0.00000   0.00000   0.38913   0.00000   0.00000   0.00000   0.00000 ...
   0.00000   0.00000   0.00000  -0.00000   0.00000   0.00000   0.00000   0.00000   0.00608   0.00000   0.00000   0.00000 ...
   0.00000   0.00000   0.00000   0.00000  -0.00000   0.00000   0.00000   0.00000   0.00000   0.00608   0.00000   0.00000 ...
   0.00000   0.00000   0.00000   0.00000   0.00000   0.00000   0.00000   0.00000   0.00000   0.00000   0.00608   0.00000 ...
   0.00000   0.00000  -0.00000   0.00000   0.00000   0.00000   0.00000   0.00000   0.00000   0.00000   0.00000   0.00608 ...
   ...  only 12  components have been written...
 Atom #  9
   3.01824  -0.87792   0.00000   0.00000   0.00000   0.00000   0.00000   0.00000   0.00000   0.00000   0.00000   0.00000 ...
  -0.87792   0.26204   0.00000   0.00000   0.00000   0.00000   0.00000   0.00000   0.00000   0.00000   0.00000   0.00000 ...
   0.00000   0.00000   0.28974   0.00000   0.00000  -0.05963   0.00000   0.00000   0.00000   0.00000   0.00000   0.00000 ...
   0.00000   0.00000   0.00000   0.28974   0.00000   0.00000  -0.05963   0.00000   0.00000   0.00000   0.00000   0.00000 ...
   0.00000   0.00000   0.00000   0.00000   0.28974   0.00000   0.00000  -0.05963   0.00000   0.00000   0.00000   0.00000 ...
   0.00000   0.00000  -0.05963   0.00000   0.00000   0.01609   0.00000   0.00000   0.00000   0.00000   0.00000   0.00000 ...
   0.00000   0.00000   0.00000  -0.05963   0.00000   0.00000   0.01609   0.00000   0.00000   0.00000   0.00000   0.00000 ...
   0.00000   0.00000   0.00000   0.00000  -0.05963   0.00000   0.00000   0.01609   0.00000   0.00000   0.00000   0.00000 ...
   0.00000   0.00000   0.00000   0.00000   0.00000   0.00000   0.00000   0.00000   0.00865   0.00000   0.00000   0.00000 ...
   0.00000   0.00000   0.00000   0.00000   0.00000   0.00000   0.00000   0.00000   0.00000   0.00865   0.00000   0.00000 ...
   0.00000   0.00000   0.00000   0.00000   0.00000   0.00000   0.00000   0.00000   0.00000   0.00000   0.00874   0.00000 ...
   0.00000   0.00000   0.00000   0.00000   0.00000   0.00000   0.00000   0.00000   0.00000   0.00000   0.00000   0.00865 ...
   ...  only 12  components have been written...


 Augmentation waves occupancies Rhoij:
 Atom #  1
   2.00034  -0.00910   0.00000   0.00000   0.00000   0.00000   0.00000   0.00000   0.00000   0.00000   0.00000   0.00000 ...
  -0.00910   0.18206   0.00000   0.00000   0.00000   0.00000   0.00000   0.00000   0.00000   0.00000   0.00000   0.00000 ...
   0.00000   0.00000   2.01285   0.00000   0.00000  -0.00484   0.00000   0.00000   0.00000   0.00000   0.00000  -0.00216 ...
   0.00000   0.00000   0.00000   2.01285   0.00000   0.00000  -0.00484   0.00000  -0.00216   0.00000   0.00000   0.00000 ...
   0.00000   0.00000   0.00000   0.00000   2.01285   0.00000   0.00000  -0.00484   0.00000  -0.00216   0.00000   0.00000 ...
   0.00000   0.00000  -0.00484   0.00000   0.00000   0.00015   0.00000   0.00000   0.00000   0.00000   0.00000  -0.00015 ...
   0.00000   0.00000   0.00000  -0.00484   0.00000   0.00000   0.00015   0.00000  -0.00015   0.00000   0.00000   0.00000 ...
   0.00000   0.00000   0.00000   0.00000  -0.00484   0.00000   0.00000   0.00015   0.00000  -0.00015   0.00000   0.00000 ...
   0.00000   0.00000   0.00000  -0.00216   0.00000   0.00000  -0.00015   0.00000   0.06858   0.00000   0.00000   0.00000 ...
   0.00000   0.00000   0.00000   0.00000  -0.00216   0.00000   0.00000  -0.00015   0.00000   0.06858   0.00000   0.00000 ...
   0.00000   0.00000   0.00000   0.00000   0.00000   0.00000   0.00000   0.00000   0.00000   0.00000   0.04302   0.00000 ...
   0.00000   0.00000  -0.00216   0.00000   0.00000  -0.00015   0.00000   0.00000   0.00000   0.00000   0.00000   0.06858 ...
   ...  only 12  components have been written...
 Atom #  9
   1.99336  -0.07063   0.00000   0.00000   0.00000   0.00000   0.00000   0.00000   0.00000   0.00000   0.00000   0.00000 ...
  -0.07063   1.09013   0.00000   0.00000   0.00000   0.00000   0.00000   0.00000   0.00000   0.00000   0.00000   0.00000 ...
   0.00000   0.00000   1.96559   0.00000   0.00000  -0.21070   0.00000   0.00000   0.00000   0.00000   0.00000   0.00000 ...
   0.00000   0.00000   0.00000   1.96559   0.00000   0.00000  -0.21070   0.00000   0.00000   0.00000   0.00000   0.00000 ...
   0.00000   0.00000   0.00000   0.00000   1.96559   0.00000   0.00000  -0.21070   0.00000   0.00000   0.00000   0.00000 ...
   0.00000   0.00000  -0.21070   0.00000   0.00000   1.89342   0.00000   0.00000   0.00000   0.00000   0.00000   0.00000 ...
   0.00000   0.00000   0.00000  -0.21070   0.00000   0.00000   1.89342   0.00000   0.00000   0.00000   0.00000   0.00000 ...
   0.00000   0.00000   0.00000   0.00000  -0.21070   0.00000   0.00000   1.89342   0.00000   0.00000   0.00000   0.00000 ...
   0.00000   0.00000   0.00000   0.00000   0.00000   0.00000   0.00000   0.00000   0.55292   0.00000   0.00000   0.00000 ...
   0.00000   0.00000   0.00000   0.00000   0.00000   0.00000   0.00000   0.00000   0.00000   0.55292   0.00000   0.00000 ...
   0.00000   0.00000   0.00000   0.00000   0.00000   0.00000   0.00000   0.00000   0.00000   0.00000   1.65413   0.00000 ...
   0.00000   0.00000   0.00000   0.00000   0.00000   0.00000   0.00000   0.00000   0.00000   0.00000   0.00000   0.55292 ...
   ...  only 12  components have been written...



---OUTPUT-----------------------------------------------------------------------

 Cartesian coordinates (xcart) [bohr]
  4.73545603218549E+00  4.73545603218549E+00  4.73545603218549E+00
  1.42063680965565E+01  1.42063680965565E+01  1.42063680965565E+01
  9.47091206437097E+00  9.47091206437097E+00  4.65356190437234E+00
  9.47091206437097E+00  9.47091206437097E+00  1.42882622243696E+01
  1.42882622243696E+01  9.47091206437097E+00  9.47091206437097E+00
  9.47091206437097E+00  1.42882622243696E+01  9.47091206437097E+00
  9.47091206437097E+00  4.65356190437234E+00  9.47091206437097E+00
  4.65356190437234E+00  9.47091206437097E+00  9.47091206437097E+00
 -2.38637558143062E-18  8.22751946825061E-18  1.38803221713554E-18
 Reduced coordinates (xred)
  2.50000000000000E-01  2.50000000000000E-01  2.50000000000000E-01
  7.50000000000000E-01  7.50000000000000E-01  7.50000000000000E-01
  2.45676544811284E-01  2.45676544811284E-01  7.54323455188716E-01
  7.54323455188716E-01  7.54323455188716E-01  2.45676544811284E-01
  2.45676544811284E-01  7.54323455188716E-01  7.54323455188716E-01
  7.54323455188716E-01  2.45676544811284E-01  7.54323455188716E-01
  2.45676544811284E-01  7.54323455188716E-01  2.45676544811284E-01
  7.54323455188716E-01  2.45676544811284E-01  2.45676544811284E-01
  6.33620457314102E-19 -4.87063060550042E-19  2.35094130291675E-19
 Cartesian forces (fcart) [Ha/bohr]; max,rms= 4.75295E-04 2.24056E-04 (free atoms)
  1.45565109768191E-26  1.10066724221163E-20 -1.11112001975293E-20
 -0.00000000000000E+00  1.10066869786272E-20 -1.11112147540403E-20
 -4.76855496441813E-20  5.67842856160549E-20  4.75294955891017E-04
  1.01895658268456E-19 -8.89810202830756E-20 -4.75294955891017E-04
 -4.75294955891017E-04 -4.41441716243652E-20  4.40396438489522E-20
 -9.36003444090522E-21 -4.75294955891017E-04 -1.75118031313505E-21
  9.36003444090522E-21  4.75294955891017E-04 -2.04712491949455E-20
  4.75294955891017E-04  2.03667214195325E-20 -2.04712491949455E-20
 -0.00000000000000E+00  1.10066869786272E-20 -1.11112147540403E-20
 Reduced forces (fred)
  9.89973369221102E-22  1.05233062136986E-19 -1.04243364494636E-19
  9.89973369221103E-22  1.05233337863857E-19 -1.04243364494636E-19
 -4.50147673188290E-03 -4.50147673188290E-03 -8.61733282865440E-20
  4.50147673188290E-03  4.50147673188290E-03 -1.22313400702727E-19
  9.89973369221085E-22  4.50147673188290E-03  4.50147673188290E-03
  4.50147673188290E-03  1.05233337863857E-19  4.50147673188290E-03
 -4.50147673188290E-03  1.05233337863857E-19 -4.50147673188290E-03
  9.89973369221125E-22 -4.50147673188290E-03 -4.50147673188290E-03
  9.89973369221103E-22  1.05233337863857E-19 -1.04243364494636E-19
 Scale of Primitive Cell (acell) [bohr]
  1.33938922894110E+01  1.33938922894110E+01  1.33938922894110E+01
 Real space primitive translations (rprimd) [bohr]
  0.00000000000000E+00  9.47091206437097E+00  9.47091206437097E+00
  9.47091206437097E+00  0.00000000000000E+00  9.47091206437097E+00
  9.47091206437097E+00  9.47091206437097E+00  0.00000000000000E+00
 Unitary Cell Volume (ucvol) [Bohr^3]=  1.69904706178976E+03
 Angles (23,13,12)= [degrees]
  6.00000000000000E+01  6.00000000000000E+01  6.00000000000000E+01
 Lengths [Bohr]
  1.33938922894764E+01  1.33938922894764E+01  1.33938922894764E+01
 Stress tensor in cartesian coordinates (strten) [Ha/bohr^3]
 -1.23534078080820E-04  0.00000000000000E+00  0.00000000000000E+00
  0.00000000000000E+00 -1.23534078080822E-04  0.00000000000000E+00
  0.00000000000000E+00  0.00000000000000E+00 -1.23534078080821E-04
 Total energy (etotal) [Ha]= -1.79806632940571E+02

 Difference of energy with previous step (new-old):
           Absolute (Ha)=-1.71971E-06
           Relative     =-9.56420E-09

--- Iteration: (   3/1000) Internal Cycle: (1/1)
--------------------------------------------------------------------------------

---SELF-CONSISTENT-FIELD CONVERGENCE--------------------------------------------

--- !BeginCycle
iteration_state: {dtset: 1, itime: 3, icycle: 1, }
solver: {iscf: 17, nstep: 2500, nline: 4, wfoptalg: 10, }
tolerances: {toldff: 1.00E-08, }
...

     iter   Etot(hartree)      deltaE(h)  residm     nres2    diffor    maxfor
 ETOT  1  -179.80690027726    -1.798E+02 3.695E-06 5.504E-02 2.624E-02 2.671E-02
 ETOT  2  -179.80665836570     2.419E-04 2.622E-06 8.797E-03 2.943E-02 2.719E-03
 ETOT  3  -179.80663828253     2.008E-05 2.794E-06 6.372E-04 4.290E-03 1.571E-03
 ETOT  4  -179.80663752163     7.609E-07 1.506E-06 9.646E-05 1.200E-03 3.706E-04
 ETOT  5  -179.80663749974     2.188E-08 2.606E-06 3.237E-05 1.150E-04 2.556E-04
 ETOT  6  -179.80663757659    -7.685E-08 1.388E-06 3.367E-06 1.831E-04 7.244E-05
 ETOT  7  -179.80663760959    -3.300E-08 2.499E-06 4.054E-07 5.633E-05 1.610E-05
 ETOT  8  -179.80663761664    -7.058E-09 1.308E-06 4.814E-08 1.404E-05 2.065E-06
 ETOT  9  -179.80663761721    -5.658E-10 2.412E-06 5.777E-09 9.167E-07 2.981E-06
 ETOT 10  -179.80663761699     2.206E-10 1.257E-06 5.812E-10 1.269E-06 1.713E-06
 ETOT 11  -179.80663761682     1.686E-10 2.320E-06 4.055E-11 2.138E-07 1.926E-06
 ETOT 12  -179.80663761684    -1.830E-11 1.206E-06 4.538E-12 6.236E-08 1.989E-06
 ETOT 13  -179.80663761688    -4.022E-11 2.225E-06 1.205E-12 1.950E-08 1.969E-06
 ETOT 14  -179.80663761690    -1.793E-11 1.155E-06 8.641E-14 7.510E-09 1.977E-06
 ETOT 15  -179.80663761692    -2.424E-11 2.127E-06 1.051E-14 2.522E-09 1.974E-06

 At SCF step   15, forces are converged : 
  for the second time, max diff in force=  2.522E-09 < toldff=  1.000E-08

 Cartesian components of stress tensor (hartree/bohr^3)
  sigma(1 1)= -1.21428524E-04  sigma(3 2)=  0.00000000E+00
  sigma(2 2)= -1.21428524E-04  sigma(3 1)=  0.00000000E+00
  sigma(3 3)= -1.21428524E-04  sigma(2 1)=  0.00000000E+00


--- !ResultsGS
iteration_state: {dtset: 1, itime: 3, icycle: 1, }
comment   : Summary of ground state results
lattice_vectors:
- [  0.0000000,   9.4709121,   9.4709121, ]
- [  9.4709121,   0.0000000,   9.4709121, ]
- [  9.4709121,   9.4709121,   0.0000000, ]
lattice_lengths: [  13.39389,   13.39389,   13.39389, ]
lattice_angles: [ 60.000,  60.000,  60.000, ] # degrees, (23, 13, 12)
lattice_volume:   1.6990471E+03
convergence: {deltae: -2.424E-11, res2:  1.051E-14, residm:  2.127E-06, diffor:  2.522E-09, }
etotal    :  -1.79806638E+02
entropy   :   0.00000000E+00
fermie    :   3.97274074E-02
cartesian_stress_tensor: # hartree/bohr^3
- [ -1.21428524E-04,   0.00000000E+00,   0.00000000E+00, ]
- [  0.00000000E+00,  -1.21428524E-04,   0.00000000E+00, ]
- [  0.00000000E+00,   0.00000000E+00,  -1.21428524E-04, ]
pressure_GPa:   3.5725E+00
xred      :
- [  2.5000E-01,   2.5000E-01,   2.5000E-01, Cs]
- [  7.5000E-01,   7.5000E-01,   7.5000E-01, Cs]
- [  2.4585E-01,   2.4585E-01,   7.5415E-01, Cl]
- [  7.5415E-01,   7.5415E-01,   2.4585E-01, Cl]
- [  2.4585E-01,   7.5415E-01,   7.5415E-01, Cl]
- [  7.5415E-01,   2.4585E-01,   7.5415E-01, Cl]
- [  2.4585E-01,   7.5415E-01,   2.4585E-01, Cl]
- [  7.5415E-01,   2.4585E-01,   2.4585E-01, Cl]
- [  6.3383E-19,  -4.8567E-19,   2.3487E-19, Zr]
cartesian_forces: # hartree/bohr
- [  2.03791154E-25,  -1.82184409E-24,   3.20243241E-25, ]
- [ -2.62017198E-25,  -1.23958365E-24,  -2.62017198E-25, ]
- [ -1.35144076E-23,   1.20128068E-23,   1.97413809E-06, ]
- [  1.35144076E-23,  -1.50160085E-23,  -1.97413809E-06, ]
- [ -1.97413809E-06,  -1.50160085E-23,   1.35144076E-23, ]
- [ -1.35144076E-23,  -1.97413809E-06,   1.35144076E-23, ]
- [  1.35144076E-23,   1.97413809E-06,  -1.35144076E-23, ]
- [  1.97413809E-06,   1.20128068E-23,  -1.35144076E-23, ]
- [ -0.00000000E+00,  -1.50160085E-24,  -0.00000000E+00, ]
force_length_stats: {min:   1.29378269E-24, max:   1.97413809E-06, mean:   1.31609206E-06, }
...

 Integrated electronic density in atomic spheres:
 ------------------------------------------------
 Atom  Sphere_radius  Integrated_density
    1        2.20660          5.37115262
    2        2.20660          5.37115262
    3        1.80316          4.37794339
    4        1.80316          4.37794339
    5        1.80316          4.37794339
    6        1.80316          4.37794339
    7        1.80316          4.37794339
    8        1.80316          4.37794339
    9        2.21000          8.84402871

 PAW TEST:
 ==== Compensation charge inside spheres ============
 The following values must be close to each other ...
 Compensation charge over spherical meshes =     -6.092498537987364
 Compensation charge over fine fft grid    =     -6.092489911323941

 ==== Results concerning PAW augmentation regions ====

 Total pseudopotential strength Dij (hartree):
 Atom #  1
   0.39099  -0.12975   0.00000   0.00000   0.00000   0.00000   0.00000   0.00000   0.00000   0.00000   0.00000   0.00000 ...
  -0.12975   0.03874   0.00000   0.00000   0.00000   0.00000   0.00000   0.00000   0.00000   0.00000   0.00000   0.00000 ...
   0.00000   0.00000  -0.08752   0.00000   0.00000  -0.17020   0.00000   0.00000   0.00000   0.00000   0.00000  -0.00000 ...
   0.00000   0.00000   0.00000  -0.08752   0.00000   0.00000  -0.17020   0.00000  -0.00000   0.00000   0.00000   0.00000 ...
   0.00000   0.00000   0.00000   0.00000  -0.08752   0.00000   0.00000  -0.17020   0.00000  -0.00000   0.00000   0.00000 ...
   0.00000   0.00000  -0.17020   0.00000   0.00000   0.38912   0.00000   0.00000   0.00000   0.00000   0.00000   0.00000 ...
   0.00000   0.00000   0.00000  -0.17020   0.00000   0.00000   0.38912   0.00000   0.00000   0.00000   0.00000   0.00000 ...
   0.00000   0.00000   0.00000   0.00000  -0.17020   0.00000   0.00000   0.38912   0.00000   0.00000   0.00000   0.00000 ...
   0.00000   0.00000   0.00000  -0.00000   0.00000   0.00000   0.00000   0.00000   0.00608   0.00000   0.00000   0.00000 ...
   0.00000   0.00000   0.00000   0.00000  -0.00000   0.00000   0.00000   0.00000   0.00000   0.00608   0.00000   0.00000 ...
   0.00000   0.00000   0.00000   0.00000   0.00000   0.00000   0.00000   0.00000   0.00000   0.00000   0.00608   0.00000 ...
   0.00000   0.00000  -0.00000   0.00000   0.00000   0.00000   0.00000   0.00000   0.00000   0.00000   0.00000   0.00608 ...
   ...  only 12  components have been written...
 Atom #  9
   3.01844  -0.87798   0.00000   0.00000   0.00000   0.00000   0.00000   0.00000   0.00000   0.00000   0.00000   0.00000 ...
  -0.87798   0.26206   0.00000   0.00000   0.00000   0.00000   0.00000   0.00000   0.00000   0.00000   0.00000   0.00000 ...
   0.00000   0.00000   0.28969   0.00000   0.00000  -0.05962   0.00000   0.00000   0.00000   0.00000   0.00000   0.00000 ...
   0.00000   0.00000   0.00000   0.28969   0.00000   0.00000  -0.05962   0.00000   0.00000   0.00000   0.00000   0.00000 ...
   0.00000   0.00000   0.00000   0.00000   0.28969   0.00000   0.00000  -0.05962   0.00000   0.00000   0.00000   0.00000 ...
   0.00000   0.00000  -0.05962   0.00000   0.00000   0.01609   0.00000   0.00000   0.00000   0.00000   0.00000   0.00000 ...
   0.00000   0.00000   0.00000  -0.05962   0.00000   0.00000   0.01609   0.00000   0.00000   0.00000   0.00000   0.00000 ...
   0.00000   0.00000   0.00000   0.00000  -0.05962   0.00000   0.00000   0.01609   0.00000   0.00000   0.00000   0.00000 ...
   0.00000   0.00000   0.00000   0.00000   0.00000   0.00000   0.00000   0.00000   0.00859   0.00000   0.00000   0.00000 ...
   0.00000   0.00000   0.00000   0.00000   0.00000   0.00000   0.00000   0.00000   0.00000   0.00859   0.00000   0.00000 ...
   0.00000   0.00000   0.00000   0.00000   0.00000   0.00000   0.00000   0.00000   0.00000   0.00000   0.00868   0.00000 ...
   0.00000   0.00000   0.00000   0.00000   0.00000   0.00000   0.00000   0.00000   0.00000   0.00000   0.00000   0.00859 ...
   ...  only 12  components have been written...


 Augmentation waves occupancies Rhoij:
 Atom #  1
   2.00034  -0.00909   0.00000   0.00000   0.00000   0.00000   0.00000   0.00000   0.00000   0.00000   0.00000   0.00000 ...
  -0.00909   0.18216   0.00000   0.00000   0.00000   0.00000   0.00000   0.00000   0.00000   0.00000   0.00000   0.00000 ...
   0.00000   0.00000   2.01285   0.00000   0.00000  -0.00484   0.00000   0.00000   0.00000   0.00000   0.00000  -0.00221 ...
   0.00000   0.00000   0.00000   2.01285   0.00000   0.00000  -0.00484   0.00000  -0.00221   0.00000   0.00000   0.00000 ...
   0.00000   0.00000   0.00000   0.00000   2.01285   0.00000   0.00000  -0.00484   0.00000  -0.00221   0.00000   0.00000 ...
   0.00000   0.00000  -0.00484   0.00000   0.00000   0.00015   0.00000   0.00000   0.00000   0.00000   0.00000  -0.00015 ...
   0.00000   0.00000   0.00000  -0.00484   0.00000   0.00000   0.00015   0.00000  -0.00015   0.00000   0.00000   0.00000 ...
   0.00000   0.00000   0.00000   0.00000  -0.00484   0.00000   0.00000   0.00015   0.00000  -0.00015   0.00000   0.00000 ...
[...]
                       4.9716563481E+00  2.4603636479E+00  4.9716563481E+00
                       2.4603636479E+00  4.9716563481E+00  4.9716563481E+00
                      -9.2986335015E-19  4.6631707349E-18  2.6706109952E-19
           xangst10    2.4833197702E+00  2.4833197702E+00  2.4833197702E+00
                       7.4499593107E+00  7.4499593107E+00  7.4499593107E+00
                       4.9666395405E+00  4.9666395405E+00  2.4598248457E+00
                       4.9666395405E+00  4.9666395405E+00  7.4734542352E+00
                       7.4734542352E+00  4.9666395405E+00  4.9666395405E+00
                       4.9666395405E+00  7.4734542352E+00  4.9666395405E+00
                       4.9666395405E+00  2.4598248457E+00  4.9666395405E+00
                       2.4598248457E+00  4.9666395405E+00  4.9666395405E+00
                      -9.5056500435E-19  4.3122941061E-18  9.5680792951E-19
            xcart1     4.7354560322E+00  4.7354560322E+00  4.7354560322E+00
                       1.4206368097E+01  1.4206368097E+01  1.4206368097E+01
                       9.4709120644E+00  9.4709120644E+00  4.6568343654E+00
                       9.4709120644E+00  9.4709120644E+00  1.4284989763E+01
                       1.4284989763E+01  9.4709120644E+00  9.4709120644E+00
                       9.4709120644E+00  1.4284989763E+01  9.4709120644E+00
                       9.4709120644E+00  4.6568343654E+00  9.4709120644E+00
                       4.6568343654E+00  9.4709120644E+00  9.4709120644E+00
                      -2.3753239937E-18  8.2273166558E-18  1.4032186225E-18
            xcart2     4.7307158360E+00  4.7307158360E+00  4.7307158360E+00
                       1.4192147508E+01  1.4192147508E+01  1.4192147508E+01
                       9.4614316719E+00  9.4614316719E+00  4.6559147567E+00
                       9.4614316719E+00  9.4614316719E+00  1.4266948587E+01
                       1.4266948587E+01  9.4614316719E+00  9.4614316719E+00
                       9.4614316719E+00  1.4266948587E+01  9.4614316719E+00
                       9.4614316719E+00  4.6559147567E+00  9.4614316719E+00
                       4.6559147567E+00  9.4614316719E+00  9.4614316719E+00
                      -2.2857127157E-18  8.4444313595E-18  1.3624052626E-18
            xcart3     4.7259756397E+00  4.7259756397E+00  4.7259756397E+00
                       1.4177926919E+01  1.4177926919E+01  1.4177926919E+01
                       9.4519512795E+00  9.4519512795E+00  4.6550834960E+00
                       9.4519512795E+00  9.4519512795E+00  1.4248819063E+01
                       1.4248819063E+01  9.4519512795E+00  9.4519512795E+00
                       9.4519512795E+00  1.4248819063E+01  9.4519512795E+00
                       9.4519512795E+00  4.6550834960E+00  9.4519512795E+00
                       4.6550834960E+00  9.4519512795E+00  9.4519512795E+00
                      -2.4744352244E-18  8.1946974465E-18  1.3909179919E-18
            xcart4     4.7212354435E+00  4.7212354435E+00  4.7212354435E+00
                       1.4163706331E+01  1.4163706331E+01  1.4163706331E+01
                       9.4424708870E+00  9.4424708870E+00  4.6542184333E+00
                       9.4424708870E+00  9.4424708870E+00  1.4230723341E+01
                       1.4230723341E+01  9.4424708870E+00  9.4424708870E+00
                       9.4424708870E+00  1.4230723341E+01  9.4424708870E+00
                       9.4424708870E+00  4.6542184333E+00  9.4424708870E+00
                       4.6542184333E+00  9.4424708870E+00  9.4424708870E+00
                      -2.3704977674E-18  8.2053451477E-18  1.3940588107E-18
            xcart5     4.7164952473E+00  4.7164952473E+00  4.7164952473E+00
                       1.4149485742E+01  1.4149485742E+01  1.4149485742E+01
                       9.4329904945E+00  9.4329904945E+00  4.6533207479E+00
                       9.4329904945E+00  9.4329904945E+00  1.4212660241E+01
                       1.4212660241E+01  9.4329904945E+00  9.4329904945E+00
                       9.4329904945E+00  1.4212660241E+01  9.4329904945E+00
                       9.4329904945E+00  4.6533207479E+00  9.4329904945E+00
                       4.6533207479E+00  9.4329904945E+00  9.4329904945E+00
                      -2.3332360709E-18  8.6003535840E-18  2.8376050964E-19
            xcart6     4.7117550510E+00  4.7117550510E+00  4.7117550510E+00
                       1.4135265153E+01  1.4135265153E+01  1.4135265153E+01
                       9.4235101021E+00  9.4235101021E+00  4.6523962580E+00
                       9.4235101021E+00  9.4235101021E+00  1.4194623946E+01
                       1.4194623946E+01  9.4235101021E+00  9.4235101021E+00
                       9.4235101021E+00  1.4194623946E+01  9.4235101021E+00
                       9.4235101021E+00  4.6523962580E+00  9.4235101021E+00
                       4.6523962580E+00  9.4235101021E+00  9.4235101021E+00
                      -2.5067956826E-18  7.9274961568E-18  1.5430398388E-18
            xcart7     4.7070148548E+00  4.7070148548E+00  4.7070148548E+00
                       1.4121044564E+01  1.4121044564E+01  1.4121044564E+01
                       9.4140297096E+00  9.4140297096E+00  4.6514026497E+00
                       9.4140297096E+00  9.4140297096E+00  1.4176656770E+01
                       1.4176656770E+01  9.4140297096E+00  9.4140297096E+00
                       9.4140297096E+00  1.4176656770E+01  9.4140297096E+00
                       9.4140297096E+00  4.6514026497E+00  9.4140297096E+00
                       4.6514026497E+00  9.4140297096E+00  9.4140297096E+00
                      -2.6237536330E-18  7.3229493617E-18  1.6573835970E-18
            xcart8     4.7022746586E+00  4.7022746586E+00  4.7022746586E+00
                       1.4106823976E+01  1.4106823976E+01  1.4106823976E+01
                       9.4045493172E+00  9.4045493172E+00  4.6504169019E+00
                       9.4045493172E+00  9.4045493172E+00  1.4158681732E+01
                       1.4158681732E+01  9.4045493172E+00  9.4045493172E+00
                       9.4045493172E+00  1.4158681732E+01  9.4045493172E+00
                       9.4045493172E+00  4.6504169019E+00  9.4045493172E+00
                       4.6504169019E+00  9.4045493172E+00  9.4045493172E+00
                      -2.3590909301E-18  8.1711002920E-18  1.3949187384E-18
            xcart9     4.6975344624E+00  4.6975344624E+00  4.6975344624E+00
                       1.4092603387E+01  1.4092603387E+01  1.4092603387E+01
                       9.3950689247E+00  9.3950689247E+00  4.6494134818E+00
                       9.3950689247E+00  9.3950689247E+00  1.4140724368E+01
                       1.4140724368E+01  9.3950689247E+00  9.3950689247E+00
                       9.3950689247E+00  1.4140724368E+01  9.3950689247E+00
                       9.3950689247E+00  4.6494134818E+00  9.3950689247E+00
                       4.6494134818E+00  9.3950689247E+00  9.3950689247E+00
                      -1.7571870728E-18  8.8121155998E-18  5.0467233885E-19
            xcart10    4.6927942661E+00  4.6927942661E+00  4.6927942661E+00
                       1.4078382798E+01  1.4078382798E+01  1.4078382798E+01
                       9.3855885323E+00  9.3855885323E+00  4.6483952933E+00
                       9.3855885323E+00  9.3855885323E+00  1.4122781771E+01
                       1.4122781771E+01  9.3855885323E+00  9.3855885323E+00
                       9.3855885323E+00  1.4122781771E+01  9.3855885323E+00
                       9.3855885323E+00  4.6483952933E+00  9.3855885323E+00
                       4.6483952933E+00  9.3855885323E+00  9.3855885323E+00
                      -1.7963075297E-18  8.1490548650E-18  1.8081049486E-18
             xred1     2.5000000000E-01  2.5000000000E-01  2.5000000000E-01
                       7.5000000000E-01  7.5000000000E-01  7.5000000000E-01
                       2.4584930858E-01  2.4584930858E-01  7.5415069142E-01
                       7.5415069142E-01  7.5415069142E-01  2.4584930858E-01
                       2.4584930858E-01  7.5415069142E-01  7.5415069142E-01
                       7.5415069142E-01  2.4584930858E-01  7.5415069142E-01
                       2.4584930858E-01  7.5415069142E-01  2.4584930858E-01
                       7.5415069142E-01  2.4584930858E-01  2.4584930858E-01
                       6.3382804055E-19 -4.8566716513E-19  2.3486513281E-19
             xred2     2.5000000000E-01  2.5000000000E-01  2.5000000000E-01
                       7.5000000000E-01  7.5000000000E-01  7.5000000000E-01
                       2.4604705282E-01  2.4604705282E-01  7.5395294718E-01
                       7.5395294718E-01  7.5395294718E-01  2.4604705282E-01
                       2.4604705282E-01  7.5395294718E-01  7.5395294718E-01
                       7.5395294718E-01  2.4604705282E-01  7.5395294718E-01
                       2.4604705282E-01  7.5395294718E-01  2.4604705282E-01
                       7.5395294718E-01  2.4604705282E-01  2.4604705282E-01
                       6.3904437283E-19 -4.9504869545E-19  2.5346657607E-19
             xred3     2.5000000000E-01  2.5000000000E-01  2.5000000000E-01
                       7.5000000000E-01  7.5000000000E-01  7.5000000000E-01
                       2.4624986727E-01  2.4624986727E-01  7.5375013273E-01
                       7.5375013273E-01  7.5375013273E-01  2.4624986727E-01
                       2.4624986727E-01  7.5375013273E-01  7.5375013273E-01
                       7.5375013273E-01  2.4624986727E-01  7.5375013273E-01
                       2.4624986727E-01  7.5375013273E-01  2.4624986727E-01
                       7.5375013273E-01  2.4624986727E-01  2.4624986727E-01
                       6.3796618848E-19 -4.9080948498E-19  2.2901854349E-19
             xred4     2.5000000000E-01  2.5000000000E-01  2.5000000000E-01
                       7.5000000000E-01  7.5000000000E-01  7.5000000000E-01
                       2.4645129908E-01  2.4645129908E-01  7.5354870092E-01
                       7.5354870092E-01  7.5354870092E-01  2.4645129908E-01
                       2.4645129908E-01  7.5354870092E-01  7.5354870092E-01
                       7.5354870092E-01  2.4645129908E-01  7.5354870092E-01
                       2.4645129908E-01  7.5354870092E-01  2.4645129908E-01
                       7.5354870092E-01  2.4645129908E-01  2.4645129908E-01
                       6.3383312849E-19 -4.8619605050E-19  2.3514970937E-19
             xred5     2.5000000000E-01  2.5000000000E-01  2.5000000000E-01
                       7.5000000000E-01  7.5000000000E-01  7.5000000000E-01
                       2.4665140660E-01  2.4665140660E-01  7.5334859340E-01
                       7.5334859340E-01  7.5334859340E-01  2.4665140660E-01
                       2.4665140660E-01  7.5334859340E-01  7.5334859340E-01
                       7.5334859340E-01  2.4665140660E-01  7.5334859340E-01
                       2.4665140660E-01  7.5334859340E-01  2.4665140660E-01
                       7.5334859340E-01  2.4665140660E-01  2.4665140660E-01
                       5.9458080505E-19 -5.6449909238E-19  3.1715059010E-19
             xred6     2.5000000000E-01  2.5000000000E-01  2.5000000000E-01
                       7.5000000000E-01  7.5000000000E-01  7.5000000000E-01
                       2.4685049454E-01  2.4685049454E-01  7.5314950546E-01
                       7.5314950546E-01  7.5314950546E-01  2.4685049454E-01
                       2.4685049454E-01  7.5314950546E-01  7.5314950546E-01
                       7.5314950546E-01  2.4685049454E-01  7.5314950546E-01
                       2.4685049454E-01  7.5314950546E-01  2.4685049454E-01
                       7.5314950546E-01  2.4685049454E-01  2.4685049454E-01
                       6.3550267089E-19 -4.7175903163E-19  2.0574396342E-19
             xred7     2.5000000000E-01  2.5000000000E-01  2.5000000000E-01
                       7.5000000000E-01  7.5000000000E-01  7.5000000000E-01
                       2.4704631243E-01  2.4704631243E-01  7.5295368757E-01
                       7.5295368757E-01  7.5295368757E-01  2.4704631243E-01
                       2.4704631243E-01  7.5295368757E-01  7.5295368757E-01
                       7.5295368757E-01  2.4704631243E-01  7.5295368757E-01
                       2.4704631243E-01  7.5295368757E-01  2.4704631243E-01
                       7.5295368757E-01  2.4704631243E-01  2.4704631243E-01
                       6.1631877897E-19 -4.4026414051E-19  1.6155738964E-19
             xred8     2.5000000000E-01  2.5000000000E-01  2.5000000000E-01
                       7.5000000000E-01  7.5000000000E-01  7.5000000000E-01
                       2.4724294302E-01  2.4724294302E-01  7.5275705698E-01
                       7.5275705698E-01  7.5275705698E-01  2.4724294302E-01
                       2.4724294302E-01  7.5275705698E-01  7.5275705698E-01
                       7.5275705698E-01  2.4724294302E-01  7.5275705698E-01
                       2.4724294302E-01  7.5275705698E-01  2.4724294302E-01
                       7.5275705698E-01  2.4724294302E-01  2.4724294302E-01
                       6.3400751904E-19 -4.8568369284E-19  2.3483797440E-19
             xred9     2.5000000000E-01  2.5000000000E-01  2.5000000000E-01
                       7.5000000000E-01  7.5000000000E-01  7.5000000000E-01
                       2.4743902993E-01  2.4743902993E-01  7.5256097007E-01
                       7.5256097007E-01  7.5256097007E-01  2.4743902993E-01
                       2.4743902993E-01  7.5256097007E-01  7.5256097007E-01
                       7.5256097007E-01  2.4743902993E-01  7.5256097007E-01
                       2.4743902993E-01  7.5256097007E-01  2.4743902993E-01
                       7.5256097007E-01  2.4743902993E-01  2.4743902993E-01
                       5.8935038690E-19 -5.3563366136E-19  3.4860075220E-19
             xred10    2.5000000000E-01  2.5000000000E-01  2.5000000000E-01
                       7.5000000000E-01  7.5000000000E-01  7.5000000000E-01
                       2.4763472622E-01  2.4763472622E-01  7.5236527378E-01
                       7.5236527378E-01  7.5236527378E-01  2.4763472622E-01
                       2.4763472622E-01  7.5236527378E-01  7.5236527378E-01
                       7.5236527378E-01  2.4763472622E-01  7.5236527378E-01
                       2.4763472622E-01  7.5236527378E-01  2.4763472622E-01
                       7.5236527378E-01  2.4763472622E-01  2.4763472622E-01
                       6.2614439696E-19 -4.3349745294E-19  2.4210748059E-19
            znucl       55.00000   17.00000   40.00000

================================================================================


- Timing analysis has been suppressed with timopt=0



================================================================================

 Suggested references for the acknowledgment of ABINIT usage.

 The users of ABINIT have little formal obligations with respect to the ABINIT group
 (those specified in the GNU General Public License, http://www.gnu.org/copyleft/gpl.txt).
 However, it is common practice in the scientific literature,
 to acknowledge the efforts of people that have made the research possible.
 In this spirit, please find below suggested citations of work written by ABINIT developers,
 corresponding to implementations inside of ABINIT that you have used in the present run.
 Note also that it will be of great value to readers of publications presenting these results,
 to read papers enabling them to understand the theoretical formalism and details
 of the ABINIT implementation.
 For information on why they are suggested, see also https://docs.abinit.org/theory/acknowledgments.
-
- [1] Implementation of the Projector Augmented-Wave Method in the ABINIT code.
- M. Torrent, F. Jollet, F. Bottin, G. Zerah, and X. Gonze Comput. Mat. Science 42, 337, (2008).
- Comment: PAW calculations. Strong suggestion to cite this paper.
- DOI and bibtex: see https://docs.abinit.org/theory/bibliography/#torrent2008
-
- [2] Libxc: A library of exchange and correlation functionals for density functional theory.
- M.A.L. Marques, M.J.T. Oliveira, T. Burnus, Computer Physics Communications 183, 2227 (2012).
- Comment: to be cited when LibXC is used (negative value of ixc)
- Strong suggestion to cite this paper.
- DOI and bibtex: see https://docs.abinit.org/theory/bibliography/#marques2012
-
- [3] The Abinit project: Impact, environment and recent developments.
- Computer Phys. Comm. 248, 107042 (2020).
- X.Gonze, B. Amadon, G. Antonius, F.Arnardi, L.Baguet, J.-M.Beuken,
- J.Bieder, F.Bottin, J.Bouchet, E.Bousquet, N.Brouwer, F.Bruneval,
- G.Brunin, T.Cavignac, J.-B. Charraud, Wei Chen, M.Cote, S.Cottenier,
- J.Denier, G.Geneste, Ph.Ghosez, M.Giantomassi, Y.Gillet, O.Gingras,
- D.R.Hamann, G.Hautier, Xu He, N.Helbig, N.Holzwarth, Y.Jia, F.Jollet,
- W.Lafargue-Dit-Hauret, K.Lejaeghere, M.A.L.Marques, A.Martin, C.Martins,
- H.P.C. Miranda, F.Naccarato, K. Persson, G.Petretto, V.Planes, Y.Pouillon,
- S.Prokhorenko, F.Ricci, G.-M.Rignanese, A.H.Romero, M.M.Schmitt, M.Torrent,
- M.J.van Setten, B.Van Troeye, M.J.Verstraete, G.Zerah and J.W.Zwanzig
- Comment: the fifth generic paper describing the ABINIT project.
- Note that a version of this paper, that is not formatted for Computer Phys. Comm. 
- is available at https://www.abinit.org/sites/default/files/ABINIT20.pdf .
- The licence allows the authors to put it on the Web.
- DOI and bibtex: see https://docs.abinit.org/theory/bibliography/#gonze2020
-
- [4] ABINIT: Overview, and focus on selected capabilities
- J. Chem. Phys. 152, 124102 (2020).
- A. Romero, D.C. Allan, B. Amadon, G. Antonius, T. Applencourt, L.Baguet,
- J.Bieder, F.Bottin, J.Bouchet, E.Bousquet, F.Bruneval,
- G.Brunin, D.Caliste, M.Cote,
- J.Denier, C. Dreyer, Ph.Ghosez, M.Giantomassi, Y.Gillet, O.Gingras,
- D.R.Hamann, G.Hautier, F.Jollet, G. Jomard,
- A.Martin, 
- H.P.C. Miranda, F.Naccarato, G.Petretto, N.A. Pike, V.Planes,
- S.Prokhorenko, T. Rangel, F.Ricci, G.-M.Rignanese, M.Royo, M.Stengel, M.Torrent,
- M.J.van Setten, B.Van Troeye, M.J.Verstraete, J.Wiktor, J.W.Zwanziger, and X.Gonze.
- Comment: a global overview of ABINIT, with focus on selected capabilities .
- Note that a version of this paper, that is not formatted for J. Chem. Phys 
- is available at https://www.abinit.org/sites/default/files/ABINIT20_JPC.pdf .
- The licence allows the authors to put it on the Web.
- DOI and bibtex: see https://docs.abinit.org/theory/bibliography/#romero2020
-
- [5] Recent developments in the ABINIT software package.
- Computer Phys. Comm. 205, 106 (2016).
- X.Gonze, F.Jollet, F.Abreu Araujo, D.Adams, B.Amadon, T.Applencourt,
- C.Audouze, J.-M.Beuken, J.Bieder, A.Bokhanchuk, E.Bousquet, F.Bruneval
- D.Caliste, M.Cote, F.Dahm, F.Da Pieve, M.Delaveau, M.Di Gennaro,
- B.Dorado, C.Espejo, G.Geneste, L.Genovese, A.Gerossier, M.Giantomassi,
- Y.Gillet, D.R.Hamann, L.He, G.Jomard, J.Laflamme Janssen, S.Le Roux,
- A.Levitt, A.Lherbier, F.Liu, I.Lukacevic, A.Martin, C.Martins,
- M.J.T.Oliveira, S.Ponce, Y.Pouillon, T.Rangel, G.-M.Rignanese,
- A.H.Romero, B.Rousseau, O.Rubel, A.A.Shukri, M.Stankovski, M.Torrent,
- M.J.Van Setten, B.Van Troeye, M.J.Verstraete, D.Waroquier, J.Wiktor,
- B.Xu, A.Zhou, J.W.Zwanziger.
- Comment: the fourth generic paper describing the ABINIT project.
- Note that a version of this paper, that is not formatted for Computer Phys. Comm. 
- is available at https://www.abinit.org/sites/default/files/ABINIT16.pdf .
- The licence allows the authors to put it on the Web.
- DOI and bibtex: see https://docs.abinit.org/theory/bibliography/#gonze2016
-
- Proc.   0 individual time (sec): cpu=       4501.0  wall=       4507.3

================================================================================

 Calculation completed.
.Delivered   0 WARNINGs and  38 COMMENTs to log file.
+Overall time at end (sec) : cpu=      18005.9  wall=      18029.1
