
.Version 9.2.2 of ABINIT 
.(MPI version, prepared for a x86_64_linux_gnu9.3 computer) 

.Copyright (C) 1998-2020 ABINIT group . 
 ABINIT comes with ABSOLUTELY NO WARRANTY.
 It is free software, and you are welcome to redistribute it
 under certain conditions (GNU General Public License,
 see ~abinit/COPYING or http://www.gnu.org/copyleft/gpl.txt).

 ABINIT is a project of the Universite Catholique de Louvain,
 Corning Inc. and other collaborators, see ~abinit/doc/developers/contributors.txt .
 Please read https://docs.abinit.org/theory/acknowledgments for suggested
 acknowledgments of the ABINIT effort.
 For more information, see https://www.abinit.org .

.Starting date : Thu 27 Oct 2022.
- ( at 04h52 )
  
- input  file    -> Cs2TiI6.in
- output file    -> Cs2TiI6.out
- root for input  files -> Cs2TiI6i
- root for output files -> Cs2TiI6o

- inpspheads : Reading pseudopotential header in XML form from 
-   ../../../Psps_for_tests/ATOMICDATA/Cs.GGA_PBE-JTH.xml
- inpspheads : Reading pseudopotential header in XML form from 
-   ../../../Psps_for_tests/ATOMICDATA/I.GGA_PBE-JTH.xml
- inpspheads : Reading pseudopotential header in XML form from 
-   ../../../Psps_for_tests/ATOMICDATA/Hf.GGA_PBE-JTH.xml
- inpspheads : Reading pseudopotential header in XML form from 
-   ../../../Psps_for_tests/ATOMICDATA/Br.GGA_PBE-JTH.xml

 DATASET    1 : space group I4 m m (#107); Bravais tI (body-center tetrag.)
================================================================================
 Values of the parameters that define the memory need for DATASET  1.
     intxc =       0    ionmov =       0      iscf =      17    lmnmax =      18
     lnmax =       6     mgfft =      60  mpssoang =       3    mqgrid =    3504
     natom =       9  nloc_mem =       2    nspden =       1   nspinor =       1
    nsppol =       1      nsym =       8    n1xccc =       1    ntypat =       4
    occopt =       1   xclevel =       2
-    mband =          42        mffmem =           1         mkmem =          28
       mpw =        7451          nfft =      216000          nkpt =         163
Pmy_natom=         2
 PAW method is used; the additional fine FFT grid is defined by:
   mgfftf=        90    nfftf =    729000
================================================================================
P This job should need less than                     361.362 Mbytes of memory.
  Rough estimation (10% accuracy) of disk space for files :
_ WF disk file :    778.346 Mbytes ; DEN or POT disk file :      5.564 Mbytes.
================================================================================


 DATASET    2 : space group I4 m m (#107); Bravais tI (body-center tetrag.)
================================================================================
 Values of the parameters that define the memory need for DATASET  2.
     intxc =       0    ionmov =       0      iscf =      17    lmnmax =      18
     lnmax =       6     mgfft =      54  mpssoang =       3    mqgrid =    3469
     natom =       9  nloc_mem =       2    nspden =       1   nspinor =       1
    nsppol =       1      nsym =       8    n1xccc =       1    ntypat =       4
    occopt =       1   xclevel =       2
-    mband =          42        mffmem =           1         mkmem =          28
       mpw =        7222          nfft =      157464          nkpt =         163
Pmy_natom=         2
 PAW method is used; the additional fine FFT grid is defined by:
   mgfftf=        90    nfftf =    729000
================================================================================
P This job should need less than                     348.141 Mbytes of memory.
  Rough estimation (10% accuracy) of disk space for files :
_ WF disk file :    754.424 Mbytes ; DEN or POT disk file :      5.564 Mbytes.
================================================================================


 DATASET    3 : space group I4 m m (#107); Bravais tI (body-center tetrag.)
================================================================================
 Values of the parameters that define the memory need for DATASET  3.
     intxc =       0    ionmov =       0      iscf =      17    lmnmax =      18
     lnmax =       6     mgfft =      54  mpssoang =       3    mqgrid =    3433
     natom =       9  nloc_mem =       2    nspden =       1   nspinor =       1
    nsppol =       1      nsym =       8    n1xccc =       1    ntypat =       4
    occopt =       1   xclevel =       2
-    mband =          42        mffmem =           1         mkmem =          28
       mpw =        6987          nfft =      157464          nkpt =         163
Pmy_natom=         2
 PAW method is used; the additional fine FFT grid is defined by:
   mgfftf=        90    nfftf =    729000
================================================================================
P This job should need less than                     343.517 Mbytes of memory.
  Rough estimation (10% accuracy) of disk space for files :
_ WF disk file :    729.876 Mbytes ; DEN or POT disk file :      5.564 Mbytes.
================================================================================


 DATASET    4 : space group I4 m m (#107); Bravais tI (body-center tetrag.)
================================================================================
 Values of the parameters that define the memory need for DATASET  4.
     intxc =       0    ionmov =       0      iscf =      17    lmnmax =      18
     lnmax =       6     mgfft =      54  mpssoang =       3    mqgrid =    3398
     natom =       9  nloc_mem =       2    nspden =       1   nspinor =       1
    nsppol =       1      nsym =       8    n1xccc =       1    ntypat =       4
    occopt =       1   xclevel =       2
-    mband =          42        mffmem =           1         mkmem =          28
       mpw =        6781          nfft =      157464          nkpt =         163
Pmy_natom=         2
 PAW method is used; the additional fine FFT grid is defined by:
   mgfftf=        90    nfftf =    729000
================================================================================
P This job should need less than                     339.484 Mbytes of memory.
  Rough estimation (10% accuracy) of disk space for files :
_ WF disk file :    708.357 Mbytes ; DEN or POT disk file :      5.564 Mbytes.
================================================================================


 DATASET    5 : space group I4 m m (#107); Bravais tI (body-center tetrag.)
================================================================================
 Values of the parameters that define the memory need for DATASET  5.
     intxc =       0    ionmov =       0      iscf =      17    lmnmax =      18
     lnmax =       6     mgfft =      54  mpssoang =       3    mqgrid =    3363
     natom =       9  nloc_mem =       2    nspden =       1   nspinor =       1
    nsppol =       1      nsym =       8    n1xccc =       1    ntypat =       4
    occopt =       1   xclevel =       2
-    mband =          42        mffmem =           1         mkmem =          28
       mpw =        6604          nfft =      157464          nkpt =         163
Pmy_natom=         2
 PAW method is used; the additional fine FFT grid is defined by:
   mgfftf=        90    nfftf =    729000
================================================================================
P This job should need less than                     336.043 Mbytes of memory.
  Rough estimation (10% accuracy) of disk space for files :
_ WF disk file :    689.867 Mbytes ; DEN or POT disk file :      5.564 Mbytes.
================================================================================


 DATASET    6 : space group I4 m m (#107); Bravais tI (body-center tetrag.)
================================================================================
 Values of the parameters that define the memory need for DATASET  6.
     intxc =       0    ionmov =       0      iscf =      17    lmnmax =      18
     lnmax =       6     mgfft =      54  mpssoang =       3    mqgrid =    3327
     natom =       9  nloc_mem =       2    nspden =       1   nspinor =       1
    nsppol =       1      nsym =       8    n1xccc =       1    ntypat =       4
    occopt =       1   xclevel =       2
-    mband =          42        mffmem =           1         mkmem =          28
       mpw =        6356          nfft =      157464          nkpt =         163
Pmy_natom=         2
 PAW method is used; the additional fine FFT grid is defined by:
   mgfftf=        90    nfftf =    729000
================================================================================
P This job should need less than                     331.174 Mbytes of memory.
  Rough estimation (10% accuracy) of disk space for files :
_ WF disk file :    663.960 Mbytes ; DEN or POT disk file :      5.564 Mbytes.
================================================================================


 DATASET    7 : space group I4 m m (#107); Bravais tI (body-center tetrag.)
================================================================================
 Values of the parameters that define the memory need for DATASET  7.
     intxc =       0    ionmov =       0      iscf =      17    lmnmax =      18
     lnmax =       6     mgfft =      54  mpssoang =       3    mqgrid =    3292
     natom =       9  nloc_mem =       2    nspden =       1   nspinor =       1
    nsppol =       1      nsym =       8    n1xccc =       1    ntypat =       4
    occopt =       1   xclevel =       2
-    mband =          42        mffmem =           1         mkmem =          28
       mpw =        6166          nfft =      157464          nkpt =         163
Pmy_natom=         2
 PAW method is used; the additional fine FFT grid is defined by:
   mgfftf=        90    nfftf =    729000
================================================================================
P This job should need less than                     327.482 Mbytes of memory.
  Rough estimation (10% accuracy) of disk space for files :
_ WF disk file :    644.113 Mbytes ; DEN or POT disk file :      5.564 Mbytes.
================================================================================


 DATASET    8 : space group I4 m m (#107); Bravais tI (body-center tetrag.)
================================================================================
 Values of the parameters that define the memory need for DATASET  8.
     intxc =       0    ionmov =       0      iscf =      17    lmnmax =      18
     lnmax =       6     mgfft =      54  mpssoang =       3    mqgrid =    3256
     natom =       9  nloc_mem =       2    nspden =       1   nspinor =       1
    nsppol =       1      nsym =       8    n1xccc =       1    ntypat =       4
    occopt =       1   xclevel =       2
-    mband =          42        mffmem =           1         mkmem =          28
       mpw =        5978          nfft =      157464          nkpt =         163
Pmy_natom=         2
 PAW method is used; the additional fine FFT grid is defined by:
   mgfftf=        80    nfftf =    512000
================================================================================
P This job should need less than                     271.816 Mbytes of memory.
  Rough estimation (10% accuracy) of disk space for files :
_ WF disk file :    624.474 Mbytes ; DEN or POT disk file :      3.908 Mbytes.
================================================================================


 DATASET    9 : space group I4 m m (#107); Bravais tI (body-center tetrag.)
================================================================================
 Values of the parameters that define the memory need for DATASET  9.
     intxc =       0    ionmov =       0      iscf =      17    lmnmax =      18
     lnmax =       6     mgfft =      50  mpssoang =       3    mqgrid =    3221
     natom =       9  nloc_mem =       2    nspden =       1   nspinor =       1
    nsppol =       1      nsym =       8    n1xccc =       1    ntypat =       4
    occopt =       1   xclevel =       2
-    mband =          42        mffmem =           1         mkmem =          28
       mpw =        5785          nfft =      125000          nkpt =         163
Pmy_natom=         2
 PAW method is used; the additional fine FFT grid is defined by:
   mgfftf=        80    nfftf =    512000
================================================================================
P This job should need less than                     263.196 Mbytes of memory.
  Rough estimation (10% accuracy) of disk space for files :
_ WF disk file :    604.313 Mbytes ; DEN or POT disk file :      3.908 Mbytes.
================================================================================


 DATASET   10 : space group I4 m m (#107); Bravais tI (body-center tetrag.)
================================================================================
 Values of the parameters that define the memory need for DATASET 10.
     intxc =       0    ionmov =       0      iscf =      17    lmnmax =      18
     lnmax =       6     mgfft =      50  mpssoang =       3    mqgrid =    3186
     natom =       9  nloc_mem =       2    nspden =       1   nspinor =       1
    nsppol =       1      nsym =       8    n1xccc =       1    ntypat =       4
    occopt =       1   xclevel =       2
-    mband =          42        mffmem =           1         mkmem =          28
       mpw =        5625          nfft =      125000          nkpt =         163
Pmy_natom=         2
 PAW method is used; the additional fine FFT grid is defined by:
   mgfftf=        80    nfftf =    512000
================================================================================
P This job should need less than                     260.080 Mbytes of memory.
  Rough estimation (10% accuracy) of disk space for files :
_ WF disk file :    587.599 Mbytes ; DEN or POT disk file :      3.908 Mbytes.
================================================================================

--------------------------------------------------------------------------------
------------- Echo of variables that govern the present computation ------------
--------------------------------------------------------------------------------
-
- outvars: echo of selected default values                                      
-   iomode0 =  0 , fftalg0 =112 , wfoptalg0 = 10
-
- outvars: echo of global parameters not present in the input file              
-  max_nthreads =    0
-
 -outvars: echo values of preprocessed input variables --------
            acell1     1.5065807154E+01  1.5084574113E+01  1.5065807154E+01 Bohr
            acell2     1.4913184942E+01  1.4933097419E+01  1.4913184942E+01 Bohr
            acell3     1.4759532465E+01  1.4783704151E+01  1.4759532465E+01 Bohr
            acell4     1.4607868197E+01  1.4630291984E+01  1.4607868197E+01 Bohr
            acell5     1.4455911524E+01  1.4477471405E+01  1.4455911524E+01 Bohr
            acell6     1.4306589766E+01  1.4319337678E+01  1.4306589766E+01 Bohr
            acell7     1.4158057062E+01  1.4159648350E+01  1.4158057062E+01 Bohr
            acell8     1.4008476247E+01  1.4002087732E+01  1.4008476247E+01 Bohr
            acell9     1.3859594843E+01  1.3843160535E+01  1.3859594843E+01 Bohr
            acell10    1.3710955913E+01  1.3683789687E+01  1.3710955913E+01 Bohr
              amu      1.32905430E+02  1.26904470E+02  1.78490000E+02
                       7.99040000E+01
           diemac      1.20000000E+01
             ecut      1.60000000E+01 Hartree
-          fftalg         112
           istwfk        2    0    0    0    0    0    3    0    0    0
                         0    0    0    0    0    0    0    0    0    0
                         0    0    0    0    0    0    0    0    0    0
                         0    0    0    0    0    0    0    0    0    0
                         0    0    7    0    0    0    0    0    0    0
                       outvar_i_n : Printing only first  50 k-points.
              ixc     -101130
           jdtset        1    2    3    4    5    6    7    8    9   10
              kpt      0.00000000E+00  0.00000000E+00  0.00000000E+00
                       8.33333333E-02  0.00000000E+00  0.00000000E+00
                       1.66666667E-01  0.00000000E+00  0.00000000E+00
                       2.50000000E-01  0.00000000E+00  0.00000000E+00
                       3.33333333E-01  0.00000000E+00  0.00000000E+00
                       4.16666667E-01  0.00000000E+00  0.00000000E+00
                       5.00000000E-01  0.00000000E+00  0.00000000E+00
                       8.33333333E-02  8.33333333E-02  0.00000000E+00
                       1.66666667E-01  8.33333333E-02  0.00000000E+00
                       2.50000000E-01  8.33333333E-02  0.00000000E+00
                       3.33333333E-01  8.33333333E-02  0.00000000E+00
                       4.16666667E-01  8.33333333E-02  0.00000000E+00
                       5.00000000E-01  8.33333333E-02  0.00000000E+00
                      -4.16666667E-01  8.33333333E-02  0.00000000E+00
                      -3.33333333E-01  8.33333333E-02  0.00000000E+00
                      -2.50000000E-01  8.33333333E-02  0.00000000E+00
                      -1.66666667E-01  8.33333333E-02  0.00000000E+00
                      -8.33333333E-02  8.33333333E-02  0.00000000E+00
                       1.66666667E-01  1.66666667E-01  0.00000000E+00
                       2.50000000E-01  1.66666667E-01  0.00000000E+00
                       3.33333333E-01  1.66666667E-01  0.00000000E+00
                       4.16666667E-01  1.66666667E-01  0.00000000E+00
                       5.00000000E-01  1.66666667E-01  0.00000000E+00
                      -4.16666667E-01  1.66666667E-01  0.00000000E+00
                      -3.33333333E-01  1.66666667E-01  0.00000000E+00
                      -2.50000000E-01  1.66666667E-01  0.00000000E+00
                      -1.66666667E-01  1.66666667E-01  0.00000000E+00
                       2.50000000E-01  2.50000000E-01  0.00000000E+00
                       3.33333333E-01  2.50000000E-01  0.00000000E+00
                       4.16666667E-01  2.50000000E-01  0.00000000E+00
                       5.00000000E-01  2.50000000E-01  0.00000000E+00
                      -4.16666667E-01  2.50000000E-01  0.00000000E+00
                      -3.33333333E-01  2.50000000E-01  0.00000000E+00
                      -2.50000000E-01  2.50000000E-01  0.00000000E+00
                       3.33333333E-01  3.33333333E-01  0.00000000E+00
                       4.16666667E-01  3.33333333E-01  0.00000000E+00
                       5.00000000E-01  3.33333333E-01  0.00000000E+00
                      -4.16666667E-01  3.33333333E-01  0.00000000E+00
                      -3.33333333E-01  3.33333333E-01  0.00000000E+00
                       4.16666667E-01  4.16666667E-01  0.00000000E+00
                       5.00000000E-01  4.16666667E-01  0.00000000E+00
                      -4.16666667E-01  4.16666667E-01  0.00000000E+00
                       5.00000000E-01  5.00000000E-01  0.00000000E+00
                       8.33333333E-02  0.00000000E+00  8.33333333E-02
                       1.66666667E-01  0.00000000E+00  8.33333333E-02
                       2.50000000E-01  0.00000000E+00  8.33333333E-02
                       3.33333333E-01  0.00000000E+00  8.33333333E-02
                       4.16666667E-01  0.00000000E+00  8.33333333E-02
                       5.00000000E-01  0.00000000E+00  8.33333333E-02
                      -4.16666667E-01  0.00000000E+00  8.33333333E-02
                       outvar_i_n : Printing only first  50 k-points.
         kptrlatt       12    0    0      0   12    0      0    0   12
          kptrlen1     1.80789686E+02
          kptrlen2     1.78958219E+02
          kptrlen3     1.77114390E+02
          kptrlen4     1.75294418E+02
          kptrlen5     1.73470938E+02
          kptrlen6     1.71679077E+02
          kptrlen7     1.69896685E+02
          kptrlen8     1.68025053E+02
          kptrlen9     1.66117926E+02
          kptrlen10    1.64205476E+02
P           mkmem          28
            natom           9
            nband          42
           ndtset          10
            ngfft1         60      60      60
            ngfft2         54      54      54
            ngfft3         54      54      54
            ngfft4         54      54      54
            ngfft5         54      54      54
            ngfft6         54      54      54
            ngfft7         54      54      54
            ngfft8         54      54      54
            ngfft9         50      50      50
            ngfft10        50      50      50
          ngfftdg1         90      90      90
          ngfftdg2         90      90      90
          ngfftdg3         90      90      90
          ngfftdg4         90      90      90
          ngfftdg5         90      90      90
          ngfftdg6         90      90      90
          ngfftdg7         90      90      90
          ngfftdg8         80      80      80
          ngfftdg9         80      80      80
          ngfftdg10        80      80      80
             nkpt         163
            nstep        2500
             nsym           8
           ntypat           4
              occ      2.000000  2.000000  2.000000  2.000000  2.000000  2.000000
                       2.000000  2.000000  2.000000  2.000000  2.000000  2.000000
                       2.000000  2.000000  2.000000  2.000000  2.000000  2.000000
                       2.000000  2.000000  2.000000  2.000000  2.000000  2.000000
                       2.000000  2.000000  2.000000  2.000000  2.000000  2.000000
                       2.000000  2.000000  2.000000  2.000000  2.000000  2.000000
                       0.000000  0.000000  0.000000  0.000000  0.000000  0.000000
        pawecutdg      4.00000000E+01 Hartree
            prtwf           0
            rprim1     0.0000000000E+00  7.0622486396E-01  7.0798759984E-01
                       7.0710678119E-01  0.0000000000E+00  7.0710678119E-01
                       7.0798759984E-01  7.0622486396E-01  0.0000000000E+00
            rprim2     0.0000000000E+00  7.0616137129E-01  7.0805092874E-01
                       7.0710678119E-01  0.0000000000E+00  7.0710678119E-01
                       7.0805092874E-01  7.0616137129E-01  0.0000000000E+00
            rprim3     0.0000000000E+00  7.0594685284E-01  7.0826480991E-01
                       7.0710678119E-01  0.0000000000E+00  7.0710678119E-01
                       7.0826480991E-01  7.0594685284E-01  0.0000000000E+00
            rprim4     0.0000000000E+00  7.0601966919E-01  7.0819222441E-01
                       7.0710678119E-01  0.0000000000E+00  7.0710678119E-01
                       7.0819222441E-01  7.0601966919E-01  0.0000000000E+00
            rprim5     0.0000000000E+00  7.0605061057E-01  7.0816137660E-01
                       7.0710678119E-01  0.0000000000E+00  7.0710678119E-01
                       7.0816137660E-01  7.0605061057E-01  0.0000000000E+00
            rprim6     0.0000000000E+00  7.0647615055E-01  7.0773684990E-01
                       7.0710678119E-01  0.0000000000E+00  7.0710678119E-01
                       7.0773684990E-01  7.0647615055E-01  0.0000000000E+00
            rprim7     0.0000000000E+00  7.0702729737E-01  7.0718625607E-01
                       7.0710678119E-01  0.0000000000E+00  7.0710678119E-01
                       7.0718625607E-01  7.0702729737E-01  0.0000000000E+00
            rprim8     0.0000000000E+00  7.0742910768E-01  7.0678430769E-01
                       7.0710678119E-01  0.0000000000E+00  7.0710678119E-01
                       7.0678430769E-01  7.0742910768E-01  0.0000000000E+00
            rprim9     0.0000000000E+00  7.0794425500E-01  7.0626831432E-01
                       7.0710678119E-01  0.0000000000E+00  7.0710678119E-01
                       7.0626831432E-01  7.0794425500E-01  0.0000000000E+00
            rprim10    0.0000000000E+00  7.0850503802E-01  7.0570575391E-01
                       7.0710678119E-01  0.0000000000E+00  7.0710678119E-01
                       7.0570575391E-01  7.0850503802E-01  0.0000000000E+00
          spgroup         107
           symrel      1  0  0   0  1  0   0  0  1       0  0  1   0  1  0   1  0  0
                       0 -1  1   0 -1  0   1 -1  0       1 -1  0   0 -1  0   0 -1  1
                       0 -1  1  -1  0  1   0  0  1       0  0  1  -1  0  1   0 -1  1
                       1  0  0   1  0 -1   1 -1  0       1 -1  0   1  0 -1   1  0  0
           toldfe      1.00000000E-08 Hartree
            typat      1  1  2  4  4  4  4  4  3
           useylm           1
              wtk        0.00058    0.00463    0.00463    0.00463    0.00463    0.00463
                         0.00231    0.00231    0.00926    0.00926    0.00926    0.00926
                         0.00926    0.00926    0.00926    0.00926    0.00926    0.00463
                         0.00231    0.00926    0.00926    0.00926    0.00926    0.00926
                         0.00926    0.00926    0.00463    0.00231    0.00926    0.00926
                         0.00926    0.00926    0.00926    0.00463    0.00231    0.00926
                         0.00926    0.00926    0.00463    0.00231    0.00926    0.00463
                         0.00116    0.00116    0.00463    0.00463    0.00463    0.00463
                         0.00463    0.00463
                       outvars : Printing only first  50 k-points.
           xangst1     2.8222091183E+00  2.8397235203E+00  2.8222091183E+00
                       8.4666273549E+00  8.4700883772E+00  8.4666273549E+00
                       5.6444182366E+00  8.4261539216E+00  5.6444182366E+00
                       5.6444182366E+00  5.6445727393E+00  2.6214816937E+00
                       5.6444182366E+00  5.6445727393E+00  8.6673547795E+00
                       5.6444182366E+00  2.6722490218E+00  5.6444182366E+00
                       8.6673547795E+00  5.6445727393E+00  5.6444182366E+00
                       2.6214816937E+00  5.6445727393E+00  5.6444182366E+00
                      -1.3962620937E-13  5.6413057238E-02 -1.3962620937E-13
           xangst2     2.7938689806E+00  2.8114368009E+00  2.7938689806E+00
                       8.3816069417E+00  8.3842629081E+00  8.3816069417E+00
                       5.5877379611E+00  8.3186681650E+00  5.5877379611E+00
                       5.5877379611E+00  5.5854816803E+00  2.6191655366E+00
                       5.5877379612E+00  5.5854816803E+00  8.5563103857E+00
                       5.5877379612E+00  2.6701003459E+00  5.5877379612E+00
                       8.5563103857E+00  5.5854816803E+00  5.5877379612E+00
                       2.6191655366E+00  5.5854816803E+00  5.5877379611E+00
                      -1.3112567060E-12  5.6213917363E-02 -1.3112567060E-12
           xangst3     2.7659186361E+00  2.7842773227E+00  2.7659186361E+00
                       8.2977559082E+00  8.2980104038E+00  8.2977559082E+00
                       5.5318372720E+00  8.2083877113E+00  5.5318372720E+00
                       5.5318372720E+00  5.5241111087E+00  2.6162505074E+00
                       5.5318372722E+00  5.5241111087E+00  8.4474240368E+00
                       5.5318372722E+00  2.6671704534E+00  5.5318372722E+00
                       8.4474240368E+00  5.5241111087E+00  5.5318372722E+00
                       2.6162505074E+00  5.5241111087E+00  5.5318372720E+00
                      -1.5871966502E-12  5.5574322873E-02 -1.5871966502E-12
           xangst4     2.7372163861E+00  2.7557939170E+00  2.7372163861E+00
                       8.2116491584E+00  8.2134325094E+00  8.2116491584E+00
                       5.4744327722E+00  8.1062576404E+00  5.4744327722E+00
                       5.4744327722E+00  5.4661729255E+00  2.6127315878E+00
                       5.4744327723E+00  5.4661729255E+00  8.3361339567E+00
                       5.4744327723E+00  2.6648192250E+00  5.4744327723E+00
                       8.3361339567E+00  5.4661729255E+00  5.4744327723E+00
                       2.6127315878E+00  5.4661729255E+00  5.4744327722E+00
                      -9.6458246090E-13  5.6113746083E-02 -9.6458246090E-13
           xangst5     2.7086248178E+00  2.7252700103E+00  2.7086248178E+00
                       8.1258744535E+00  8.1263728369E+00  8.1258744535E+00
                       5.4172496357E+00  8.0051113307E+00  5.4172496357E+00
                       5.4172496357E+00  5.4078476731E+00  2.6084462505E+00
                       5.4172496357E+00  5.4078476731E+00  8.2260530208E+00
                       5.4172496357E+00  2.6629897869E+00  5.4172496357E+00
                       8.2260530208E+00  5.4078476731E+00  5.4172496357E+00
                       2.6084462505E+00  5.4078476731E+00  5.4172496357E+00
                      -3.2830904499E-13  5.7687956050E-02 -3.2830904499E-13
           xangst6     2.6790391999E+00  2.6970667402E+00  2.6790391999E+00
                       8.0371175996E+00  8.0456007365E+00  8.0371175996E+00
                       5.3580783997E+00  7.9128243860E+00  5.3580783997E+00
                       5.3580783997E+00  5.3532701284E+00  2.6033859268E+00
                       5.3580783998E+00  5.3532701284E+00  8.1127708726E+00
                       5.3580783998E+00  2.6602996044E+00  5.3580783998E+00
                       8.1127708726E+00  5.3532701284E+00  5.3580783998E+00
                       2.6033859268E+00  5.3532701284E+00  5.3580783997E+00
                      -1.3600938730E-12  5.9399989340E-02 -1.3600938730E-12
           xangst7     2.6491625408E+00  2.6706324702E+00  2.6491625408E+00
                       7.9474876224E+00  7.9677666138E+00  7.9474876224E+00
                       5.2983250815E+00  7.8239125675E+00  5.2983250815E+00
                       5.2983250815E+00  5.2992972780E+00  2.5975005990E+00
                       5.2983250817E+00  5.2992972780E+00  7.9991495642E+00
                       5.2983250817E+00  2.6567003533E+00  5.2983250817E+00
                       7.9991495642E+00  5.2992972780E+00  5.2983250817E+00
                       2.5975005990E+00  5.2992972780E+00  5.2983250815E+00
                      -1.9751005349E-12  6.0872031829E-02 -1.9751005349E-12
           xangst8     2.6196841473E+00  2.6430504884E+00  2.6196841473E+00
                       7.8590524419E+00  7.8871986635E+00  7.8590524419E+00
                       5.2393682946E+00  7.7331786537E+00  5.2393682946E+00
                       5.2393682946E+00  5.2437571975E+00  2.5903979839E+00
                       5.2393682946E+00  5.2437571975E+00  7.8883386053E+00
                       5.2393682946E+00  2.6521442352E+00  5.2393682946E+00
                       7.8883386053E+00  5.2437571975E+00  5.2393682946E+00
                       2.5903979839E+00  5.2437571975E+00  5.2393682946E+00
                      -2.7409732381E-13  6.2584570653E-02 -2.7409732381E-13
           xangst9     2.5899500771E+00  2.6142103820E+00  2.5899500771E+00
                       7.7698502313E+00  7.8064021895E+00  7.7698502313E+00
                       5.1799001542E+00  7.6465809230E+00  5.1799001542E+00
                       5.1799001542E+00  5.1892493647E+00  2.5823420622E+00
                       5.1799001543E+00  5.1892493647E+00  7.7774582462E+00
                       5.1799001543E+00  2.6476078918E+00  5.1799001543E+00
                       7.7774582462E+00  5.1892493647E+00  5.1799001543E+00
                       2.5823420622E+00  5.1892493647E+00  5.1799001542E+00
                      -1.5962210003E-12  6.5735615726E-02 -1.5962210003E-12
           xangst10    2.5601330032E+00  2.5853672235E+00  2.5601330032E+00
                       7.6803990097E+00  7.7259435067E+00  7.6803990097E+00
                       5.1202660064E+00  7.5620813302E+00  5.1202660064E+00
                       5.1202660064E+00  5.1350073818E+00  2.5729802187E+00
                       5.1202660065E+00  5.1350073818E+00  7.6675517942E+00
                       5.1202660065E+00  2.6419701810E+00  5.1202660065E+00
                       7.6675517942E+00  5.1350073818E+00  5.1202660065E+00
                       2.5729802187E+00  5.1350073818E+00  5.1202660064E+00
                      -2.2981314364E-12  6.9218496977E-02 -2.2981314364E-12
            xcart1     5.3332023233E+00  5.3662997464E+00  5.3332023233E+00
                       1.5999606970E+01  1.6006147354E+01  1.5999606970E+01
                       1.0666404647E+01  1.5923123265E+01  1.0666404647E+01
                       1.0666404647E+01  1.0666696614E+01  4.9538824635E+00
                       1.0666404647E+01  1.0666696614E+01  1.6378926830E+01
                       1.0666404647E+01  5.0498188101E+00  1.0666404647E+01
                       1.6378926830E+01  1.0666696614E+01  1.0666404647E+01
                       4.9538824635E+00  1.0666696614E+01  1.0666404647E+01
                      -2.6385529669E-13  1.0660522850E-01 -2.6385529669E-13
            xcart2     5.2796472244E+00  5.3128455935E+00  5.2796472244E+00
                       1.5838941673E+01  1.5843960722E+01  1.5838941673E+01
                       1.0559294449E+01  1.5720004622E+01  1.0559294449E+01
                       1.0559294449E+01  1.0555030696E+01  4.9495055609E+00
                       1.0559294449E+01  1.0555030696E+01  1.6169083337E+01
                       1.0559294449E+01  5.0457584010E+00  1.0559294449E+01
                       1.6169083337E+01  1.0555030696E+01  1.0559294449E+01
                       4.9495055609E+00  1.0555030696E+01  1.0559294449E+01
                      -2.4779160642E-12  1.0622890867E-01 -2.4779160642E-12
            xcart3     5.2268287280E+00  5.2615216180E+00  5.2268287280E+00
                       1.5680486184E+01  1.5680967111E+01  1.5680486184E+01
                       1.0453657456E+01  1.5511604767E+01  1.0453657456E+01
                       1.0453657456E+01  1.0439057123E+01  4.9439969540E+00
                       1.0453657456E+01  1.0439057123E+01  1.5963317958E+01
                       1.0453657456E+01  5.0402217067E+00  1.0453657456E+01
                       1.5963317958E+01  1.0439057123E+01  1.0453657456E+01
                       4.9439969540E+00  1.0439057123E+01  1.0453657456E+01
                      -2.9993669878E-12  1.0502025025E-01 -2.9993669878E-12
            xcart4     5.1725893362E+00  5.2076957817E+00  5.1725893362E+00
                       1.5517768009E+01  1.5521138054E+01  1.5517768009E+01
                       1.0345178672E+01  1.5318606903E+01  1.0345178672E+01
                       1.0345178672E+01  1.0329569824E+01  4.9373471597E+00
                       1.0345178673E+01  1.0329569824E+01  1.5753010185E+01
                       1.0345178673E+01  5.0357785288E+00  1.0345178673E+01
                       1.5753010185E+01  1.0329569824E+01  1.0345178673E+01
                       4.9373471597E+00  1.0329569824E+01  1.0345178672E+01
                      -1.8227966837E-12  1.0603961239E-01 -1.8227966837E-12
            xcart5     5.1185591025E+00  5.1500139576E+00  5.1185591025E+00
                       1.5355677307E+01  1.5356619116E+01  1.5355677307E+01
                       1.0237118205E+01  1.5127468078E+01  1.0237118205E+01
                       1.0237118205E+01  1.0219351070E+01  4.9292490458E+00
                       1.0237118205E+01  1.0219351070E+01  1.5544987364E+01
                       1.0237118205E+01  5.0323213919E+00  1.0237118205E+01
                       1.5544987364E+01  1.0219351070E+01  1.0237118205E+01
                       4.9292490458E+00  1.0219351070E+01  1.0237118205E+01
                      -6.2041418198E-13  1.0901443810E-01 -6.2041418198E-13
            xcart6     5.0626503870E+00  5.0967175011E+00  5.0626503870E+00
                       1.5187951161E+01  1.5203981966E+01  1.5187951161E+01
                       1.0125300774E+01  1.4953071027E+01  1.0125300774E+01
                       1.0125300774E+01  1.0116214458E+01  4.9196864199E+00
                       1.0125300774E+01  1.0116214458E+01  1.5330915128E+01
                       1.0125300774E+01  5.0272376838E+00  1.0125300774E+01
                       1.5330915128E+01  1.0116214458E+01  1.0125300774E+01
                       4.9196864199E+00  1.0116214458E+01  1.0125300774E+01
                      -2.5702049349E-12  1.1224971215E-01 -2.5702049349E-12
            xcart7     5.0061916836E+00  5.0467639703E+00  5.0061916836E+00
                       1.5018575051E+01  1.5056896791E+01  1.5018575051E+01
                       1.0012383367E+01  1.4785052040E+01  1.0012383367E+01
                       1.0012383367E+01  1.0014220552E+01  4.9085647620E+00
                       1.0012383367E+01  1.0014220552E+01  1.5116201972E+01
                       1.0012383367E+01  5.0204360849E+00  1.0012383367E+01
                       1.5116201972E+01  1.0014220552E+01  1.0012383367E+01
                       4.9085647620E+00  1.0014220552E+01  1.0012383367E+01
                      -3.7323990958E-12  1.1503146931E-01 -3.7323990958E-12
            xcart8     4.9504855930E+00  4.9946415784E+00  4.9504855930E+00
                       1.4851456779E+01  1.4904645430E+01  1.4851456779E+01
                       9.9009711861E+00  1.4613589792E+01  9.9009711861E+00
                       9.9009711860E+00  9.9092650106E+00  4.8951427647E+00
                       9.9009711861E+00  9.9092650106E+00  1.4906799607E+01
                       9.9009711861E+00  5.0118262695E+00  9.9009711861E+00
                       1.4906799607E+01  9.9092650106E+00  9.9009711861E+00
                       4.8951427647E+00  9.9092650106E+00  9.9009711860E+00
                      -5.1796887575E-13  1.1826769868E-01 -5.1796887575E-13
            xcart9     4.8942963436E+00  4.9401416757E+00  4.8942963436E+00
                       1.4682889031E+01  1.4751962221E+01  1.4682889031E+01
                       9.7885926870E+00  1.4449943797E+01  9.7885926870E+00
                       9.7885926870E+00  9.8062601345E+00  4.8799192791E+00
                       9.7885926873E+00  9.8062601345E+00  1.4697266095E+01
                       9.7885926873E+00  5.0032538227E+00  9.7885926873E+00
                       1.4697266095E+01  9.8062601345E+00  9.7885926873E+00
                       4.8799192791E+00  9.8062601345E+00  9.7885926870E+00
                      -3.0164205380E-12  1.2422231090E-01 -3.0164205380E-12
            xcart10    4.8379502399E+00  4.8856360053E+00  4.8379502399E+00
                       1.4513850720E+01  1.4599917346E+01  1.4513850720E+01
                       9.6759004796E+00  1.4290262709E+01  9.6759004796E+00
                       9.6759004796E+00  9.7037576420E+00  4.8622279586E+00
                       9.6759004799E+00  9.7037576420E+00  1.4489573001E+01
                       9.6759004799E+00  4.9926000934E+00  9.6759004799E+00
                       1.4489573001E+01  9.7037576420E+00  9.6759004799E+00
                       4.8622279586E+00  9.7037576420E+00  9.6759004796E+00
                      -4.3428390322E-12  1.3080400262E-01 -4.3428390322E-12
             xred1     2.5217935182E-01  2.4782064818E-01  2.5217935182E-01
                       7.5217935182E-01  7.4782064818E-01  7.5217935182E-01
                       7.4827778801E-01  2.5172221199E-01  7.4827778801E-01
                       2.3348066430E-01  2.3095722528E-01  7.6904277472E-01
                       7.6904277472E-01  7.6651933570E-01  2.3348066430E-01
                       2.3730691436E-01  7.6269308564E-01  2.3730691436E-01
                       2.3348066430E-01  7.6651933570E-01  7.6904277472E-01
                       7.6904277472E-01  2.3095722528E-01  2.3348066430E-01
                       5.0097159484E-03 -5.0097159484E-03  5.0097159484E-03
             xred2     2.5224515773E-01  2.4775484227E-01  2.5224515773E-01
                       7.5224515773E-01  7.4775484227E-01  7.5224515773E-01
                       7.4635992626E-01  2.5364007374E-01  7.4635992626E-01
                       2.3550271970E-01  2.3323177623E-01  7.6676822377E-01
                       7.6676822377E-01  7.6449728030E-01  2.3550271970E-01
                       2.3956429776E-01  7.6043570224E-01  2.3956429776E-01
                       2.3550271970E-01  7.6449728030E-01  7.6676822377E-01
                       7.6676822377E-01  2.3323177623E-01  2.3550271970E-01
                       5.0435736089E-03 -5.0435736089E-03  5.0435736089E-03
             xred3     2.5248568273E-01  2.4751431727E-01  2.5248568273E-01
                       7.5248568273E-01  7.4751431727E-01  7.5248568273E-01
                       7.4435845829E-01  2.5564154171E-01  7.4435845829E-01
                       2.3741322112E-01  2.3553100676E-01  7.6446899324E-01
                       7.6446899324E-01  7.6258677888E-01  2.3741322112E-01
                       2.4186611994E-01  7.5813388006E-01  2.4186611994E-01
                       2.3741322112E-01  7.6258677888E-01  7.6446899324E-01
                       7.6446899324E-01  2.3553100676E-01  2.3741322112E-01
                       5.0396276040E-03 -5.0396276040E-03  5.0396276040E-03
             xred4     2.5247127217E-01  2.4752872783E-01  2.5247127217E-01
                       7.5247127217E-01  7.4752872783E-01  7.5247127217E-01
                       7.4265247717E-01  2.5734752283E-01  7.4265247717E-01
                       2.3941221782E-01  2.3784847685E-01  7.6215152315E-01
                       7.6215152315E-01  7.6058778218E-01  2.3941221782E-01
                       2.4413665176E-01  7.5586334824E-01  2.4413665176E-01
                       2.3941221782E-01  7.6058778218E-01  7.6215152315E-01
                       7.6215152315E-01  2.3784847685E-01  2.3941221782E-01
                       5.1408448116E-03 -5.1408448116E-03  5.1408448116E-03
             xred5     2.5228829165E-01  2.4771170835E-01  2.5228829165E-01
                       7.5228829165E-01  7.4771170835E-01  7.5228829165E-01
                       7.4106266698E-01  2.5893733302E-01  7.4106266698E-01
                       2.4137813806E-01  2.4012934746E-01  7.5987065254E-01
                       7.5987065254E-01  7.5862186194E-01  2.4137813806E-01
                       2.4652278177E-01  7.5347721823E-01  2.4652278177E-01
                       2.4137813806E-01  7.5862186194E-01  7.5987065254E-01
                       7.5987065254E-01  2.4012934746E-01  2.4137813806E-01
                       5.3403867601E-03 -5.3403867601E-03  5.3403867601E-03
             xred6     2.5213140106E-01  2.4786859894E-01  2.5213140106E-01
                       7.5213140106E-01  7.4786859894E-01  7.5213140106E-01
                       7.3971899510E-01  2.6028100490E-01  7.3971899510E-01
                       2.4338301122E-01  2.4249751023E-01  7.5750248977E-01
                       7.5750248977E-01  7.5661698878E-01  2.4338301122E-01
                       2.4869427831E-01  7.5130572169E-01  2.4869427831E-01
                       2.4338301122E-01  7.5661698878E-01  7.5750248977E-01
                       7.5750248977E-01  2.4249751023E-01  2.4338301122E-01
                       5.5529224813E-03 -5.5529224813E-03  5.5529224813E-03
             xred7     2.5208276757E-01  2.4791723243E-01  2.5208276757E-01
                       7.5208276757E-01  7.4791723243E-01  7.5208276757E-01
                       7.3850428887E-01  2.6149571113E-01  7.3850428887E-01
                       2.4532887088E-01  2.4492051151E-01  7.5507948849E-01
                       7.5507948849E-01  7.5467112912E-01  2.4532887088E-01
                       2.5076770583E-01  7.4923229417E-01  2.5076770583E-01
                       2.4532887088E-01  7.5467112912E-01  7.5507948849E-01
                       7.5507948849E-01  2.4492051151E-01  2.4532887088E-01
                       5.7457513987E-03 -5.7457513987E-03  5.7457513987E-03
             xred8     2.5199998170E-01  2.4800001830E-01  2.5199998170E-01
                       7.5199998170E-01  7.4800001830E-01  7.5199998170E-01
                       7.3731504101E-01  2.6268495899E-01  7.3731504101E-01
                       2.4716790431E-01  2.4724245935E-01  7.5275754065E-01
                       7.5275754065E-01  7.5283209569E-01  2.4716790431E-01
                       2.5286701926E-01  7.4713298074E-01  2.5286701926E-01
                       2.4716790431E-01  7.5283209569E-01  7.5275754065E-01
                       7.5275754065E-01  2.4724245935E-01  2.4716790431E-01
                       5.9670864135E-03 -5.9670864135E-03  5.9670864135E-03
             xred9     2.5174439609E-01  2.4825560391E-01  2.5174439609E-01
                       7.5174439609E-01  7.4825560391E-01  7.5174439609E-01
                       7.3635385656E-01  2.6364614344E-01  7.3635385656E-01
                       2.4898226880E-01  2.4954897415E-01  7.5045102585E-01
                       7.5045102585E-01  7.5101773120E-01  2.4898226880E-01
                       2.5496052437E-01  7.4503947563E-01  2.5496052437E-01
                       2.4898226880E-01  7.5101773120E-01  7.5045102585E-01
                       7.5045102585E-01  2.4954897415E-01  2.4898226880E-01
                       6.3302376108E-03 -6.3302376108E-03  6.3302376108E-03
             xred10    2.5146667232E-01  2.4853332768E-01  2.5146667232E-01
                       7.5146667232E-01  7.4853332768E-01  7.5146667232E-01
                       7.3552855882E-01  2.6447144118E-01  7.3552855882E-01
                       2.5071288451E-01  2.5179620690E-01  7.4820379310E-01
                       7.4820379310E-01  7.4928711549E-01  2.5071288451E-01
                       2.5697217933E-01  7.4302782067E-01  2.5697217933E-01
                       2.5071288451E-01  7.4928711549E-01  7.4820379310E-01
                       7.4820379310E-01  2.5179620690E-01  2.5071288451E-01
                       6.7325619895E-03 -6.7325619895E-03  6.7325619895E-03
            znucl       55.00000   53.00000   72.00000   35.00000

================================================================================

 chkinp: Checking input parameters for consistency, jdtset=   1.

 chkinp: Checking input parameters for consistency, jdtset=   2.

 chkinp: Checking input parameters for consistency, jdtset=   3.

 chkinp: Checking input parameters for consistency, jdtset=   4.

 chkinp: Checking input parameters for consistency, jdtset=   5.

 chkinp: Checking input parameters for consistency, jdtset=   6.

 chkinp: Checking input parameters for consistency, jdtset=   7.

 chkinp: Checking input parameters for consistency, jdtset=   8.

 chkinp: Checking input parameters for consistency, jdtset=   9.

 chkinp: Checking input parameters for consistency, jdtset=  10.

================================================================================
== DATASET  1 ==================================================================
-   mpi_nproc: 6, omp_nthreads: -1 (-1 if OMP is not activated)


--- !DatasetInfo
iteration_state: {dtset: 1, }
dimensions: {natom: 9, nkpt: 163, mband: 42, nsppol: 1, nspinor: 1, nspden: 1, mpw: 7451, }
cutoff_energies: {ecut:  16.0, pawecutdg:  40.0, }
electrons: {nelect:   7.20000000E+01, charge:   0.00000000E+00, occopt:   1.00000000E+00, tsmear:   1.00000000E-02, }
meta: {optdriver: 0, ionmov: 0, optcell: 0, iscf: 17, paral_kgb: 0, }
...

 Real(R)+Recip(G) space primitive vectors, cartesian coordinates (Bohr,Bohr^-1):
 R(1)=  0.0000000 10.6398476 10.6664046  G(1)= -0.0468762  0.0469932  0.0468762
 R(2)= 10.6664046  0.0000000 10.6664046  G(2)=  0.0468762 -0.0469932  0.0468762
 R(3)= 10.6664046 10.6398476  0.0000000  G(3)=  0.0468762  0.0469932 -0.0468762
 Unit cell volume ucvol=  2.4210375E+03 bohr^3
 Angles (23,13,12)=  5.99587851E+01  6.00824297E+01  5.99587851E+01 degrees

 Coarse grid specifications (used for wave-functions):

 getcut: wavevector=  0.0000  0.0000  0.0000  ngfft=  60  60  60
         ecut(hartree)=     16.000   => boxcut(ratio)=   2.20899

 getcut : COMMENT -
  Note that boxcut > 2.2 ; recall that boxcut=Gcut(box)/Gcut(sphere) = 2
  is sufficient for exact treatment of convolution.
  Such a large boxcut is a waste : you could raise ecut
  e.g. ecut=   19.518487 Hartrees makes boxcut=2


 Fine grid specifications (used for densities):

 getcut: wavevector=  0.0000  0.0000  0.0000  ngfft=  90  90  90
         ecut(hartree)=     40.000   => boxcut(ratio)=   2.09589

--- Pseudopotential description ------------------------------------------------
- pspini: atom type   1  psp file is ../../../Psps_for_tests/ATOMICDATA/Cs.GGA_PBE-JTH.xml
- pspatm: opening atomic psp file    ../../../Psps_for_tests/ATOMICDATA/Cs.GGA_PBE-JTH.xml
- pspatm : Reading pseudopotential header in XML form from ../../../Psps_for_tests/ATOMICDATA/Cs.GGA_PBE-JTH.xml
 Pseudopotential format is: paw10
 basis_size (lnmax)=  6 (lmn_size= 18), orbitals=   0   0   1   1   2   2
 Spheres core radius: rc_sph= 2.20660278
 1 radial meshes are used:
  - mesh 1: r(i)=AA*[exp(BB*(i-1))-1], size=1500 , AA= 0.15922E-03 BB= 0.87573E-02
 Shapefunction is SIN type: shapef(r)=[sin(pi*r/rshp)/(pi*r/rshp)]**2
 Radius for shape functions =  2.00394208
 mmax= 1500
 Radial grid used for partial waves is grid 1
 Radial grid used for projectors is grid 1
 Radial grid used for (t)core density is grid 1
 Radial grid used for Vloc is grid 1
 Radial grid used for pseudo valence density is grid 1
 Mesh size for Vloc has been set to 1341 to avoid numerical noise.
 Compensation charge density is not taken into account in XC energy/potential
 pspatm: atomic psp has been read  and splines computed

- pspini: atom type   2  psp file is ../../../Psps_for_tests/ATOMICDATA/I.GGA_PBE-JTH.xml
- pspatm: opening atomic psp file    ../../../Psps_for_tests/ATOMICDATA/I.GGA_PBE-JTH.xml
- pspatm : Reading pseudopotential header in XML form from ../../../Psps_for_tests/ATOMICDATA/I.GGA_PBE-JTH.xml
 Pseudopotential format is: paw10
 basis_size (lnmax)=  4 (lmn_size=  8), orbitals=   0   0   1   1
 Spheres core radius: rc_sph= 2.30022271
 1 radial meshes are used:
  - mesh 1: r(i)=AA*[exp(BB*(i-1))-1], size=2000 , AA= 0.12610E-03 BB= 0.66836E-02
 Shapefunction is SIN type: shapef(r)=[sin(pi*r/rshp)/(pi*r/rshp)]**2
 Radius for shape functions =  2.10879093
 mmax= 2000
 Radial grid used for partial waves is grid 1
 Radial grid used for projectors is grid 1
 Radial grid used for (t)core density is grid 1
 Radial grid used for Vloc is grid 1
 Radial grid used for pseudo valence density is grid 1
 Mesh size for Vloc has been set to 1792 to avoid numerical noise.
 Compensation charge density is not taken into account in XC energy/potential
 pspatm: atomic psp has been read  and splines computed

- pspini: atom type   3  psp file is ../../../Psps_for_tests/ATOMICDATA/Hf.GGA_PBE-JTH.xml
- pspatm: opening atomic psp file    ../../../Psps_for_tests/ATOMICDATA/Hf.GGA_PBE-JTH.xml
- pspatm : Reading pseudopotential header in XML form from ../../../Psps_for_tests/ATOMICDATA/Hf.GGA_PBE-JTH.xml
 Pseudopotential format is: paw10
 basis_size (lnmax)=  6 (lmn_size= 18), orbitals=   0   0   1   1   2   2
 Spheres core radius: rc_sph= 2.41000000
 1 radial meshes are used:
  - mesh 1: r(i)=AA*[exp(BB*(i-1))-1], size= 972 , AA= 0.19796E-03 BB= 0.14253E-01
 Shapefunction is SIN type: shapef(r)=[sin(pi*r/rshp)/(pi*r/rshp)]**2
 Radius for shape functions =  2.41000000
 mmax=  972
 Radial grid used for partial waves is grid 1
 Radial grid used for projectors is grid 1
 Radial grid used for (t)core density is grid 1
 Radial grid used for Vloc is grid 1
 Radial grid used for pseudo valence density is grid 1
 Mesh size for Vloc has been set to  809 to avoid numerical noise.
 Compensation charge density is not taken into account in XC energy/potential
 pspatm: atomic psp has been read  and splines computed

- pspini: atom type   4  psp file is ../../../Psps_for_tests/ATOMICDATA/Br.GGA_PBE-JTH.xml
- pspatm: opening atomic psp file    ../../../Psps_for_tests/ATOMICDATA/Br.GGA_PBE-JTH.xml
- pspatm : Reading pseudopotential header in XML form from ../../../Psps_for_tests/ATOMICDATA/Br.GGA_PBE-JTH.xml
 Pseudopotential format is: paw10
 basis_size (lnmax)=  4 (lmn_size=  8), orbitals=   0   0   1   1
 Spheres core radius: rc_sph= 2.20000000
 1 radial meshes are used:
  - mesh 1: r(i)=AA*[exp(BB*(i-1))-1], size= 927 , AA= 0.40483E-03 BB= 0.14169E-01
 Shapefunction is BESSEL type: shapef(r,l)=aa(1,l)*jl(q(1,l)*r)+aa(2,l)*jl(q(2,l)*r)
 Radius for shape functions =  2.02066386
 mmax=  927
 Radial grid used for partial waves is grid 1
 Radial grid used for projectors is grid 1
 Radial grid used for (t)core density is grid 1
 Radial grid used for Vloc is grid 1
 Radial grid used for pseudo valence density is grid 1
 Mesh size for Vloc has been set to  763 to avoid numerical noise.
 Compensation charge density is not taken into account in XC energy/potential
 pspatm: atomic psp has been read  and splines computed

   3.08921017E+04                                ecore*ucvol(ha*bohr**3)
--------------------------------------------------------------------------------

_setup2: Arith. and geom. avg. npw (full set) are    7400.633    7400.621

================================================================================

--- !BeginCycle
iteration_state: {dtset: 1, }
solver: {iscf: 17, nstep: 2500, nline: 4, wfoptalg: 10, }
tolerances: {toldfe: 1.00E-08, }
...

     iter   Etot(hartree)      deltaE(h)  residm     nres2
 ETOT  1  -169.71925945260    -1.697E+02 7.863E+00 5.970E+00
 ETOT  2  -171.15591804038    -1.437E+00 2.796E-02 2.140E+00
 ETOT  3  -171.14682918450     9.089E-03 1.931E-02 3.775E-01
 ETOT  4  -171.14764338306    -8.142E-04 4.867E-03 9.465E-02
 ETOT  5  -171.14763579275     7.590E-06 3.727E-03 7.792E-03
 ETOT  6  -171.14770967421    -7.388E-05 2.189E-03 1.186E-03
 ETOT  7  -171.14772275559    -1.308E-05 2.878E-03 2.371E-04
 ETOT  8  -171.14772481374    -2.058E-06 2.355E-03 1.258E-05
 ETOT  9  -171.14772496471    -1.510E-07 1.898E-03 5.133E-06
 ETOT 10  -171.14772496788    -3.169E-09 1.345E-03 6.386E-07
 ETOT 11  -171.14772497224    -4.361E-09 6.812E-04 4.003E-07

 At SCF step   11, etot is converged : 
  for the second time, diff in etot=  4.361E-09 < toldfe=  1.000E-08

 Cartesian components of stress tensor (hartree/bohr^3)
  sigma(1 1)= -4.30961447E-06  sigma(3 2)=  1.30341041E-14
  sigma(2 2)= -4.27322347E-06  sigma(3 1)= -2.60027309E-14
  sigma(3 3)= -4.30961447E-06  sigma(2 1)=  1.30341804E-14


--- !ResultsGS
iteration_state: {dtset: 1, }
comment   : Summary of ground state results
lattice_vectors:
- [  0.0000000,  10.6398476,  10.6664046, ]
- [ 10.6664046,   0.0000000,  10.6664046, ]
- [ 10.6664046,  10.6398476,   0.0000000, ]
lattice_lengths: [  15.06581,   15.08457,   15.06581, ]
lattice_angles: [ 59.959,  60.082,  59.959, ] # degrees, (23, 13, 12)
lattice_volume:   2.4210375E+03
convergence: {deltae: -4.361E-09, res2:  4.003E-07, residm:  6.812E-04, diffor: null, }
etotal    :  -1.71147725E+02
entropy   :   0.00000000E+00
fermie    :  -8.01579057E-02
cartesian_stress_tensor: # hartree/bohr^3
- [ -4.30961447E-06,   1.30341804E-14,  -2.60027309E-14, ]
- [  1.30341804E-14,  -4.27322347E-06,   1.30341041E-14, ]
- [ -2.60027309E-14,   1.30341041E-14,  -4.30961447E-06, ]
pressure_GPa:   1.2644E-01
xred      :
- [  2.5218E-01,   2.4782E-01,   2.5218E-01, Cs]
- [  7.5218E-01,   7.4782E-01,   7.5218E-01, Cs]
- [  7.4828E-01,   2.5172E-01,   7.4828E-01,  I]
- [  2.3348E-01,   2.3096E-01,   7.6904E-01, Br]
- [  7.6904E-01,   7.6652E-01,   2.3348E-01, Br]
- [  2.3731E-01,   7.6269E-01,   2.3731E-01, Br]
- [  2.3348E-01,   7.6652E-01,   7.6904E-01, Br]
- [  7.6904E-01,   2.3096E-01,   2.3348E-01, Br]
- [  5.0097E-03,  -5.0097E-03,   5.0097E-03, Hf]
cartesian_forces: # hartree/bohr
- [  7.08378142E-22,   1.63162036E-05,  -6.89982086E-22, ]
- [ -1.38717227E-22,   1.63162036E-05,   1.57113284E-22, ]
- [  1.84943998E-22,  -1.33378396E-05,  -1.66547942E-22, ]
- [ -1.33739296E-17,  -3.04343582E-06,   5.41688394E-06, ]
- [  1.33748415E-17,  -3.04343582E-06,  -5.41688394E-06, ]
- [ -9.28960856E-22,  -1.19345057E-05,   9.47356912E-22, ]
- [ -5.41688394E-06,  -3.04343582E-06,   1.33745070E-17, ]
- [  5.41688394E-06,  -3.04343582E-06,  -1.33742174E-17, ]
- [ -7.74470152E-23,   4.81368144E-06,   9.58430717E-23, ]
force_length_stats: {min:   4.81368144E-06, max:   1.63162036E-05, mean:   9.73018284E-06, }
...

 Integrated electronic density in atomic spheres:
 ------------------------------------------------
 Atom  Sphere_radius  Integrated_density
    1        2.20660          5.36474454
    2        2.20660          5.36474454
    3        2.30022          4.02214252
    4        2.20000          4.93254244
    5        2.20000          4.93254244
    6        2.20000          4.93283469
    7        2.20000          4.93254244
    8        2.20000          4.93254244
    9        2.41000          9.28194535

 PAW TEST:
 ==== Compensation charge inside spheres ============
 The following values must be close to each other ...
 Compensation charge over spherical meshes =     -0.321672061185078
 Compensation charge over fine fft grid    =     -0.321645306764940

 ==== Results concerning PAW augmentation regions ====

 Total pseudopotential strength Dij (hartree):
 Atom #  1
   0.43521  -0.14415   0.00000   0.00000   0.00000  -0.00000   0.00000   0.00000   0.00000   0.00000  -0.00000   0.00000 ...
  -0.14415   0.04340  -0.00000   0.00000   0.00000   0.00000   0.00000   0.00000   0.00000   0.00000   0.00000  -0.00000 ...
   0.00000  -0.00000  -0.09297   0.00000   0.00000  -0.16691   0.00000   0.00000   0.00000   0.00000  -0.00000  -0.00000 ...
   0.00000   0.00000   0.00000  -0.09297   0.00000   0.00000  -0.16691  -0.00000  -0.00000   0.00000   0.00000   0.00000 ...
   0.00000   0.00000   0.00000   0.00000  -0.09297   0.00000  -0.00000  -0.16691   0.00000  -0.00000   0.00000   0.00000 ...
  -0.00000   0.00000  -0.16691   0.00000   0.00000   0.40246   0.00000   0.00000   0.00000   0.00000   0.00000   0.00000 ...
   0.00000   0.00000   0.00000  -0.16691  -0.00000   0.00000   0.40246   0.00001   0.00000  -0.00000   0.00000   0.00000 ...
   0.00000   0.00000   0.00000  -0.00000  -0.16691   0.00000   0.00001   0.40246  -0.00000   0.00000   0.00000   0.00000 ...
   0.00000   0.00000   0.00000  -0.00000   0.00000   0.00000   0.00000  -0.00000   0.00531   0.00000   0.00000   0.00000 ...
   0.00000   0.00000   0.00000   0.00000  -0.00000   0.00000  -0.00000   0.00000   0.00000   0.00531   0.00000   0.00000 ...
  -0.00000   0.00000  -0.00000   0.00000   0.00000   0.00000   0.00000   0.00000   0.00000   0.00000   0.00531   0.00000 ...
   0.00000  -0.00000  -0.00000   0.00000   0.00000   0.00000   0.00000   0.00000   0.00000   0.00000   0.00000   0.00531 ...
   ...  only 12  components have been written...
 Atom #  9
  -3.51144   0.42576   0.00014   0.00000   0.00000  -0.00002   0.00000   0.00000   0.00000   0.00000   0.00004   0.00000 ...
   0.42576   0.00331  -0.00001   0.00000   0.00000   0.00000   0.00000   0.00000   0.00000   0.00000  -0.00001   0.00000 ...
   0.00014  -0.00001  -1.44463   0.00000   0.00000   0.12111   0.00000   0.00000   0.00000   0.00000  -0.00003   0.00000 ...
   0.00000   0.00000   0.00000  -1.44433   0.00000   0.00000   0.12105   0.00000   0.00000   0.00006   0.00000   0.00000 ...
   0.00000   0.00000   0.00000   0.00000  -1.44433   0.00000   0.00000   0.12105   0.00006   0.00000   0.00000   0.00000 ...
  -0.00002   0.00000   0.12111   0.00000   0.00000   0.01376   0.00000   0.00000   0.00000   0.00000   0.00000   0.00000 ...
   0.00000   0.00000   0.00000   0.12105   0.00000   0.00000   0.01376   0.00000   0.00000  -0.00001   0.00000   0.00000 ...
   0.00000   0.00000   0.00000   0.00000   0.12105   0.00000   0.00000   0.01376  -0.00001   0.00000   0.00000   0.00000 ...
   0.00000   0.00000   0.00000   0.00000   0.00006   0.00000   0.00000  -0.00001  -0.39182   0.00000   0.00000   0.00000 ...
   0.00000   0.00000   0.00000   0.00006   0.00000   0.00000  -0.00001   0.00000   0.00000  -0.39182   0.00000   0.00000 ...
   0.00004  -0.00001  -0.00003   0.00000   0.00000   0.00000   0.00000   0.00000   0.00000   0.00000  -0.39112   0.00000 ...
   0.00000   0.00000   0.00000   0.00000   0.00000   0.00000   0.00000   0.00000   0.00000   0.00000   0.00000  -0.39177 ...
   ...  only 12  components have been written...


 Augmentation waves occupancies Rhoij:
 Atom #  1
   1.99734  -0.01570   0.00000   0.00000   0.00000   0.00000   0.00000   0.00000   0.00000   0.00000  -0.00066   0.00260 ...
  -0.01570   0.12422   0.00060   0.00000   0.00000  -0.00003   0.00000   0.00000   0.00000   0.00000   0.00514  -0.01698 ...
   0.00000   0.00060   2.00825   0.00000   0.00000  -0.00480   0.00000   0.00000   0.00000   0.00000   0.00028   0.00093 ...
   0.00000   0.00000   0.00000   2.00977  -0.00177   0.00000  -0.00504   0.00027   0.00093   0.00075   0.00000   0.00000 ...
   0.00000   0.00000   0.00000  -0.00177   2.00977   0.00000   0.00027  -0.00504   0.00075   0.00093   0.00000   0.00000 ...
   0.00000  -0.00003  -0.00480   0.00000   0.00000   0.00008   0.00000   0.00000   0.00000   0.00000  -0.00002  -0.00006 ...
   0.00000   0.00000   0.00000  -0.00504   0.00027   0.00000   0.00010  -0.00002  -0.00006  -0.00003   0.00000   0.00000 ...
   0.00000   0.00000   0.00000   0.00027  -0.00504   0.00000  -0.00002   0.00010  -0.00003  -0.00006   0.00000   0.00000 ...
   0.00000   0.00000   0.00000   0.00093   0.00075   0.00000  -0.00006  -0.00003   0.03356  -0.00041   0.00000   0.00000 ...
   0.00000   0.00000   0.00000   0.00075   0.00093   0.00000  -0.00003  -0.00006  -0.00041   0.03356   0.00000   0.00000 ...
  -0.00066   0.00514   0.00028   0.00000   0.00000  -0.00002   0.00000   0.00000   0.00000   0.00000   0.02335  -0.00522 ...
   0.00260  -0.01698   0.00093   0.00000   0.00000  -0.00006   0.00000   0.00000   0.00000   0.00000  -0.00522   0.04888 ...
   ...  only 12  components have been written...
 Atom #  9
   1.99777  -0.02260  -0.00001   0.00000   0.00000  -0.00019   0.00000   0.00000   0.00000   0.00000   0.00019   0.00000 ...
  -0.02260   1.00025  -0.00129   0.00000   0.00000   0.02639   0.00000   0.00000   0.00000   0.00000   0.01127   0.00000 ...
  -0.00001  -0.00129   1.99208   0.00000   0.00000  -0.06807   0.00000   0.00000   0.00000   0.00000  -0.00039   0.00000 ...
   0.00000   0.00000   0.00000   1.99193   0.00000   0.00000  -0.07060   0.00000   0.00000   0.00092   0.00000   0.00000 ...
   0.00000   0.00000   0.00000   0.00000   1.99193   0.00000   0.00000  -0.07060   0.00092   0.00000   0.00000   0.00000 ...
  -0.00019   0.02639  -0.06807   0.00000   0.00000   1.21438   0.00000   0.00000   0.00000   0.00000  -0.05066   0.00000 ...
   0.00000   0.00000   0.00000  -0.07060   0.00000   0.00000   1.31092   0.00000   0.00000  -0.02150   0.00000   0.00000 ...
   0.00000   0.00000   0.00000   0.00000  -0.07060   0.00000   0.00000   1.31092  -0.02150   0.00000   0.00000   0.00000 ...
   0.00000   0.00000   0.00000   0.00000   0.00092   0.00000   0.00000  -0.02150   0.46978   0.00000   0.00000   0.00000 ...
   0.00000   0.00000   0.00000   0.00092   0.00000   0.00000  -0.02150   0.00000   0.00000   0.46978   0.00000   0.00000 ...
   0.00019   0.01127  -0.00039   0.00000   0.00000  -0.05066   0.00000   0.00000   0.00000   0.00000   1.47263   0.00000 ...
   0.00000   0.00000   0.00000   0.00000   0.00000   0.00000   0.00000   0.00000   0.00000   0.00000   0.00000   0.48512 ...
   ...  only 12  components have been written...


================================================================================

 ----iterations are completed or convergence reached----

 Mean square residual over all n,k,spin=   29.725E-07; max=  68.117E-05
 reduced coordinates (array xred) for    9 atoms
       0.252179351820      0.247820648180      0.252179351820
       0.752179351820      0.747820648180      0.752179351820
       0.748277788010      0.251722211990      0.748277788010
       0.233480664300      0.230957225280      0.769042774720
       0.769042774720      0.766519335700      0.233480664300
       0.237306914360      0.762693085640      0.237306914360
       0.233480664300      0.766519335700      0.769042774720
       0.769042774720      0.230957225280      0.233480664300
       0.005009715948     -0.005009715948      0.005009715948
 rms dE/dt=  9.3865E-05; max dE/dt=  1.2615E-04; dE/dt below (all hartree)
    1      -0.000189359784      0.000000000000     -0.000189359784
    2      -0.000189359784      0.000000000000     -0.000189359784
    3       0.000126154716      0.000000000000      0.000126154716
    4      -0.000041154848     -0.000057778676      0.000016623828
    5       0.000074402504      0.000057778676      0.000016623828
    6       0.000111223457      0.000000000000      0.000111223457
    7       0.000016623828      0.000057778676      0.000074402504
    8       0.000016623828     -0.000057778676     -0.000041154848
    9      -0.000066974702      0.000000000000     -0.000066974702

 cartesian coordinates (angstrom) at end:
    1      2.82220911829988     2.83972352025067     2.82220911829988
    2      8.46662735489976     8.47008837715933     8.46662735489976
    3      5.64441823659296     8.42615392163371     5.64441823659296
    4      5.64441823659238     5.64457273928543     2.62148169371328
    5      5.64441823660731     5.64457273928543     8.66735477948641
    6      5.64441823660720     2.67224902182796     5.64441823660720
    7      8.66735477948641     5.64457273928543     5.64441823660731
    8      2.62148169371328     5.64457273928543     5.64441823659238
    9     -0.00000000000014     0.05641305723793    -0.00000000000014

 cartesian forces (hartree/bohr) at end:
    1      0.00000000000000     0.00001631620357    -0.00000000000000
    2     -0.00000000000000     0.00001631620357     0.00000000000000
    3      0.00000000000000    -0.00001333783964    -0.00000000000000
    4     -0.00000000000000    -0.00000304343582     0.00000541688394
    5      0.00000000000000    -0.00000304343582    -0.00000541688394
    6     -0.00000000000000    -0.00001193450566     0.00000000000000
    7     -0.00000541688394    -0.00000304343582     0.00000000000000
    8      0.00000541688394    -0.00000304343582    -0.00000000000000
    9     -0.00000000000000     0.00000481368144     0.00000000000000
 frms,max,avg= 6.1774964E-06 1.6316204E-05   0.000E+00  1.481E-06  0.000E+00 h/b

 cartesian forces (eV/Angstrom) at end:
    1      0.00000000000000     0.00083901285117    -0.00000000000000
    2     -0.00000000000000     0.00083901285117     0.00000000000000
    3      0.00000000000000    -0.00068585923292    -0.00000000000000
    4     -0.00000000000000    -0.00015649974904     0.00027854734826
    5      0.00000000000000    -0.00015649974904    -0.00027854734826
    6     -0.00000000000000    -0.00061369690436     0.00000000000000
    7     -0.00027854734826    -0.00015649974904     0.00000000000000
    8      0.00027854734826    -0.00015649974904    -0.00000000000000
    9     -0.00000000000000     0.00024752943108     0.00000000000000
 frms,max,avg= 3.1765961E-04 8.3901285E-04   0.000E+00  7.616E-05  0.000E+00 e/A
 length scales= 15.065807154000 15.084574113000 15.065807154000 bohr
              =  7.972481774909  7.982412821886  7.972481774909 angstroms
 prteigrs : about to open file Cs2TiI6o_DS1_EIG
 Fermi (or HOMO) energy (hartree) =  -0.08016   Average Vxc (hartree)=  -0.28890
 Eigenvalues (hartree) for nkpt= 163  k points:
 kpt#   1, nband= 42, wtk=  0.00058, kpt=  0.0000  0.0000  0.0000 (reduced coord)
  -2.36845   -1.21257   -1.21257   -1.21246   -0.81943   -0.81922   -0.58691   -0.57323
  -0.57141   -0.57130   -0.57130   -0.47832   -0.33770   -0.33770   -0.33743   -0.33511
  -0.33511   -0.33498   -0.22311   -0.16925   -0.16914   -0.16908   -0.16767   -0.16767
  -0.16374   -0.16374   -0.15362   -0.12161   -0.11788   -0.11788   -0.10502   -0.10502
  -0.09716   -0.09256   -0.08016   -0.08016    0.02370    0.02370    0.02739    0.07882
   0.10709    0.10942
 prteigrs : prtvol=0 or 1, do not print more k-points.


--- !EnergyTerms
iteration_state     : {dtset: 1, }
comment             : Components of total free energy in Hartree
kinetic             :  4.30726734538987E+01
hartree             :  3.97901145261470E+01
xc                  : -6.76364609871315E+01
Ewald energy        : -1.18363125663028E+02
psp_core            :  1.27598609580077E+01
local_psp           : -8.87936100615194E+01
spherical_terms     :  8.02274693772366E+00
total_energy        : -1.71147800835902E+02
total_energy_eV     : -4.65716850534055E+03
...


--- !EnergyTermsDC
iteration_state     : {dtset: 1, }
comment             : '"Double-counting" decomposition of free energy'
band_energy         : -3.10794437247335E+01
Ewald energy        : -1.18363125663028E+02
psp_core            :  1.27598609580077E+01
xc_dc               : -6.74216347390580E+01
spherical_terms     :  3.29566181965710E+01
total_energy_dc     : -1.71147724972241E+02
total_energy_dc_eV  : -4.65716644098535E+03
...


 Cartesian components of stress tensor (hartree/bohr^3)
  sigma(1 1)= -4.30961447E-06  sigma(3 2)=  1.30341041E-14
  sigma(2 2)= -4.27322347E-06  sigma(3 1)= -2.60027309E-14
  sigma(3 3)= -4.30961447E-06  sigma(2 1)=  1.30341804E-14

-Cartesian components of stress tensor (GPa)         [Pressure=  1.2644E-01 GPa]
- sigma(1 1)= -1.26793214E-01  sigma(3 2)=  3.83476517E-10
- sigma(2 2)= -1.25722554E-01  sigma(3 1)= -7.65026627E-10
- sigma(3 3)= -1.26793214E-01  sigma(2 1)=  3.83478763E-10

================================================================================
== DATASET  2 ==================================================================
-   mpi_nproc: 6, omp_nthreads: -1 (-1 if OMP is not activated)


--- !DatasetInfo
iteration_state: {dtset: 2, }
dimensions: {natom: 9, nkpt: 163, mband: 42, nsppol: 1, nspinor: 1, nspden: 1, mpw: 7222, }
cutoff_energies: {ecut:  16.0, pawecutdg:  40.0, }
electrons: {nelect:   7.20000000E+01, charge:   0.00000000E+00, occopt:   1.00000000E+00, tsmear:   1.00000000E-02, }
meta: {optdriver: 0, ionmov: 0, optcell: 0, iscf: 17, paral_kgb: 0, }
...

 Real(R)+Recip(G) space primitive vectors, cartesian coordinates (Bohr,Bohr^-1):
 R(1)=  0.0000000 10.5311151 10.5592944  G(1)= -0.0473516  0.0474784  0.0473516
 R(2)= 10.5592944  0.0000000 10.5592944  G(2)=  0.0473516 -0.0474784  0.0473516
 R(3)= 10.5592944 10.5311151  0.0000000  G(3)=  0.0473516  0.0474784 -0.0473516
 Unit cell volume ucvol=  2.3484113E+03 bohr^3
 Angles (23,13,12)=  5.99558212E+01  6.00883575E+01  5.99558212E+01 degrees

 Coarse grid specifications (used for wave-functions):

 getcut: wavevector=  0.0000  0.0000  0.0000  ngfft=  54  54  54
         ecut(hartree)=     16.000   => boxcut(ratio)=   2.00895

 Fine grid specifications (used for densities):

 getcut: wavevector=  0.0000  0.0000  0.0000  ngfft=  90  90  90
         ecut(hartree)=     40.000   => boxcut(ratio)=   2.11715

--- Pseudopotential description ------------------------------------------------
- pspini: atom type   1  psp file is ../../../Psps_for_tests/ATOMICDATA/Cs.GGA_PBE-JTH.xml
- pspatm: opening atomic psp file    ../../../Psps_for_tests/ATOMICDATA/Cs.GGA_PBE-JTH.xml
- pspatm : Reading pseudopotential header in XML form from ../../../Psps_for_tests/ATOMICDATA/Cs.GGA_PBE-JTH.xml
 Pseudopotential format is: paw10
 basis_size (lnmax)=  6 (lmn_size= 18), orbitals=   0   0   1   1   2   2
 Spheres core radius: rc_sph= 2.20660278
 1 radial meshes are used:
  - mesh 1: r(i)=AA*[exp(BB*(i-1))-1], size=1500 , AA= 0.15922E-03 BB= 0.87573E-02
 Shapefunction is SIN type: shapef(r)=[sin(pi*r/rshp)/(pi*r/rshp)]**2
 Radius for shape functions =  2.00394208
 mmax= 1500
 Radial grid used for partial waves is grid 1
 Radial grid used for projectors is grid 1
 Radial grid used for (t)core density is grid 1
 Radial grid used for Vloc is grid 1
 Radial grid used for pseudo valence density is grid 1
 Mesh size for Vloc has been set to 1341 to avoid numerical noise.
 Compensation charge density is not taken into account in XC energy/potential
 pspatm: atomic psp has been read  and splines computed

- pspini: atom type   2  psp file is ../../../Psps_for_tests/ATOMICDATA/I.GGA_PBE-JTH.xml
- pspatm: opening atomic psp file    ../../../Psps_for_tests/ATOMICDATA/I.GGA_PBE-JTH.xml
- pspatm : Reading pseudopotential header in XML form from ../../../Psps_for_tests/ATOMICDATA/I.GGA_PBE-JTH.xml
 Pseudopotential format is: paw10
 basis_size (lnmax)=  4 (lmn_size=  8), orbitals=   0   0   1   1
 Spheres core radius: rc_sph= 2.30022271
 1 radial meshes are used:
  - mesh 1: r(i)=AA*[exp(BB*(i-1))-1], size=2000 , AA= 0.12610E-03 BB= 0.66836E-02
 Shapefunction is SIN type: shapef(r)=[sin(pi*r/rshp)/(pi*r/rshp)]**2
 Radius for shape functions =  2.10879093
 mmax= 2000
 Radial grid used for partial waves is grid 1
 Radial grid used for projectors is grid 1
 Radial grid used for (t)core density is grid 1
 Radial grid used for Vloc is grid 1
 Radial grid used for pseudo valence density is grid 1
 Mesh size for Vloc has been set to 1792 to avoid numerical noise.
 Compensation charge density is not taken into account in XC energy/potential
 pspatm: atomic psp has been read  and splines computed

- pspini: atom type   3  psp file is ../../../Psps_for_tests/ATOMICDATA/Hf.GGA_PBE-JTH.xml
- pspatm: opening atomic psp file    ../../../Psps_for_tests/ATOMICDATA/Hf.GGA_PBE-JTH.xml
- pspatm : Reading pseudopotential header in XML form from ../../../Psps_for_tests/ATOMICDATA/Hf.GGA_PBE-JTH.xml
 Pseudopotential format is: paw10
 basis_size (lnmax)=  6 (lmn_size= 18), orbitals=   0   0   1   1   2   2
 Spheres core radius: rc_sph= 2.41000000
 1 radial meshes are used:
  - mesh 1: r(i)=AA*[exp(BB*(i-1))-1], size= 972 , AA= 0.19796E-03 BB= 0.14253E-01
 Shapefunction is SIN type: shapef(r)=[sin(pi*r/rshp)/(pi*r/rshp)]**2
 Radius for shape functions =  2.41000000
 mmax=  972
 Radial grid used for partial waves is grid 1
 Radial grid used for projectors is grid 1
 Radial grid used for (t)core density is grid 1
 Radial grid used for Vloc is grid 1
 Radial grid used for pseudo valence density is grid 1
 Mesh size for Vloc has been set to  809 to avoid numerical noise.
 Compensation charge density is not taken into account in XC energy/potential
 pspatm: atomic psp has been read  and splines computed

- pspini: atom type   4  psp file is ../../../Psps_for_tests/ATOMICDATA/Br.GGA_PBE-JTH.xml
- pspatm: opening atomic psp file    ../../../Psps_for_tests/ATOMICDATA/Br.GGA_PBE-JTH.xml
- pspatm : Reading pseudopotential header in XML form from ../../../Psps_for_tests/ATOMICDATA/Br.GGA_PBE-JTH.xml
 Pseudopotential format is: paw10
 basis_size (lnmax)=  4 (lmn_size=  8), orbitals=   0   0   1   1
 Spheres core radius: rc_sph= 2.20000000
 1 radial meshes are used:
  - mesh 1: r(i)=AA*[exp(BB*(i-1))-1], size= 927 , AA= 0.40483E-03 BB= 0.14169E-01
 Shapefunction is BESSEL type: shapef(r,l)=aa(1,l)*jl(q(1,l)*r)+aa(2,l)*jl(q(2,l)*r)
 Radius for shape functions =  2.02066386
 mmax=  927
 Radial grid used for partial waves is grid 1
 Radial grid used for projectors is grid 1
 Radial grid used for (t)core density is grid 1
 Radial grid used for Vloc is grid 1
 Radial grid used for pseudo valence density is grid 1
 Mesh size for Vloc has been set to  763 to avoid numerical noise.
 Compensation charge density is not taken into account in XC energy/potential
 pspatm: atomic psp has been read  and splines computed

--------------------------------------------------------------------------------

_setup2: Arith. and geom. avg. npw (full set) are    7178.756    7178.746

================================================================================

--- !BeginCycle
iteration_state: {dtset: 2, }
solver: {iscf: 17, nstep: 2500, nline: 4, wfoptalg: 10, }
tolerances: {toldfe: 1.00E-08, }
...

     iter   Etot(hartree)      deltaE(h)  residm     nres2
 ETOT  1  -169.76532525953    -1.698E+02 7.598E+00 6.600E+00
 ETOT  2  -171.15330747036    -1.388E+00 2.457E-02 2.010E+00
 ETOT  3  -171.14582805107     7.479E-03 1.675E-02 3.628E-01
 ETOT  4  -171.14663222728    -8.042E-04 1.212E-02 8.524E-02
 ETOT  5  -171.14662334432     8.883E-06 4.622E-03 6.575E-03
 ETOT  6  -171.14669259017    -6.925E-05 2.281E-03 9.924E-04
 ETOT  7  -171.14670431484    -1.172E-05 2.454E-03 1.869E-04
 ETOT  8  -171.14670635606    -2.041E-06 1.677E-03 8.927E-06
 ETOT  9  -171.14670650069    -1.446E-07 1.692E-03 2.833E-06
 ETOT 10  -171.14670650973    -9.038E-09 1.484E-03 3.334E-07
 ETOT 11  -171.14670651166    -1.936E-09 7.422E-04 1.881E-07

 At SCF step   11, etot is converged : 
  for the second time, diff in etot=  1.936E-09 < toldfe=  1.000E-08

 Cartesian components of stress tensor (hartree/bohr^3)
  sigma(1 1)= -1.43780777E-05  sigma(3 2)=  1.30324453E-13
  sigma(2 2)= -1.43800878E-05  sigma(3 1)= -2.59954232E-13
  sigma(3 3)= -1.43780777E-05  sigma(2 1)=  1.30325310E-13


--- !ResultsGS
iteration_state: {dtset: 2, }
comment   : Summary of ground state results
lattice_vectors:
- [  0.0000000,  10.5311151,  10.5592944, ]
- [ 10.5592944,   0.0000000,  10.5592944, ]
- [ 10.5592944,  10.5311151,   0.0000000, ]
lattice_lengths: [  14.91318,   14.93310,   14.91318, ]
lattice_angles: [ 59.956,  60.088,  59.956, ] # degrees, (23, 13, 12)
lattice_volume:   2.3484113E+03
convergence: {deltae: -1.936E-09, res2:  1.881E-07, residm:  7.422E-04, diffor: null, }
etotal    :  -1.71146707E+02
entropy   :   0.00000000E+00
fermie    :  -7.52394112E-02
cartesian_stress_tensor: # hartree/bohr^3
- [ -1.43780777E-05,   1.30325310E-13,  -2.59954232E-13, ]
- [  1.30325310E-13,  -1.43800878E-05,   1.30324453E-13, ]
- [ -2.59954232E-13,   1.30324453E-13,  -1.43780777E-05, ]
pressure_GPa:   4.2304E-01
xred      :
- [  2.5225E-01,   2.4775E-01,   2.5225E-01, Cs]
- [  7.5225E-01,   7.4775E-01,   7.5225E-01, Cs]
- [  7.4636E-01,   2.5364E-01,   7.4636E-01,  I]
- [  2.3550E-01,   2.3323E-01,   7.6677E-01, Br]
- [  7.6677E-01,   7.6450E-01,   2.3550E-01, Br]
- [  2.3956E-01,   7.6044E-01,   2.3956E-01, Br]
- [  2.3550E-01,   7.6450E-01,   7.6677E-01, Br]
- [  7.6677E-01,   2.3323E-01,   2.3550E-01, Br]
- [  5.0436E-03,  -5.0436E-03,   5.0436E-03, Hf]
cartesian_forces: # hartree/bohr
- [  4.14889183E-22,   1.25062145E-05,  -3.95771166E-22, ]
- [ -8.68579824E-22,   1.25062145E-05,   8.87697841E-22, ]
- [  1.18744038E-23,  -2.48629330E-05,   7.24361316E-24, ]
- [ -1.60415566E-17,   2.31071939E-06,   6.89540060E-07, ]
- [  1.60415103E-17,   2.31071939E-06,  -6.89540060E-07, ]
- [  1.84247899E-22,  -5.49030986E-06,  -1.65129882E-22, ]
- [ -6.89540060E-07,   2.31071939E-06,   1.60415156E-17, ]
- [  6.89540060E-07,   2.31071939E-06,  -1.60415242E-17, ]
- [  2.66283425E-22,  -3.90206370E-06,  -2.47165408E-22, ]
force_length_stats: {min:   2.41140822E-06, max:   2.48629330E-05, mean:   7.65704093E-06, }
...

 Integrated electronic density in atomic spheres:
 ------------------------------------------------
 Atom  Sphere_radius  Integrated_density
    1        2.20660          5.36357748
    2        2.20660          5.36357748
    3        2.30022          4.02630576
    4        2.20000          4.94034516
    5        2.20000          4.94034516
    6        2.20000          4.94092473
    7        2.20000          4.94034516
    8        2.20000          4.94034516
    9        2.41000          9.28772986

 PAW TEST:
 ==== Compensation charge inside spheres ============
 The following values must be close to each other ...
 Compensation charge over spherical meshes =     -0.322805839940200
 Compensation charge over fine fft grid    =     -0.322795803072177

 ==== Results concerning PAW augmentation regions ====

 Total pseudopotential strength Dij (hartree):
 Atom #  1
[...]
                       7.7774582462E+00  5.1892493647E+00  5.1799001543E+00
                       2.5823420622E+00  5.1892493647E+00  5.1799001542E+00
                      -1.5962210003E-12  6.5735615726E-02 -1.5962210003E-12
           xangst10    2.5601330032E+00  2.5853672235E+00  2.5601330032E+00
                       7.6803990097E+00  7.7259435067E+00  7.6803990097E+00
                       5.1202660064E+00  7.5620813302E+00  5.1202660064E+00
                       5.1202660064E+00  5.1350073818E+00  2.5729802187E+00
                       5.1202660065E+00  5.1350073818E+00  7.6675517942E+00
                       5.1202660065E+00  2.6419701810E+00  5.1202660065E+00
                       7.6675517942E+00  5.1350073818E+00  5.1202660065E+00
                       2.5729802187E+00  5.1350073818E+00  5.1202660064E+00
                      -2.2981314364E-12  6.9218496977E-02 -2.2981314364E-12
            xcart1     5.3332023233E+00  5.3662997464E+00  5.3332023233E+00
                       1.5999606970E+01  1.6006147354E+01  1.5999606970E+01
                       1.0666404647E+01  1.5923123265E+01  1.0666404647E+01
                       1.0666404647E+01  1.0666696614E+01  4.9538824635E+00
                       1.0666404647E+01  1.0666696614E+01  1.6378926830E+01
                       1.0666404647E+01  5.0498188101E+00  1.0666404647E+01
                       1.6378926830E+01  1.0666696614E+01  1.0666404647E+01
                       4.9538824635E+00  1.0666696614E+01  1.0666404647E+01
                      -2.6385529669E-13  1.0660522850E-01 -2.6385529669E-13
            xcart2     5.2796472244E+00  5.3128455935E+00  5.2796472244E+00
                       1.5838941673E+01  1.5843960722E+01  1.5838941673E+01
                       1.0559294449E+01  1.5720004622E+01  1.0559294449E+01
                       1.0559294449E+01  1.0555030696E+01  4.9495055609E+00
                       1.0559294449E+01  1.0555030696E+01  1.6169083337E+01
                       1.0559294449E+01  5.0457584010E+00  1.0559294449E+01
                       1.6169083337E+01  1.0555030696E+01  1.0559294449E+01
                       4.9495055609E+00  1.0555030696E+01  1.0559294449E+01
                      -2.4779160642E-12  1.0622890867E-01 -2.4779160642E-12
            xcart3     5.2268287280E+00  5.2615216180E+00  5.2268287280E+00
                       1.5680486184E+01  1.5680967111E+01  1.5680486184E+01
                       1.0453657456E+01  1.5511604767E+01  1.0453657456E+01
                       1.0453657456E+01  1.0439057123E+01  4.9439969540E+00
                       1.0453657456E+01  1.0439057123E+01  1.5963317958E+01
                       1.0453657456E+01  5.0402217067E+00  1.0453657456E+01
                       1.5963317958E+01  1.0439057123E+01  1.0453657456E+01
                       4.9439969540E+00  1.0439057123E+01  1.0453657456E+01
                      -2.9993669878E-12  1.0502025025E-01 -2.9993669878E-12
            xcart4     5.1725893362E+00  5.2076957817E+00  5.1725893362E+00
                       1.5517768009E+01  1.5521138054E+01  1.5517768009E+01
                       1.0345178672E+01  1.5318606903E+01  1.0345178672E+01
                       1.0345178672E+01  1.0329569824E+01  4.9373471597E+00
                       1.0345178673E+01  1.0329569824E+01  1.5753010185E+01
                       1.0345178673E+01  5.0357785288E+00  1.0345178673E+01
                       1.5753010185E+01  1.0329569824E+01  1.0345178673E+01
                       4.9373471597E+00  1.0329569824E+01  1.0345178672E+01
                      -1.8227966837E-12  1.0603961239E-01 -1.8227966837E-12
            xcart5     5.1185591025E+00  5.1500139576E+00  5.1185591025E+00
                       1.5355677307E+01  1.5356619116E+01  1.5355677307E+01
                       1.0237118205E+01  1.5127468078E+01  1.0237118205E+01
                       1.0237118205E+01  1.0219351070E+01  4.9292490458E+00
                       1.0237118205E+01  1.0219351070E+01  1.5544987364E+01
                       1.0237118205E+01  5.0323213919E+00  1.0237118205E+01
                       1.5544987364E+01  1.0219351070E+01  1.0237118205E+01
                       4.9292490458E+00  1.0219351070E+01  1.0237118205E+01
                      -6.2041418198E-13  1.0901443810E-01 -6.2041418198E-13
            xcart6     5.0626503870E+00  5.0967175011E+00  5.0626503870E+00
                       1.5187951161E+01  1.5203981966E+01  1.5187951161E+01
                       1.0125300774E+01  1.4953071027E+01  1.0125300774E+01
                       1.0125300774E+01  1.0116214458E+01  4.9196864199E+00
                       1.0125300774E+01  1.0116214458E+01  1.5330915128E+01
                       1.0125300774E+01  5.0272376838E+00  1.0125300774E+01
                       1.5330915128E+01  1.0116214458E+01  1.0125300774E+01
                       4.9196864199E+00  1.0116214458E+01  1.0125300774E+01
                      -2.5702049349E-12  1.1224971215E-01 -2.5702049349E-12
            xcart7     5.0061916836E+00  5.0467639703E+00  5.0061916836E+00
                       1.5018575051E+01  1.5056896791E+01  1.5018575051E+01
                       1.0012383367E+01  1.4785052040E+01  1.0012383367E+01
                       1.0012383367E+01  1.0014220552E+01  4.9085647620E+00
                       1.0012383367E+01  1.0014220552E+01  1.5116201972E+01
                       1.0012383367E+01  5.0204360849E+00  1.0012383367E+01
                       1.5116201972E+01  1.0014220552E+01  1.0012383367E+01
                       4.9085647620E+00  1.0014220552E+01  1.0012383367E+01
                      -3.7323990958E-12  1.1503146931E-01 -3.7323990958E-12
            xcart8     4.9504855930E+00  4.9946415784E+00  4.9504855930E+00
                       1.4851456779E+01  1.4904645430E+01  1.4851456779E+01
                       9.9009711861E+00  1.4613589792E+01  9.9009711861E+00
                       9.9009711860E+00  9.9092650106E+00  4.8951427647E+00
                       9.9009711861E+00  9.9092650106E+00  1.4906799607E+01
                       9.9009711861E+00  5.0118262695E+00  9.9009711861E+00
                       1.4906799607E+01  9.9092650106E+00  9.9009711861E+00
                       4.8951427647E+00  9.9092650106E+00  9.9009711860E+00
                      -5.1796887575E-13  1.1826769868E-01 -5.1796887575E-13
            xcart9     4.8942963436E+00  4.9401416757E+00  4.8942963436E+00
                       1.4682889031E+01  1.4751962221E+01  1.4682889031E+01
                       9.7885926870E+00  1.4449943797E+01  9.7885926870E+00
                       9.7885926870E+00  9.8062601345E+00  4.8799192791E+00
                       9.7885926873E+00  9.8062601345E+00  1.4697266095E+01
                       9.7885926873E+00  5.0032538227E+00  9.7885926873E+00
                       1.4697266095E+01  9.8062601345E+00  9.7885926873E+00
                       4.8799192791E+00  9.8062601345E+00  9.7885926870E+00
                      -3.0164205380E-12  1.2422231090E-01 -3.0164205380E-12
            xcart10    4.8379502399E+00  4.8856360053E+00  4.8379502399E+00
                       1.4513850720E+01  1.4599917346E+01  1.4513850720E+01
                       9.6759004796E+00  1.4290262709E+01  9.6759004796E+00
                       9.6759004796E+00  9.7037576420E+00  4.8622279586E+00
                       9.6759004799E+00  9.7037576420E+00  1.4489573001E+01
                       9.6759004799E+00  4.9926000934E+00  9.6759004799E+00
                       1.4489573001E+01  9.7037576420E+00  9.6759004799E+00
                       4.8622279586E+00  9.7037576420E+00  9.6759004796E+00
                      -4.3428390322E-12  1.3080400262E-01 -4.3428390322E-12
             xred1     2.5217935182E-01  2.4782064818E-01  2.5217935182E-01
                       7.5217935182E-01  7.4782064818E-01  7.5217935182E-01
                       7.4827778801E-01  2.5172221199E-01  7.4827778801E-01
                       2.3348066430E-01  2.3095722528E-01  7.6904277472E-01
                       7.6904277472E-01  7.6651933570E-01  2.3348066430E-01
                       2.3730691436E-01  7.6269308564E-01  2.3730691436E-01
                       2.3348066430E-01  7.6651933570E-01  7.6904277472E-01
                       7.6904277472E-01  2.3095722528E-01  2.3348066430E-01
                       5.0097159484E-03 -5.0097159484E-03  5.0097159484E-03
             xred2     2.5224515773E-01  2.4775484227E-01  2.5224515773E-01
                       7.5224515773E-01  7.4775484227E-01  7.5224515773E-01
                       7.4635992626E-01  2.5364007374E-01  7.4635992626E-01
                       2.3550271970E-01  2.3323177623E-01  7.6676822377E-01
                       7.6676822377E-01  7.6449728030E-01  2.3550271970E-01
                       2.3956429776E-01  7.6043570224E-01  2.3956429776E-01
                       2.3550271970E-01  7.6449728030E-01  7.6676822377E-01
                       7.6676822377E-01  2.3323177623E-01  2.3550271970E-01
                       5.0435736089E-03 -5.0435736089E-03  5.0435736089E-03
             xred3     2.5248568273E-01  2.4751431727E-01  2.5248568273E-01
                       7.5248568273E-01  7.4751431727E-01  7.5248568273E-01
                       7.4435845829E-01  2.5564154171E-01  7.4435845829E-01
                       2.3741322112E-01  2.3553100676E-01  7.6446899324E-01
                       7.6446899324E-01  7.6258677888E-01  2.3741322112E-01
                       2.4186611994E-01  7.5813388006E-01  2.4186611994E-01
                       2.3741322112E-01  7.6258677888E-01  7.6446899324E-01
                       7.6446899324E-01  2.3553100676E-01  2.3741322112E-01
                       5.0396276040E-03 -5.0396276040E-03  5.0396276040E-03
             xred4     2.5247127217E-01  2.4752872783E-01  2.5247127217E-01
                       7.5247127217E-01  7.4752872783E-01  7.5247127217E-01
                       7.4265247717E-01  2.5734752283E-01  7.4265247717E-01
                       2.3941221782E-01  2.3784847685E-01  7.6215152315E-01
                       7.6215152315E-01  7.6058778218E-01  2.3941221782E-01
                       2.4413665176E-01  7.5586334824E-01  2.4413665176E-01
                       2.3941221782E-01  7.6058778218E-01  7.6215152315E-01
                       7.6215152315E-01  2.3784847685E-01  2.3941221782E-01
                       5.1408448116E-03 -5.1408448116E-03  5.1408448116E-03
             xred5     2.5228829165E-01  2.4771170835E-01  2.5228829165E-01
                       7.5228829165E-01  7.4771170835E-01  7.5228829165E-01
                       7.4106266698E-01  2.5893733302E-01  7.4106266698E-01
                       2.4137813806E-01  2.4012934746E-01  7.5987065254E-01
                       7.5987065254E-01  7.5862186194E-01  2.4137813806E-01
                       2.4652278177E-01  7.5347721823E-01  2.4652278177E-01
                       2.4137813806E-01  7.5862186194E-01  7.5987065254E-01
                       7.5987065254E-01  2.4012934746E-01  2.4137813806E-01
                       5.3403867601E-03 -5.3403867601E-03  5.3403867601E-03
             xred6     2.5213140106E-01  2.4786859894E-01  2.5213140106E-01
                       7.5213140106E-01  7.4786859894E-01  7.5213140106E-01
                       7.3971899510E-01  2.6028100490E-01  7.3971899510E-01
                       2.4338301122E-01  2.4249751023E-01  7.5750248977E-01
                       7.5750248977E-01  7.5661698878E-01  2.4338301122E-01
                       2.4869427831E-01  7.5130572169E-01  2.4869427831E-01
                       2.4338301122E-01  7.5661698878E-01  7.5750248977E-01
                       7.5750248977E-01  2.4249751023E-01  2.4338301122E-01
                       5.5529224813E-03 -5.5529224813E-03  5.5529224813E-03
             xred7     2.5208276757E-01  2.4791723243E-01  2.5208276757E-01
                       7.5208276757E-01  7.4791723243E-01  7.5208276757E-01
                       7.3850428887E-01  2.6149571113E-01  7.3850428887E-01
                       2.4532887088E-01  2.4492051151E-01  7.5507948849E-01
                       7.5507948849E-01  7.5467112912E-01  2.4532887088E-01
                       2.5076770583E-01  7.4923229417E-01  2.5076770583E-01
                       2.4532887088E-01  7.5467112912E-01  7.5507948849E-01
                       7.5507948849E-01  2.4492051151E-01  2.4532887088E-01
                       5.7457513987E-03 -5.7457513987E-03  5.7457513987E-03
             xred8     2.5199998170E-01  2.4800001830E-01  2.5199998170E-01
                       7.5199998170E-01  7.4800001830E-01  7.5199998170E-01
                       7.3731504101E-01  2.6268495899E-01  7.3731504101E-01
                       2.4716790431E-01  2.4724245935E-01  7.5275754065E-01
                       7.5275754065E-01  7.5283209569E-01  2.4716790431E-01
                       2.5286701926E-01  7.4713298074E-01  2.5286701926E-01
                       2.4716790431E-01  7.5283209569E-01  7.5275754065E-01
                       7.5275754065E-01  2.4724245935E-01  2.4716790431E-01
                       5.9670864135E-03 -5.9670864135E-03  5.9670864135E-03
             xred9     2.5174439609E-01  2.4825560391E-01  2.5174439609E-01
                       7.5174439609E-01  7.4825560391E-01  7.5174439609E-01
                       7.3635385656E-01  2.6364614344E-01  7.3635385656E-01
                       2.4898226880E-01  2.4954897415E-01  7.5045102585E-01
                       7.5045102585E-01  7.5101773120E-01  2.4898226880E-01
                       2.5496052437E-01  7.4503947563E-01  2.5496052437E-01
                       2.4898226880E-01  7.5101773120E-01  7.5045102585E-01
                       7.5045102585E-01  2.4954897415E-01  2.4898226880E-01
                       6.3302376108E-03 -6.3302376108E-03  6.3302376108E-03
             xred10    2.5146667232E-01  2.4853332768E-01  2.5146667232E-01
                       7.5146667232E-01  7.4853332768E-01  7.5146667232E-01
                       7.3552855882E-01  2.6447144118E-01  7.3552855882E-01
                       2.5071288451E-01  2.5179620690E-01  7.4820379310E-01
                       7.4820379310E-01  7.4928711549E-01  2.5071288451E-01
                       2.5697217933E-01  7.4302782067E-01  2.5697217933E-01
                       2.5071288451E-01  7.4928711549E-01  7.4820379310E-01
                       7.4820379310E-01  2.5179620690E-01  2.5071288451E-01
                       6.7325619895E-03 -6.7325619895E-03  6.7325619895E-03
            znucl       55.00000   53.00000   72.00000   35.00000

================================================================================


- Timing analysis has been suppressed with timopt=0



================================================================================

 Suggested references for the acknowledgment of ABINIT usage.

 The users of ABINIT have little formal obligations with respect to the ABINIT group
 (those specified in the GNU General Public License, http://www.gnu.org/copyleft/gpl.txt).
 However, it is common practice in the scientific literature,
 to acknowledge the efforts of people that have made the research possible.
 In this spirit, please find below suggested citations of work written by ABINIT developers,
 corresponding to implementations inside of ABINIT that you have used in the present run.
 Note also that it will be of great value to readers of publications presenting these results,
 to read papers enabling them to understand the theoretical formalism and details
 of the ABINIT implementation.
 For information on why they are suggested, see also https://docs.abinit.org/theory/acknowledgments.
-
- [1] Implementation of the Projector Augmented-Wave Method in the ABINIT code.
- M. Torrent, F. Jollet, F. Bottin, G. Zerah, and X. Gonze Comput. Mat. Science 42, 337, (2008).
- Comment: PAW calculations. Strong suggestion to cite this paper.
- DOI and bibtex: see https://docs.abinit.org/theory/bibliography/#torrent2008
-
- [2] Libxc: A library of exchange and correlation functionals for density functional theory.
- M.A.L. Marques, M.J.T. Oliveira, T. Burnus, Computer Physics Communications 183, 2227 (2012).
- Comment: to be cited when LibXC is used (negative value of ixc)
- Strong suggestion to cite this paper.
- DOI and bibtex: see https://docs.abinit.org/theory/bibliography/#marques2012
-
- [3] The Abinit project: Impact, environment and recent developments.
- Computer Phys. Comm. 248, 107042 (2020).
- X.Gonze, B. Amadon, G. Antonius, F.Arnardi, L.Baguet, J.-M.Beuken,
- J.Bieder, F.Bottin, J.Bouchet, E.Bousquet, N.Brouwer, F.Bruneval,
- G.Brunin, T.Cavignac, J.-B. Charraud, Wei Chen, M.Cote, S.Cottenier,
- J.Denier, G.Geneste, Ph.Ghosez, M.Giantomassi, Y.Gillet, O.Gingras,
- D.R.Hamann, G.Hautier, Xu He, N.Helbig, N.Holzwarth, Y.Jia, F.Jollet,
- W.Lafargue-Dit-Hauret, K.Lejaeghere, M.A.L.Marques, A.Martin, C.Martins,
- H.P.C. Miranda, F.Naccarato, K. Persson, G.Petretto, V.Planes, Y.Pouillon,
- S.Prokhorenko, F.Ricci, G.-M.Rignanese, A.H.Romero, M.M.Schmitt, M.Torrent,
- M.J.van Setten, B.Van Troeye, M.J.Verstraete, G.Zerah and J.W.Zwanzig
- Comment: the fifth generic paper describing the ABINIT project.
- Note that a version of this paper, that is not formatted for Computer Phys. Comm. 
- is available at https://www.abinit.org/sites/default/files/ABINIT20.pdf .
- The licence allows the authors to put it on the Web.
- DOI and bibtex: see https://docs.abinit.org/theory/bibliography/#gonze2020
-
- [4] ABINIT: Overview, and focus on selected capabilities
- J. Chem. Phys. 152, 124102 (2020).
- A. Romero, D.C. Allan, B. Amadon, G. Antonius, T. Applencourt, L.Baguet,
- J.Bieder, F.Bottin, J.Bouchet, E.Bousquet, F.Bruneval,
- G.Brunin, D.Caliste, M.Cote,
- J.Denier, C. Dreyer, Ph.Ghosez, M.Giantomassi, Y.Gillet, O.Gingras,
- D.R.Hamann, G.Hautier, F.Jollet, G. Jomard,
- A.Martin, 
- H.P.C. Miranda, F.Naccarato, G.Petretto, N.A. Pike, V.Planes,
- S.Prokhorenko, T. Rangel, F.Ricci, G.-M.Rignanese, M.Royo, M.Stengel, M.Torrent,
- M.J.van Setten, B.Van Troeye, M.J.Verstraete, J.Wiktor, J.W.Zwanziger, and X.Gonze.
- Comment: a global overview of ABINIT, with focus on selected capabilities .
- Note that a version of this paper, that is not formatted for J. Chem. Phys 
- is available at https://www.abinit.org/sites/default/files/ABINIT20_JPC.pdf .
- The licence allows the authors to put it on the Web.
- DOI and bibtex: see https://docs.abinit.org/theory/bibliography/#romero2020
-
- [5] Recent developments in the ABINIT software package.
- Computer Phys. Comm. 205, 106 (2016).
- X.Gonze, F.Jollet, F.Abreu Araujo, D.Adams, B.Amadon, T.Applencourt,
- C.Audouze, J.-M.Beuken, J.Bieder, A.Bokhanchuk, E.Bousquet, F.Bruneval
- D.Caliste, M.Cote, F.Dahm, F.Da Pieve, M.Delaveau, M.Di Gennaro,
- B.Dorado, C.Espejo, G.Geneste, L.Genovese, A.Gerossier, M.Giantomassi,
- Y.Gillet, D.R.Hamann, L.He, G.Jomard, J.Laflamme Janssen, S.Le Roux,
- A.Levitt, A.Lherbier, F.Liu, I.Lukacevic, A.Martin, C.Martins,
- M.J.T.Oliveira, S.Ponce, Y.Pouillon, T.Rangel, G.-M.Rignanese,
- A.H.Romero, B.Rousseau, O.Rubel, A.A.Shukri, M.Stankovski, M.Torrent,
- M.J.Van Setten, B.Van Troeye, M.J.Verstraete, D.Waroquier, J.Wiktor,
- B.Xu, A.Zhou, J.W.Zwanziger.
- Comment: the fourth generic paper describing the ABINIT project.
- Note that a version of this paper, that is not formatted for Computer Phys. Comm. 
- is available at https://www.abinit.org/sites/default/files/ABINIT16.pdf .
- The licence allows the authors to put it on the Web.
- DOI and bibtex: see https://docs.abinit.org/theory/bibliography/#gonze2016
-
- Proc.   0 individual time (sec): cpu=       6229.1  wall=       6229.1

================================================================================

 Calculation completed.
.Delivered   0 WARNINGs and   5 COMMENTs to log file.
+Overall time at end (sec) : cpu=      37374.1  wall=      37374.5
