
.Version 9.2.2 of ABINIT 
.(MPI version, prepared for a x86_64_linux_gnu9.3 computer) 

.Copyright (C) 1998-2020 ABINIT group . 
 ABINIT comes with ABSOLUTELY NO WARRANTY.
 It is free software, and you are welcome to redistribute it
 under certain conditions (GNU General Public License,
 see ~abinit/COPYING or http://www.gnu.org/copyleft/gpl.txt).

 ABINIT is a project of the Universite Catholique de Louvain,
 Corning Inc. and other collaborators, see ~abinit/doc/developers/contributors.txt .
 Please read https://docs.abinit.org/theory/acknowledgments for suggested
 acknowledgments of the ABINIT effort.
 For more information, see https://www.abinit.org .

.Starting date : Wed 26 Oct 2022.
- ( at 10h50 )
  
- input  file    -> Cs2TiI6.in
- output file    -> Cs2TiI6.out
- root for input  files -> Cs2TiI6i
- root for output files -> Cs2TiI6o

- inpspheads : Reading pseudopotential header in XML form from 
-   ../../../Psps_for_tests/ATOMICDATA/Cs.GGA_PBE-JTH.xml
- inpspheads : Reading pseudopotential header in XML form from 
-   ../../../Psps_for_tests/ATOMICDATA/Cl.GGA_PBE-JTH.xml
- inpspheads : Reading pseudopotential header in XML form from 
-   ../../../Psps_for_tests/ATOMICDATA/Hf.GGA_PBE-JTH.xml

 DATASET    1 : space group Fm -3 m (#225); Bravais cF (face-center cubic)
================================================================================
 Values of the parameters that define the memory need for DATASET  1.
     intxc =       0    ionmov =       2      iscf =      17    lmnmax =      18
     lnmax =       6     mgfft =      60  mpssoang =       3    mqgrid =    3809
     natom =       9  nloc_mem =       2    nspden =       1   nspinor =       1
    nsppol =       1      nsym =      48    n1xccc =       1    ntypat =       3
    occopt =       1   xclevel =       2
-    mband =          42        mffmem =           1         mkmem =           3
       mpw =        9522          nfft =      216000          nkpt =          10
Pmy_natom=         3
 PAW method is used; the additional fine FFT grid is defined by:
   mgfftf=        96    nfftf =    884736
================================================================================
P This job should need less than                     288.251 Mbytes of memory.
  Rough estimation (10% accuracy) of disk space for files :
_ WF disk file :     61.026 Mbytes ; DEN or POT disk file :      6.752 Mbytes.
================================================================================


 DATASET    2 : space group Fm -3 m (#225); Bravais cF (face-center cubic)
================================================================================
 Values of the parameters that define the memory need for DATASET  2.
     intxc =       0    ionmov =       2      iscf =      17    lmnmax =      18
     lnmax =       6     mgfft =      60  mpssoang =       3    mqgrid =    3770
     natom =       9  nloc_mem =       2    nspden =       1   nspinor =       1
    nsppol =       1      nsym =      48    n1xccc =       1    ntypat =       3
    occopt =       1   xclevel =       2
-    mband =          42        mffmem =           1         mkmem =           3
       mpw =        9252          nfft =      216000          nkpt =          10
Pmy_natom=         3
 PAW method is used; the additional fine FFT grid is defined by:
   mgfftf=        96    nfftf =    884736
================================================================================
P This job should need less than                     288.446 Mbytes of memory.
  Rough estimation (10% accuracy) of disk space for files :
_ WF disk file :     59.295 Mbytes ; DEN or POT disk file :      6.752 Mbytes.
================================================================================


 DATASET    3 : space group Fm -3 m (#225); Bravais cF (face-center cubic)
================================================================================
 Values of the parameters that define the memory need for DATASET  3.
     intxc =       0    ionmov =       2      iscf =      17    lmnmax =      18
     lnmax =       6     mgfft =      60  mpssoang =       3    mqgrid =    3732
     natom =       9  nloc_mem =       2    nspden =       1   nspinor =       1
    nsppol =       1      nsym =      48    n1xccc =       1    ntypat =       3
    occopt =       1   xclevel =       2
-    mband =          42        mffmem =           1         mkmem =           3
       mpw =        8969          nfft =      216000          nkpt =          10
Pmy_natom=         3
 PAW method is used; the additional fine FFT grid is defined by:
   mgfftf=        96    nfftf =    884736
================================================================================
P This job should need less than                     288.643 Mbytes of memory.
  Rough estimation (10% accuracy) of disk space for files :
_ WF disk file :     57.482 Mbytes ; DEN or POT disk file :      6.752 Mbytes.
================================================================================


 DATASET    4 : space group Fm -3 m (#225); Bravais cF (face-center cubic)
================================================================================
 Values of the parameters that define the memory need for DATASET  4.
     intxc =       0    ionmov =       2      iscf =      17    lmnmax =      18
     lnmax =       6     mgfft =      60  mpssoang =       3    mqgrid =    3694
     natom =       9  nloc_mem =       2    nspden =       1   nspinor =       1
    nsppol =       1      nsym =      48    n1xccc =       1    ntypat =       3
    occopt =       1   xclevel =       2
-    mband =          42        mffmem =           1         mkmem =           3
       mpw =        8680          nfft =      216000          nkpt =          10
Pmy_natom=         3
 PAW method is used; the additional fine FFT grid is defined by:
   mgfftf=        96    nfftf =    884736
================================================================================
P This job should need less than                     288.863 Mbytes of memory.
  Rough estimation (10% accuracy) of disk space for files :
_ WF disk file :     55.629 Mbytes ; DEN or POT disk file :      6.752 Mbytes.
================================================================================


 DATASET    5 : space group Fm -3 m (#225); Bravais cF (face-center cubic)
================================================================================
 Values of the parameters that define the memory need for DATASET  5.
     intxc =       0    ionmov =       2      iscf =      17    lmnmax =      18
     lnmax =       6     mgfft =      60  mpssoang =       3    mqgrid =    3655
     natom =       9  nloc_mem =       2    nspden =       1   nspinor =       1
    nsppol =       1      nsym =      48    n1xccc =       1    ntypat =       3
    occopt =       1   xclevel =       2
-    mband =          42        mffmem =           1         mkmem =           3
       mpw =        8414          nfft =      216000          nkpt =          10
Pmy_natom=         3
 PAW method is used; the additional fine FFT grid is defined by:
   mgfftf=        90    nfftf =    729000
================================================================================
P This job should need less than                     247.845 Mbytes of memory.
  Rough estimation (10% accuracy) of disk space for files :
_ WF disk file :     53.925 Mbytes ; DEN or POT disk file :      5.564 Mbytes.
================================================================================


 DATASET    6 : space group Fm -3 m (#225); Bravais cF (face-center cubic)
================================================================================
 Values of the parameters that define the memory need for DATASET  6.
     intxc =       0    ionmov =       2      iscf =      17    lmnmax =      18
     lnmax =       6     mgfft =      60  mpssoang =       3    mqgrid =    3617
     natom =       9  nloc_mem =       2    nspden =       1   nspinor =       1
    nsppol =       1      nsym =      48    n1xccc =       1    ntypat =       3
    occopt =       1   xclevel =       2
-    mband =          42        mffmem =           1         mkmem =           3
       mpw =        8144          nfft =      216000          nkpt =          10
Pmy_natom=         3
 PAW method is used; the additional fine FFT grid is defined by:
   mgfftf=        90    nfftf =    729000
================================================================================
P This job should need less than                     248.018 Mbytes of memory.
  Rough estimation (10% accuracy) of disk space for files :
_ WF disk file :     52.194 Mbytes ; DEN or POT disk file :      5.564 Mbytes.
================================================================================


 DATASET    7 : space group Fm -3 m (#225); Bravais cF (face-center cubic)
================================================================================
 Values of the parameters that define the memory need for DATASET  7.
     intxc =       0    ionmov =       2      iscf =      17    lmnmax =      18
     lnmax =       6     mgfft =      60  mpssoang =       3    mqgrid =    3578
     natom =       9  nloc_mem =       2    nspden =       1   nspinor =       1
    nsppol =       1      nsym =      48    n1xccc =       1    ntypat =       3
    occopt =       1   xclevel =       2
-    mband =          42        mffmem =           1         mkmem =           3
       mpw =        7898          nfft =      216000          nkpt =          10
Pmy_natom=         3
 PAW method is used; the additional fine FFT grid is defined by:
   mgfftf=        90    nfftf =    729000
================================================================================
P This job should need less than                     248.273 Mbytes of memory.
  Rough estimation (10% accuracy) of disk space for files :
_ WF disk file :     50.618 Mbytes ; DEN or POT disk file :      5.564 Mbytes.
================================================================================


 DATASET    8 : space group Fm -3 m (#225); Bravais cF (face-center cubic)
================================================================================
 Values of the parameters that define the memory need for DATASET  8.
     intxc =       0    ionmov =       2      iscf =      17    lmnmax =      18
     lnmax =       6     mgfft =      60  mpssoang =       3    mqgrid =    3540
     natom =       9  nloc_mem =       2    nspden =       1   nspinor =       1
    nsppol =       1      nsym =      48    n1xccc =       1    ntypat =       3
    occopt =       1   xclevel =       2
-    mband =          42        mffmem =           1         mkmem =           3
       mpw =        7646          nfft =      216000          nkpt =          10
Pmy_natom=         3
 PAW method is used; the additional fine FFT grid is defined by:
   mgfftf=        90    nfftf =    729000
================================================================================
P This job should need less than                     248.553 Mbytes of memory.
  Rough estimation (10% accuracy) of disk space for files :
_ WF disk file :     49.003 Mbytes ; DEN or POT disk file :      5.564 Mbytes.
================================================================================


 DATASET    9 : space group Fm -3 m (#225); Bravais cF (face-center cubic)
================================================================================
 Values of the parameters that define the memory need for DATASET  9.
     intxc =       0    ionmov =       2      iscf =      17    lmnmax =      18
     lnmax =       6     mgfft =      60  mpssoang =       3    mqgrid =    3501
     natom =       9  nloc_mem =       2    nspden =       1   nspinor =       1
    nsppol =       1      nsym =      48    n1xccc =       1    ntypat =       3
    occopt =       1   xclevel =       2
-    mband =          42        mffmem =           1         mkmem =           3
       mpw =        7417          nfft =      216000          nkpt =          10
Pmy_natom=         3
 PAW method is used; the additional fine FFT grid is defined by:
   mgfftf=        90    nfftf =    729000
================================================================================
P This job should need less than                     248.920 Mbytes of memory.
  Rough estimation (10% accuracy) of disk space for files :
_ WF disk file :     47.535 Mbytes ; DEN or POT disk file :      5.564 Mbytes.
================================================================================


 DATASET   10 : space group Fm -3 m (#225); Bravais cF (face-center cubic)
================================================================================
 Values of the parameters that define the memory need for DATASET 10.
     intxc =       0    ionmov =       2      iscf =      17    lmnmax =      18
     lnmax =       6     mgfft =      54  mpssoang =       3    mqgrid =    3463
     natom =       9  nloc_mem =       2    nspden =       1   nspinor =       1
    nsppol =       1      nsym =      48    n1xccc =       1    ntypat =       3
    occopt =       1   xclevel =       2
-    mband =          42        mffmem =           1         mkmem =           3
       mpw =        7170          nfft =      157464          nkpt =          10
Pmy_natom=         3
 PAW method is used; the additional fine FFT grid is defined by:
   mgfftf=        90    nfftf =    729000
================================================================================
P This job should need less than                     240.572 Mbytes of memory.
  Rough estimation (10% accuracy) of disk space for files :
_ WF disk file :     45.952 Mbytes ; DEN or POT disk file :      5.564 Mbytes.
================================================================================

--------------------------------------------------------------------------------
------------- Echo of variables that govern the present computation ------------
--------------------------------------------------------------------------------
-
- outvars: echo of selected default values                                      
-   iomode0 =  0 , fftalg0 =112 , wfoptalg0 = 10
-
- outvars: echo of global parameters not present in the input file              
-  max_nthreads =    0
-
 -outvars: echo values of preprocessed input variables --------
            acell1     1.4246312570E+01  1.4246312570E+01  1.4246312570E+01 Bohr
            acell2     1.4102410423E+01  1.4102410423E+01  1.4102410423E+01 Bohr
            acell3     1.3958508275E+01  1.3958508275E+01  1.3958508275E+01 Bohr
            acell4     1.3814606128E+01  1.3814606128E+01  1.3814606128E+01 Bohr
            acell5     1.3670703981E+01  1.3670703981E+01  1.3670703981E+01 Bohr
            acell6     1.3526801834E+01  1.3526801834E+01  1.3526801834E+01 Bohr
            acell7     1.3382899687E+01  1.3382899687E+01  1.3382899687E+01 Bohr
            acell8     1.3238997540E+01  1.3238997540E+01  1.3238997540E+01 Bohr
            acell9     1.3095095392E+01  1.3095095392E+01  1.3095095392E+01 Bohr
            acell10    1.2951193245E+01  1.2951193245E+01  1.2951193245E+01 Bohr
              amu      1.32905430E+02  3.54527000E+01  1.78490000E+02
           diemac      1.20000000E+01
          dilatmx      1.15000000E+00
             ecut      1.60000000E+01 Hartree
           ecutsm      5.00000000E-01 Hartree
-          fftalg         112
          getxred1          0
          getxred2         -1
          getxred3         -1
          getxred4         -1
          getxred5         -1
          getxred6         -1
          getxred7         -1
          getxred8         -1
          getxred9         -1
          getxred10        -1
           ionmov           2
              ixc     -101130
           jdtset        1    2    3    4    5    6    7    8    9   10
              kpt     -1.25000000E-01 -2.50000000E-01  0.00000000E+00
                      -1.25000000E-01  5.00000000E-01  0.00000000E+00
                      -2.50000000E-01 -3.75000000E-01  0.00000000E+00
                      -1.25000000E-01 -3.75000000E-01  1.25000000E-01
                      -1.25000000E-01  2.50000000E-01  0.00000000E+00
                      -2.50000000E-01  3.75000000E-01  0.00000000E+00
                      -3.75000000E-01  5.00000000E-01  0.00000000E+00
                      -2.50000000E-01  5.00000000E-01  1.25000000E-01
                      -1.25000000E-01  0.00000000E+00  0.00000000E+00
                      -3.75000000E-01  0.00000000E+00  0.00000000E+00
         kptrlatt        4   -4    4     -4    4    4     -4   -4    4
          kptrlen1     8.05893138E+01
          kptrlen2     7.97752803E+01
          kptrlen3     7.89612469E+01
          kptrlen4     7.81472134E+01
          kptrlen5     7.73331799E+01
          kptrlen6     7.65191464E+01
          kptrlen7     7.57051130E+01
          kptrlen8     7.48910795E+01
          kptrlen9     7.40770460E+01
          kptrlen10    7.32630125E+01
P           mkmem           3
            natom           9
            nband          42
           ndtset          10
            ngfft1         60      60      60
            ngfft2         60      60      60
            ngfft3         60      60      60
            ngfft4         60      60      60
            ngfft5         60      60      60
            ngfft6         60      60      60
            ngfft7         60      60      60
            ngfft8         60      60      60
            ngfft9         60      60      60
            ngfft10        54      54      54
          ngfftdg1         96      96      96
          ngfftdg2         96      96      96
          ngfftdg3         96      96      96
          ngfftdg4         96      96      96
          ngfftdg5         90      90      90
          ngfftdg6         90      90      90
          ngfftdg7         90      90      90
          ngfftdg8         90      90      90
          ngfftdg9         90      90      90
          ngfftdg10        90      90      90
             nkpt          10
            nstep        2500
             nsym          48
            ntime        1000
           ntypat           3
              occ      2.000000  2.000000  2.000000  2.000000  2.000000  2.000000
                       2.000000  2.000000  2.000000  2.000000  2.000000  2.000000
                       2.000000  2.000000  2.000000  2.000000  2.000000  2.000000
                       2.000000  2.000000  2.000000  2.000000  2.000000  2.000000
                       2.000000  2.000000  2.000000  2.000000  2.000000  2.000000
                       2.000000  2.000000  2.000000  2.000000  2.000000  2.000000
                       0.000000  0.000000  0.000000  0.000000  0.000000  0.000000
          optcell           3
        optforces           1
        pawecutdg      4.00000000E+01 Hartree
            prtwf           0
            rprim      0.0000000000E+00  7.0710678119E-01  7.0710678119E-01
                       7.0710678119E-01  0.0000000000E+00  7.0710678119E-01
                       7.0710678119E-01  7.0710678119E-01  0.0000000000E+00
           shiftk      5.00000000E-01  5.00000000E-01  5.00000000E-01
          spgroup         225
           symrel      1  0  0   0  1  0   0  0  1      -1  0  0   0 -1  0   0  0 -1
                       0 -1  1   0 -1  0   1 -1  0       0  1 -1   0  1  0  -1  1  0
                      -1  0  0  -1  0  1  -1  1  0       1  0  0   1  0 -1   1 -1  0
                       0  1 -1   1  0 -1   0  0 -1       0 -1  1  -1  0  1   0  0  1
                      -1  0  0  -1  1  0  -1  0  1       1  0  0   1 -1  0   1  0 -1
                       0 -1  1   1 -1  0   0 -1  0       0  1 -1  -1  1  0   0  1  0
                       1  0  0   0  0  1   0  1  0      -1  0  0   0  0 -1   0 -1  0
                       0  1 -1   0  0 -1   1  0 -1       0 -1  1   0  0  1  -1  0  1
                      -1  0  1  -1  1  0  -1  0  0       1  0 -1   1 -1  0   1  0  0
                       0 -1  0   1 -1  0   0 -1  1       0  1  0  -1  1  0   0  1 -1
                       1  0 -1   0  0 -1   0  1 -1      -1  0  1   0  0  1   0 -1  1
                       0  1  0   0  0  1   1  0  0       0 -1  0   0  0 -1  -1  0  0
                       1  0 -1   0  1 -1   0  0 -1      -1  0  1   0 -1  1   0  0  1
                       0 -1  0   0 -1  1   1 -1  0       0  1  0   0  1 -1  -1  1  0
                      -1  0  1  -1  0  0  -1  1  0       1  0 -1   1  0  0   1 -1  0
                       0  1  0   1  0  0   0  0  1       0 -1  0  -1  0  0   0  0 -1
                       0  0 -1   0  1 -1   1  0 -1       0  0  1   0 -1  1  -1  0  1
                       1 -1  0   0 -1  1   0 -1  0      -1  1  0   0  1 -1   0  1  0
                       0  0  1   1  0  0   0  1  0       0  0 -1  -1  0  0   0 -1  0
                      -1  1  0  -1  0  0  -1  0  1       1 -1  0   1  0  0   1  0 -1
                       0  0  1   0  1  0   1  0  0       0  0 -1   0 -1  0  -1  0  0
                       1 -1  0   0 -1  0   0 -1  1      -1  1  0   0  1  0   0  1 -1
                       0  0 -1   1  0 -1   0  1 -1       0  0  1  -1  0  1   0 -1  1
                      -1  1  0  -1  0  1  -1  0  0       1 -1  0   1  0 -1   1  0  0
           toldff      1.00000000E-08
           tolmxf      1.00000000E-05
            typat      1  1  2  2  2  2  2  2  3
           useylm           1
              wtk        0.09375    0.09375    0.09375    0.18750    0.09375    0.09375
                         0.09375    0.18750    0.03125    0.03125
           xangst1     2.6653767575E+00  2.6653767575E+00  2.6653767575E+00
                       7.9961302724E+00  7.9961302724E+00  7.9961302724E+00
                       5.3307535149E+00  8.2187609183E+00  5.3307535149E+00
                       5.3307535149E+00  5.3307535149E+00  2.4427461115E+00
                       5.3307535149E+00  5.3307535149E+00  8.2187609183E+00
                       5.3307535149E+00  2.4427461115E+00  5.3307535149E+00
                       8.2187609183E+00  5.3307535149E+00  5.3307535149E+00
                       2.4427461115E+00  5.3307535149E+00  5.3307535149E+00
                       2.6360355710E-20  1.2317437350E-20 -2.2744200317E-20
           xangst2     2.6384537599E+00  2.6384537599E+00  2.6384537599E+00
                       7.9153612797E+00  7.9153612797E+00  7.9153612797E+00
                       5.2769075198E+00  8.1357431312E+00  5.2769075198E+00
                       5.2769075198E+00  5.2769075198E+00  2.4180719084E+00
                       5.2769075198E+00  5.2769075198E+00  8.1357431312E+00
                       5.2769075198E+00  2.4180719084E+00  5.2769075198E+00
                       8.1357431312E+00  5.2769075198E+00  5.2769075198E+00
                       2.4180719084E+00  5.2769075198E+00  5.2769075198E+00
                       2.6094089491E-20  1.2193018791E-20 -2.2514460920E-20
           xangst3     2.6115307624E+00  2.6115307624E+00  2.6115307624E+00
                       7.8345922871E+00  7.8345922871E+00  7.8345922871E+00
                       5.2230615247E+00  8.0527253442E+00  5.2230615247E+00
                       5.2230615247E+00  5.2230615247E+00  2.3933977052E+00
                       5.2230615247E+00  5.2230615247E+00  8.0527253442E+00
                       5.2230615247E+00  2.3933977052E+00  5.2230615247E+00
                       8.0527253442E+00  5.2230615247E+00  5.2230615247E+00
                       2.3933977052E+00  5.2230615247E+00  5.2230615247E+00
                       2.5827823272E-20  1.2068600232E-20 -2.2284721523E-20
           xangst4     2.5846077648E+00  2.5846077648E+00  2.5846077648E+00
                       7.7538232944E+00  7.7538232944E+00  7.7538232944E+00
                       5.1692155296E+00  7.9697075571E+00  5.1692155296E+00
                       5.1692155296E+00  5.1692155296E+00  2.3687235021E+00
                       5.1692155296E+00  5.1692155296E+00  7.9697075571E+00
                       5.1692155296E+00  2.3687235021E+00  5.1692155296E+00
                       7.9697075571E+00  5.1692155296E+00  5.1692155296E+00
                       2.3687235021E+00  5.1692155296E+00  5.1692155296E+00
                       2.5561557053E-20  1.1944181673E-20 -2.2054982126E-20
           xangst5     2.5576847673E+00  2.5576847673E+00  2.5576847673E+00
                       7.6730543018E+00  7.6730543018E+00  7.6730543018E+00
                       5.1153695345E+00  7.8866897701E+00  5.1153695345E+00
                       5.1153695345E+00  5.1153695345E+00  2.3440492989E+00
                       5.1153695345E+00  5.1153695345E+00  7.8866897701E+00
                       5.1153695345E+00  2.3440492989E+00  5.1153695345E+00
                       7.8866897701E+00  5.1153695345E+00  5.1153695345E+00
                       2.3440492989E+00  5.1153695345E+00  5.1153695345E+00
                       2.5295290833E-20  1.1819763114E-20 -2.1825242729E-20
           xangst6     2.5307617697E+00  2.5307617697E+00  2.5307617697E+00
                       7.5922853091E+00  7.5922853091E+00  7.5922853091E+00
                       5.0615235394E+00  7.8036719830E+00  5.0615235394E+00
                       5.0615235394E+00  5.0615235394E+00  2.3193750958E+00
                       5.0615235394E+00  5.0615235394E+00  7.8036719830E+00
                       5.0615235394E+00  2.3193750958E+00  5.0615235394E+00
                       7.8036719830E+00  5.0615235394E+00  5.0615235394E+00
                       2.3193750958E+00  5.0615235394E+00  5.0615235394E+00
                       2.5029024614E-20  1.1695344555E-20 -2.1595503332E-20
           xangst7     2.5038387722E+00  2.5038387722E+00  2.5038387722E+00
                       7.5115163165E+00  7.5115163165E+00  7.5115163165E+00
                       5.0076775443E+00  7.7206541960E+00  5.0076775443E+00
                       5.0076775443E+00  5.0076775443E+00  2.2947008926E+00
                       5.0076775443E+00  5.0076775443E+00  7.7206541960E+00
                       5.0076775443E+00  2.2947008926E+00  5.0076775443E+00
                       7.7206541960E+00  5.0076775443E+00  5.0076775443E+00
                       2.2947008926E+00  5.0076775443E+00  5.0076775443E+00
                       2.4762758395E-20  1.1570925995E-20 -2.1365763935E-20
           xangst8     2.4769157746E+00  2.4769157746E+00  2.4769157746E+00
                       7.4307473238E+00  7.4307473238E+00  7.4307473238E+00
                       4.9538315492E+00  7.6376364089E+00  4.9538315492E+00
                       4.9538315492E+00  4.9538315492E+00  2.2700266895E+00
                       4.9538315492E+00  4.9538315492E+00  7.6376364089E+00
                       4.9538315492E+00  2.2700266895E+00  4.9538315492E+00
                       7.6376364089E+00  4.9538315492E+00  4.9538315492E+00
                       2.2700266895E+00  4.9538315492E+00  4.9538315492E+00
                       2.4496492175E-20  1.1446507436E-20 -2.1136024537E-20
           xangst9     2.4499927771E+00  2.4499927771E+00  2.4499927771E+00
                       7.3499783312E+00  7.3499783312E+00  7.3499783312E+00
                       4.8999855541E+00  7.5546186219E+00  4.8999855541E+00
                       4.8999855541E+00  4.8999855541E+00  2.2453524863E+00
                       4.8999855541E+00  4.8999855541E+00  7.5546186219E+00
                       4.8999855541E+00  2.2453524863E+00  4.8999855541E+00
                       7.5546186219E+00  4.8999855541E+00  4.8999855541E+00
                       2.2453524863E+00  4.8999855541E+00  4.8999855541E+00
                       2.4230225956E-20  1.1322088877E-20 -2.0906285140E-20
           xangst10    2.4230697795E+00  2.4230697795E+00  2.4230697795E+00
                       7.2692093385E+00  7.2692093385E+00  7.2692093385E+00
                       4.8461395590E+00  7.4716008348E+00  4.8461395590E+00
                       4.8461395590E+00  4.8461395590E+00  2.2206782832E+00
                       4.8461395590E+00  4.8461395590E+00  7.4716008348E+00
                       4.8461395590E+00  2.2206782832E+00  4.8461395590E+00
                       7.4716008348E+00  4.8461395590E+00  4.8461395590E+00
                       2.2206782832E+00  4.8461395590E+00  4.8461395590E+00
                       2.3963959737E-20  1.1197670318E-20 -2.0676545743E-20
            xcart1     5.0368321125E+00  5.0368321125E+00  5.0368321125E+00
                       1.5110496338E+01  1.5110496338E+01  1.5110496338E+01
                       1.0073664225E+01  1.5531207287E+01  1.0073664225E+01
                       1.0073664225E+01  1.0073664225E+01  4.6161211629E+00
                       1.0073664225E+01  1.0073664225E+01  1.5531207287E+01
                       1.0073664225E+01  4.6161211629E+00  1.0073664225E+01
                       1.5531207287E+01  1.0073664225E+01  1.0073664225E+01
                       4.6161211629E+00  1.0073664225E+01  1.0073664225E+01
                       4.9813853058E-20  2.3276583250E-20 -4.2980309711E-20
            xcart2     4.9859550205E+00  4.9859550205E+00  4.9859550205E+00
                       1.4957865061E+01  1.4957865061E+01  1.4957865061E+01
                       9.9719100410E+00  1.5374326406E+01  9.9719100410E+00
                       9.9719100410E+00  9.9719100410E+00  4.5694936764E+00
                       9.9719100410E+00  9.9719100410E+00  1.5374326406E+01
                       9.9719100410E+00  4.5694936764E+00  9.9719100410E+00
                       1.5374326406E+01  9.9719100410E+00  9.9719100410E+00
                       4.5694936764E+00  9.9719100410E+00  9.9719100410E+00
                       4.9310682825E-20  2.3041466248E-20 -4.2546165169E-20
            xcart3     4.9350779284E+00  4.9350779284E+00  4.9350779284E+00
                       1.4805233785E+01  1.4805233785E+01  1.4805233785E+01
                       9.8701558569E+00  1.5217445524E+01  9.8701558569E+00
                       9.8701558569E+00  9.8701558569E+00  4.5228661899E+00
                       9.8701558569E+00  9.8701558569E+00  1.5217445524E+01
                       9.8701558569E+00  4.5228661899E+00  9.8701558569E+00
                       1.5217445524E+01  9.8701558569E+00  9.8701558569E+00
                       4.5228661899E+00  9.8701558569E+00  9.8701558569E+00
                       4.8807512592E-20  2.2806349245E-20 -4.2112020626E-20
            xcart4     4.8842008364E+00  4.8842008364E+00  4.8842008364E+00
                       1.4652602509E+01  1.4652602509E+01  1.4652602509E+01
                       9.7684016728E+00  1.5060564642E+01  9.7684016728E+00
                       9.7684016728E+00  9.7684016728E+00  4.4762387034E+00
                       9.7684016728E+00  9.7684016728E+00  1.5060564642E+01
                       9.7684016728E+00  4.4762387034E+00  9.7684016728E+00
                       1.5060564642E+01  9.7684016728E+00  9.7684016728E+00
                       4.4762387034E+00  9.7684016728E+00  9.7684016728E+00
                       4.8304342359E-20  2.2571232243E-20 -4.1677876084E-20
            xcart5     4.8333237444E+00  4.8333237444E+00  4.8333237444E+00
                       1.4499971233E+01  1.4499971233E+01  1.4499971233E+01
                       9.6666474887E+00  1.4903683760E+01  9.6666474887E+00
                       9.6666474887E+00  9.6666474887E+00  4.4296112169E+00
                       9.6666474887E+00  9.6666474887E+00  1.4903683760E+01
                       9.6666474887E+00  4.4296112169E+00  9.6666474887E+00
                       1.4903683760E+01  9.6666474887E+00  9.6666474887E+00
                       4.4296112169E+00  9.6666474887E+00  9.6666474887E+00
                       4.7801172127E-20  2.2336115240E-20 -4.1243731541E-20
            xcart6     4.7824466523E+00  4.7824466523E+00  4.7824466523E+00
                       1.4347339957E+01  1.4347339957E+01  1.4347339957E+01
                       9.5648933046E+00  1.4746802879E+01  9.5648933046E+00
                       9.5648933046E+00  9.5648933046E+00  4.3829837305E+00
                       9.5648933046E+00  9.5648933046E+00  1.4746802879E+01
                       9.5648933046E+00  4.3829837305E+00  9.5648933046E+00
                       1.4746802879E+01  9.5648933046E+00  9.5648933046E+00
                       4.3829837305E+00  9.5648933046E+00  9.5648933046E+00
                       4.7298001894E-20  2.2100998238E-20 -4.0809586999E-20
            xcart7     4.7315695603E+00  4.7315695603E+00  4.7315695603E+00
                       1.4194708681E+01  1.4194708681E+01  1.4194708681E+01
                       9.4631391205E+00  1.4589921997E+01  9.4631391205E+00
                       9.4631391205E+00  9.4631391205E+00  4.3363562440E+00
                       9.4631391205E+00  9.4631391205E+00  1.4589921997E+01
                       9.4631391205E+00  4.3363562440E+00  9.4631391205E+00
                       1.4589921997E+01  9.4631391205E+00  9.4631391205E+00
                       4.3363562440E+00  9.4631391205E+00  9.4631391205E+00
                       4.6794831661E-20  2.1865881235E-20 -4.0375442456E-20
            xcart8     4.6806924682E+00  4.6806924682E+00  4.6806924682E+00
                       1.4042077405E+01  1.4042077405E+01  1.4042077405E+01
                       9.3613849364E+00  1.4433041115E+01  9.3613849364E+00
                       9.3613849364E+00  9.3613849364E+00  4.2897287575E+00
                       9.3613849364E+00  9.3613849364E+00  1.4433041115E+01
                       9.3613849364E+00  4.2897287575E+00  9.3613849364E+00
                       1.4433041115E+01  9.3613849364E+00  9.3613849364E+00
                       4.2897287575E+00  9.3613849364E+00  9.3613849364E+00
                       4.6291661428E-20  2.1630764233E-20 -3.9941297914E-20
            xcart9     4.6298153762E+00  4.6298153762E+00  4.6298153762E+00
                       1.3889446129E+01  1.3889446129E+01  1.3889446129E+01
                       9.2596307523E+00  1.4276160234E+01  9.2596307523E+00
                       9.2596307523E+00  9.2596307523E+00  4.2431012710E+00
                       9.2596307523E+00  9.2596307523E+00  1.4276160234E+01
                       9.2596307523E+00  4.2431012710E+00  9.2596307523E+00
                       1.4276160234E+01  9.2596307523E+00  9.2596307523E+00
                       4.2431012710E+00  9.2596307523E+00  9.2596307523E+00
                       4.5788491195E-20  2.1395647230E-20 -3.9507153371E-20
            xcart10    4.5789382841E+00  4.5789382841E+00  4.5789382841E+00
                       1.3736814852E+01  1.3736814852E+01  1.3736814852E+01
                       9.1578765683E+00  1.4119279352E+01  9.1578765683E+00
                       9.1578765683E+00  9.1578765683E+00  4.1964737845E+00
                       9.1578765683E+00  9.1578765683E+00  1.4119279352E+01
                       9.1578765683E+00  4.1964737845E+00  9.1578765683E+00
                       1.4119279352E+01  9.1578765683E+00  9.1578765683E+00
                       4.1964737845E+00  9.1578765683E+00  9.1578765683E+00
                       4.5285320962E-20  2.1160530228E-20 -3.9073008829E-20
             xred      2.5000000000E-01  2.5000000000E-01  2.5000000000E-01
                       7.5000000000E-01  7.5000000000E-01  7.5000000000E-01
                       7.7088172388E-01  2.2911827612E-01  7.7088172388E-01
                       2.2911827612E-01  2.2911827612E-01  7.7088172388E-01
                       7.7088172388E-01  7.7088172388E-01  2.2911827612E-01
                       2.2911827612E-01  7.7088172388E-01  2.2911827612E-01
                       2.2911827612E-01  7.7088172388E-01  7.7088172388E-01
                       7.7088172388E-01  2.2911827612E-01  2.2911827612E-01
                      -3.4504614193E-21 -8.1613996339E-22  5.7610986145E-21
            znucl       55.00000   17.00000   72.00000

================================================================================

 chkinp: Checking input parameters for consistency, jdtset=   1.

 chkinp: Checking input parameters for consistency, jdtset=   2.

 chkinp: Checking input parameters for consistency, jdtset=   3.

 chkinp: Checking input parameters for consistency, jdtset=   4.

 chkinp: Checking input parameters for consistency, jdtset=   5.

 chkinp: Checking input parameters for consistency, jdtset=   6.

 chkinp: Checking input parameters for consistency, jdtset=   7.

 chkinp: Checking input parameters for consistency, jdtset=   8.

 chkinp: Checking input parameters for consistency, jdtset=   9.

 chkinp: Checking input parameters for consistency, jdtset=  10.

================================================================================
== DATASET  1 ==================================================================
-   mpi_nproc: 4, omp_nthreads: -1 (-1 if OMP is not activated)


--- !DatasetInfo
iteration_state: {dtset: 1, }
dimensions: {natom: 9, nkpt: 10, mband: 42, nsppol: 1, nspinor: 1, nspden: 1, mpw: 9522, }
cutoff_energies: {ecut:  16.0, pawecutdg:  40.0, }
electrons: {nelect:   7.20000000E+01, charge:   0.00000000E+00, occopt:   1.00000000E+00, tsmear:   1.00000000E-02, }
meta: {optdriver: 0, ionmov: 2, optcell: 3, iscf: 17, paral_kgb: 0, }
...

 Real(R)+Recip(G) space primitive vectors, cartesian coordinates (Bohr,Bohr^-1):
 R(1)=  0.0000000 10.0736642 10.0736642  G(1)= -0.0496344  0.0496344  0.0496344
 R(2)= 10.0736642  0.0000000 10.0736642  G(2)=  0.0496344 -0.0496344  0.0496344
 R(3)= 10.0736642 10.0736642  0.0000000  G(3)=  0.0496344  0.0496344 -0.0496344
 Unit cell volume ucvol=  2.0445249E+03 bohr^3
 Angles (23,13,12)=  6.00000000E+01  6.00000000E+01  6.00000000E+01 degrees

 Coarse grid specifications (used for wave-functions):

 getcut: wavevector=  0.0000  0.0000  0.0000  ngfft=  60  60  60
         ecut(hartree)=     21.160   => boxcut(ratio)=   2.03388

 Fine grid specifications (used for densities):

 getcut: wavevector=  0.0000  0.0000  0.0000  ngfft=  96  96  96
         ecut(hartree)=     52.900   => boxcut(ratio)=   2.05814

--- Pseudopotential description ------------------------------------------------
- pspini: atom type   1  psp file is ../../../Psps_for_tests/ATOMICDATA/Cs.GGA_PBE-JTH.xml
- pspatm: opening atomic psp file    ../../../Psps_for_tests/ATOMICDATA/Cs.GGA_PBE-JTH.xml
- pspatm : Reading pseudopotential header in XML form from ../../../Psps_for_tests/ATOMICDATA/Cs.GGA_PBE-JTH.xml
 Pseudopotential format is: paw10
 basis_size (lnmax)=  6 (lmn_size= 18), orbitals=   0   0   1   1   2   2
 Spheres core radius: rc_sph= 2.20660278
 1 radial meshes are used:
  - mesh 1: r(i)=AA*[exp(BB*(i-1))-1], size=1500 , AA= 0.15922E-03 BB= 0.87573E-02
 Shapefunction is SIN type: shapef(r)=[sin(pi*r/rshp)/(pi*r/rshp)]**2
 Radius for shape functions =  2.00394208
 mmax= 1500
 Radial grid used for partial waves is grid 1
 Radial grid used for projectors is grid 1
 Radial grid used for (t)core density is grid 1
 Radial grid used for Vloc is grid 1
 Radial grid used for pseudo valence density is grid 1
 Mesh size for Vloc has been set to 1341 to avoid numerical noise.
 Compensation charge density is not taken into account in XC energy/potential
 pspatm: atomic psp has been read  and splines computed

- pspini: atom type   2  psp file is ../../../Psps_for_tests/ATOMICDATA/Cl.GGA_PBE-JTH.xml
- pspatm: opening atomic psp file    ../../../Psps_for_tests/ATOMICDATA/Cl.GGA_PBE-JTH.xml
- pspatm : Reading pseudopotential header in XML form from ../../../Psps_for_tests/ATOMICDATA/Cl.GGA_PBE-JTH.xml
 Pseudopotential format is: paw10
 basis_size (lnmax)=  4 (lmn_size=  8), orbitals=   0   0   1   1
 Spheres core radius: rc_sph= 1.80315674
 1 radial meshes are used:
  - mesh 1: r(i)=AA*[exp(BB*(i-1))-1], size=1400 , AA= 0.50355E-03 BB= 0.85603E-02
 Shapefunction is SIN type: shapef(r)=[sin(pi*r/rshp)/(pi*r/rshp)]**2
 Radius for shape functions =  1.61320365
 mmax= 1400
 Radial grid used for partial waves is grid 1
 Radial grid used for projectors is grid 1
 Radial grid used for (t)core density is grid 1
 Radial grid used for Vloc is grid 1
 Radial grid used for pseudo valence density is grid 1
 Mesh size for Vloc has been set to 1238 to avoid numerical noise.
 Compensation charge density is not taken into account in XC energy/potential
 pspatm: atomic psp has been read  and splines computed

- pspini: atom type   3  psp file is ../../../Psps_for_tests/ATOMICDATA/Hf.GGA_PBE-JTH.xml
- pspatm: opening atomic psp file    ../../../Psps_for_tests/ATOMICDATA/Hf.GGA_PBE-JTH.xml
- pspatm : Reading pseudopotential header in XML form from ../../../Psps_for_tests/ATOMICDATA/Hf.GGA_PBE-JTH.xml
 Pseudopotential format is: paw10
 basis_size (lnmax)=  6 (lmn_size= 18), orbitals=   0   0   1   1   2   2
 Spheres core radius: rc_sph= 2.41000000
 1 radial meshes are used:
  - mesh 1: r(i)=AA*[exp(BB*(i-1))-1], size= 972 , AA= 0.19796E-03 BB= 0.14253E-01
 Shapefunction is SIN type: shapef(r)=[sin(pi*r/rshp)/(pi*r/rshp)]**2
 Radius for shape functions =  2.41000000
 mmax=  972
 Radial grid used for partial waves is grid 1
 Radial grid used for projectors is grid 1
 Radial grid used for (t)core density is grid 1
 Radial grid used for Vloc is grid 1
 Radial grid used for pseudo valence density is grid 1
 Mesh size for Vloc has been set to  809 to avoid numerical noise.
 Compensation charge density is not taken into account in XC energy/potential
 pspatm: atomic psp has been read  and splines computed

   1.56818020E+04                                ecore*ucvol(ha*bohr**3)
--------------------------------------------------------------------------------

_setup2: Arith. and geom. avg. npw (full set) are    9500.063    9500.059

================================================================================

=== [ionmov= 2] Broyden-Fletcher-Goldfard-Shanno method (forces)            
================================================================================

--- Iteration: (   1/1000) Internal Cycle: (1/1)
--------------------------------------------------------------------------------

---SELF-CONSISTENT-FIELD CONVERGENCE--------------------------------------------

--- !BeginCycle
iteration_state: {dtset: 1, itime: 1, icycle: 1, }
solver: {iscf: 17, nstep: 2500, nline: 4, wfoptalg: 10, }
tolerances: {toldff: 1.00E-08, }
...

     iter   Etot(hartree)      deltaE(h)  residm     nres2    diffor    maxfor
 ETOT  1  -180.43975060851    -1.804E+02 5.698E+00 1.011E+01 1.149E-02 1.149E-02
 ETOT  2  -182.38094087643    -1.941E+00 4.724E-02 7.071E+00 1.428E-02 2.577E-02
 ETOT  3  -182.35566716535     2.527E-02 1.282E-02 1.040E+00 5.107E-02 2.530E-02
 ETOT  4  -182.35607441689    -4.073E-04 2.951E-03 2.275E-01 2.367E-02 1.629E-03
 ETOT  5  -182.35637024892    -2.958E-04 2.706E-03 2.002E-02 2.076E-03 4.475E-04
 ETOT  6  -182.35643686983    -6.662E-05 1.619E-03 3.249E-03 4.919E-03 5.366E-03
 ETOT  7  -182.35645417076    -1.730E-05 1.093E-03 3.530E-04 1.555E-04 5.211E-03
 ETOT  8  -182.35645572088    -1.550E-06 1.078E-03 3.210E-05 1.100E-03 6.311E-03
 ETOT  9  -182.35645582432    -1.034E-07 1.047E-03 4.324E-06 2.693E-04 6.042E-03
 ETOT 10  -182.35645583012    -5.798E-09 1.152E-03 7.651E-07 3.943E-05 6.081E-03
 ETOT 11  -182.35645583293    -2.810E-09 1.155E-03 1.457E-07 1.090E-05 6.070E-03
 ETOT 12  -182.35645583178     1.149E-09 1.182E-03 2.360E-08 7.523E-07 6.071E-03
 ETOT 13  -182.35645583160     1.801E-10 1.017E-03 3.183E-09 4.728E-06 6.066E-03
 ETOT 14  -182.35645583168    -8.370E-11 8.743E-04 1.957E-10 5.973E-07 6.066E-03
 ETOT 15  -182.35645583171    -2.524E-11 6.071E-04 3.355E-11 5.403E-07 6.065E-03
 ETOT 16  -182.35645583172    -1.396E-11 3.881E-04 4.550E-12 3.198E-08 6.065E-03
 ETOT 17  -182.35645583172     2.842E-12 2.449E-04 5.603E-13 4.039E-08 6.065E-03
 ETOT 18  -182.35645583172    -5.684E-14 2.145E-04 4.952E-14 6.814E-09 6.065E-03
 ETOT 19  -182.35645583170     1.444E-11 1.557E-04 6.632E-15 1.275E-09 6.065E-03

 At SCF step   19, forces are converged : 
  for the second time, max diff in force=  1.275E-09 < toldff=  1.000E-08

 Cartesian components of stress tensor (hartree/bohr^3)
  sigma(1 1)= -3.46285462E-05  sigma(3 2)=  0.00000000E+00
  sigma(2 2)= -3.46285462E-05  sigma(3 1)=  0.00000000E+00
  sigma(3 3)= -3.46285462E-05  sigma(2 1)=  0.00000000E+00


--- !ResultsGS
iteration_state: {dtset: 1, itime: 1, icycle: 1, }
comment   : Summary of ground state results
lattice_vectors:
- [  0.0000000,  10.0736642,  10.0736642, ]
- [ 10.0736642,   0.0000000,  10.0736642, ]
- [ 10.0736642,  10.0736642,   0.0000000, ]
lattice_lengths: [  14.24631,   14.24631,   14.24631, ]
lattice_angles: [ 60.000,  60.000,  60.000, ] # degrees, (23, 13, 12)
lattice_volume:   2.0445249E+03
convergence: {deltae:  1.444E-11, res2:  6.632E-15, residm:  1.557E-04, diffor:  1.275E-09, }
etotal    :  -1.82356456E+02
entropy   :   0.00000000E+00
fermie    :  -4.50343088E-02
cartesian_stress_tensor: # hartree/bohr^3
- [ -3.46285462E-05,   0.00000000E+00,   0.00000000E+00, ]
- [  0.00000000E+00,  -3.46285462E-05,   0.00000000E+00, ]
- [  0.00000000E+00,   0.00000000E+00,  -3.46285462E-05, ]
pressure_GPa:   1.0188E+00
xred      :
- [  2.5000E-01,   2.5000E-01,   2.5000E-01, Cs]
- [  7.5000E-01,   7.5000E-01,   7.5000E-01, Cs]
- [  7.7088E-01,   2.2912E-01,   7.7088E-01, Cl]
- [  2.2912E-01,   2.2912E-01,   7.7088E-01, Cl]
- [  7.7088E-01,   7.7088E-01,   2.2912E-01, Cl]
- [  2.2912E-01,   7.7088E-01,   2.2912E-01, Cl]
- [  2.2912E-01,   7.7088E-01,   7.7088E-01, Cl]
- [  7.7088E-01,   2.2912E-01,   2.2912E-01, Cl]
- [ -3.4505E-21,  -8.1614E-22,   5.7611E-21, Hf]
cartesian_forces: # hartree/bohr
- [ -0.00000000E+00,   9.63735264E-20,   9.36927948E-20, ]
- [ -0.00000000E+00,   9.63735264E-20,   9.36927948E-20, ]
- [  2.41265846E-20,  -6.06513369E-03,   6.95662102E-20, ]
- [ -1.74280288E-19,   2.56303496E-19,   6.06513369E-03, ]
- [  5.18687931E-19,  -4.07964086E-19,  -6.06513369E-03, ]
- [ -2.41265846E-20,   6.06513369E-03,   1.17819379E-19, ]
- [ -6.06513369E-03,   1.20500111E-19,   6.95662102E-20, ]
- [  6.06513369E-03,   7.22469419E-20,   1.17819379E-19, ]
- [ -0.00000000E+00,   9.63735264E-20,   9.36927948E-20, ]
force_length_stats: {min:   1.34410552E-19, max:   6.06513369E-03, mean:   4.04342246E-03, }
...

 Integrated electronic density in atomic spheres:
 ------------------------------------------------
 Atom  Sphere_radius  Integrated_density
    1        2.20660          5.36600929
    2        2.20660          5.36600929
    3        1.80316          4.37821474
    4        1.80316          4.37821474
    5        1.80316          4.37821474
    6        1.80316          4.37821474
    7        1.80316          4.37821474
    8        1.80316          4.37821474
    9        2.41000          9.36105782

 PAW TEST:
 ==== Compensation charge inside spheres ============
 The following values must be close to each other ...
 Compensation charge over spherical meshes =     -1.447401065551438
 Compensation charge over fine fft grid    =     -1.447352382236910

 ==== Results concerning PAW augmentation regions ====

 Total pseudopotential strength Dij (hartree):
 Atom #  1
   0.41552  -0.13774   0.00000   0.00000   0.00000   0.00000   0.00000   0.00000   0.00000   0.00000   0.00000   0.00000 ...
  -0.13774   0.04133   0.00000   0.00000   0.00000   0.00000   0.00000   0.00000   0.00000   0.00000   0.00000   0.00000 ...
   0.00000   0.00000  -0.09056   0.00000   0.00000  -0.16835   0.00000   0.00000   0.00000   0.00000   0.00000  -0.00000 ...
   0.00000   0.00000   0.00000  -0.09056   0.00000   0.00000  -0.16835   0.00000  -0.00000   0.00000   0.00000   0.00000 ...
   0.00000   0.00000   0.00000   0.00000  -0.09056   0.00000   0.00000  -0.16835   0.00000  -0.00000   0.00000   0.00000 ...
   0.00000   0.00000  -0.16835   0.00000   0.00000   0.39649   0.00000   0.00000   0.00000   0.00000   0.00000   0.00000 ...
   0.00000   0.00000   0.00000  -0.16835   0.00000   0.00000   0.39649   0.00000   0.00000   0.00000   0.00000   0.00000 ...
   0.00000   0.00000   0.00000   0.00000  -0.16835   0.00000   0.00000   0.39649   0.00000   0.00000   0.00000   0.00000 ...
   0.00000   0.00000   0.00000  -0.00000   0.00000   0.00000   0.00000   0.00000   0.00565   0.00000   0.00000   0.00000 ...
   0.00000   0.00000   0.00000   0.00000  -0.00000   0.00000   0.00000   0.00000   0.00000   0.00565   0.00000   0.00000 ...
   0.00000   0.00000   0.00000   0.00000   0.00000   0.00000   0.00000   0.00000   0.00000   0.00000   0.00565   0.00000 ...
   0.00000   0.00000  -0.00000   0.00000   0.00000   0.00000   0.00000   0.00000   0.00000   0.00000   0.00000   0.00565 ...
   ...  only 12  components have been written...
 Atom #  9
  -3.47818   0.41387   0.00000   0.00000   0.00000   0.00000   0.00000   0.00000   0.00000   0.00000   0.00000   0.00000 ...
   0.41387   0.00567   0.00000   0.00000   0.00000   0.00000   0.00000   0.00000   0.00000   0.00000   0.00000   0.00000 ...
   0.00000   0.00000  -1.39036   0.00000   0.00000   0.11018   0.00000   0.00000   0.00000   0.00000   0.00000   0.00000 ...
   0.00000   0.00000   0.00000  -1.39036   0.00000   0.00000   0.11018   0.00000   0.00000   0.00000   0.00000   0.00000 ...
   0.00000   0.00000   0.00000   0.00000  -1.39036   0.00000   0.00000   0.11018   0.00000   0.00000   0.00000   0.00000 ...
   0.00000   0.00000   0.11018   0.00000   0.00000   0.01556   0.00000   0.00000   0.00000   0.00000   0.00000   0.00000 ...
   0.00000   0.00000   0.00000   0.11018   0.00000   0.00000   0.01556   0.00000   0.00000   0.00000   0.00000   0.00000 ...
   0.00000   0.00000   0.00000   0.00000   0.11018   0.00000   0.00000   0.01556   0.00000   0.00000   0.00000   0.00000 ...
   0.00000   0.00000   0.00000   0.00000   0.00000   0.00000   0.00000   0.00000  -0.38138   0.00000   0.00000   0.00000 ...
   0.00000   0.00000   0.00000   0.00000   0.00000   0.00000   0.00000   0.00000   0.00000  -0.38138   0.00000   0.00000 ...
   0.00000   0.00000   0.00000   0.00000   0.00000   0.00000   0.00000   0.00000   0.00000   0.00000  -0.38075   0.00000 ...
   0.00000   0.00000   0.00000   0.00000   0.00000   0.00000   0.00000   0.00000   0.00000   0.00000   0.00000  -0.38138 ...
   ...  only 12  components have been written...


 Augmentation waves occupancies Rhoij:
 Atom #  1
   1.99784  -0.01474   0.00000   0.00000   0.00000   0.00000   0.00000   0.00000   0.00000   0.00000   0.00000   0.00000 ...
  -0.01474   0.10970   0.00000   0.00000   0.00000   0.00000   0.00000   0.00000   0.00000   0.00000   0.00000   0.00000 ...
   0.00000   0.00000   2.01117   0.00000   0.00000  -0.00502   0.00000   0.00000   0.00000   0.00000   0.00000   0.00230 ...
   0.00000   0.00000   0.00000   2.01117   0.00000   0.00000  -0.00502   0.00000   0.00230   0.00000   0.00000   0.00000 ...
   0.00000   0.00000   0.00000   0.00000   2.01117   0.00000   0.00000  -0.00502   0.00000   0.00230   0.00000   0.00000 ...
   0.00000   0.00000  -0.00502   0.00000   0.00000   0.00009   0.00000   0.00000   0.00000   0.00000   0.00000  -0.00018 ...
   0.00000   0.00000   0.00000  -0.00502   0.00000   0.00000   0.00009   0.00000  -0.00018   0.00000   0.00000   0.00000 ...
   0.00000   0.00000   0.00000   0.00000  -0.00502   0.00000   0.00000   0.00009   0.00000  -0.00018   0.00000   0.00000 ...
   0.00000   0.00000   0.00000   0.00230   0.00000   0.00000  -0.00018   0.00000   0.03600   0.00000   0.00000   0.00000 ...
   0.00000   0.00000   0.00000   0.00000   0.00230   0.00000   0.00000  -0.00018   0.00000   0.03600   0.00000   0.00000 ...
   0.00000   0.00000   0.00000   0.00000   0.00000   0.00000   0.00000   0.00000   0.00000   0.00000   0.02220   0.00000 ...
   0.00000   0.00000   0.00230   0.00000   0.00000  -0.00018   0.00000   0.00000   0.00000   0.00000   0.00000   0.03600 ...
   ...  only 12  components have been written...
 Atom #  9
   1.99785  -0.02343   0.00000   0.00000   0.00000   0.00000   0.00000   0.00000   0.00000   0.00000   0.00000   0.00000 ...
  -0.02343   1.01493   0.00000   0.00000   0.00000   0.00000   0.00000   0.00000   0.00000   0.00000   0.00000   0.00000 ...
   0.00000   0.00000   1.99224   0.00000   0.00000  -0.07104   0.00000   0.00000   0.00000   0.00000   0.00000   0.00000 ...
   0.00000   0.00000   0.00000   1.99224   0.00000   0.00000  -0.07104   0.00000   0.00000   0.00000   0.00000   0.00000 ...
   0.00000   0.00000   0.00000   0.00000   1.99224   0.00000   0.00000  -0.07104   0.00000   0.00000   0.00000   0.00000 ...
   0.00000   0.00000  -0.07104   0.00000   0.00000   1.50442   0.00000   0.00000   0.00000   0.00000   0.00000   0.00000 ...
   0.00000   0.00000   0.00000  -0.07104   0.00000   0.00000   1.50442   0.00000   0.00000   0.00000   0.00000   0.00000 ...
   0.00000   0.00000   0.00000   0.00000  -0.07104   0.00000   0.00000   1.50442   0.00000   0.00000   0.00000   0.00000 ...
   0.00000   0.00000   0.00000   0.00000   0.00000   0.00000   0.00000   0.00000   0.55940   0.00000   0.00000   0.00000 ...
   0.00000   0.00000   0.00000   0.00000   0.00000   0.00000   0.00000   0.00000   0.00000   0.55940   0.00000   0.00000 ...
   0.00000   0.00000   0.00000   0.00000   0.00000   0.00000   0.00000   0.00000   0.00000   0.00000   1.74603   0.00000 ...
   0.00000   0.00000   0.00000   0.00000   0.00000   0.00000   0.00000   0.00000   0.00000   0.00000   0.00000   0.55940 ...
   ...  only 12  components have been written...



---OUTPUT-----------------------------------------------------------------------

 Cartesian coordinates (xcart) [bohr]
  5.03683211253956E+00  5.03683211253956E+00  5.03683211253956E+00
  1.51104963376187E+01  1.51104963376187E+01  1.51104963376187E+01
  1.00736642250791E+01  1.55312072872346E+01  1.00736642250791E+01
  1.00736642250791E+01  1.00736642250791E+01  4.61612116292369E+00
  1.00736642250791E+01  1.00736642250791E+01  1.55312072872346E+01
  1.00736642250791E+01  4.61612116292369E+00  1.00736642250791E+01
  1.55312072872346E+01  1.00736642250791E+01  1.00736642250791E+01
  4.61612116292369E+00  1.00736642250791E+01  1.00736642250791E+01
  4.98138530581824E-20  2.32765832504234E-20 -4.29803097114774E-20
 Reduced coordinates (xred)
  2.50000000000000E-01  2.50000000000000E-01  2.50000000000000E-01
  7.50000000000000E-01  7.50000000000000E-01  7.50000000000000E-01
  7.70881723880000E-01  2.29118276120000E-01  7.70881723880000E-01
  2.29118276120000E-01  2.29118276120000E-01  7.70881723880000E-01
  7.70881723880000E-01  7.70881723880000E-01  2.29118276120000E-01
  2.29118276120000E-01  7.70881723880000E-01  2.29118276120000E-01
  2.29118276120000E-01  7.70881723880000E-01  7.70881723880000E-01
  7.70881723880000E-01  2.29118276120000E-01  2.29118276120000E-01
 -3.45046141930000E-21 -8.16139963390000E-22  5.76109861450000E-21
 Cartesian forces (fcart) [Ha/bohr]; max,rms= 6.06513E-03 2.85913E-03 (free atoms)
 -0.00000000000000E+00  9.63735264431559E-20  9.36927948217326E-20
 -0.00000000000000E+00  9.63735264431559E-20  9.36927948217326E-20
  2.41265845928100E-20 -6.06513369209075E-03  6.95662102289226E-20
 -1.74280287725796E-19  2.56303495711360E-19  6.06513369209074E-03
  5.18687930707996E-19 -4.07964085807248E-19 -6.06513369209074E-03
 -2.41265845928100E-20  6.06513369209075E-03  1.17819379414543E-19
 -6.06513369209075E-03  1.20500111035966E-19  6.95662102289226E-20
  6.06513369209075E-03  7.22469418503460E-20  1.17819379414543E-19
 -0.00000000000000E+00  9.63735264431559E-20  9.36927948217326E-20
 Reduced forces (fred)
 -1.91466430091850E-18 -9.43829755343367E-19 -9.70834545575137E-19
 -1.91466430091850E-18 -9.43829755343367E-19 -9.70834545575137E-19
  6.10981202943366E-02 -9.43829755343367E-19  6.10981202943366E-02
 -6.10981202943366E-02 -6.10981202943366E-02 -8.26274255910404E-19
  6.10981202943366E-02  6.10981202943366E-02 -1.11539483523987E-18
 -6.10981202943366E-02 -9.43829755343367E-19 -6.10981202943366E-02
 -1.91466430091850E-18  6.10981202943366E-02  6.10981202943366E-02
 -1.91466430091850E-18 -6.10981202943366E-02 -6.10981202943366E-02
 -1.91466430091850E-18 -9.43829755343367E-19 -9.70834545575137E-19
 Scale of Primitive Cell (acell) [bohr]
  1.42463125698300E+01  1.42463125698300E+01  1.42463125698300E+01
 Real space primitive translations (rprimd) [bohr]
  0.00000000000000E+00  1.00736642250791E+01  1.00736642250791E+01
  1.00736642250791E+01  0.00000000000000E+00  1.00736642250791E+01
  1.00736642250791E+01  1.00736642250791E+01  0.00000000000000E+00
 Unitary Cell Volume (ucvol) [Bohr^3]=  2.04452491959663E+03
 Angles (23,13,12)= [degrees]
  6.00000000000000E+01  6.00000000000000E+01  6.00000000000000E+01
 Lengths [Bohr]
  1.42463125698996E+01  1.42463125698996E+01  1.42463125698996E+01
 Stress tensor in cartesian coordinates (strten) [Ha/bohr^3]
 -3.46285461640936E-05  0.00000000000000E+00  0.00000000000000E+00
  0.00000000000000E+00 -3.46285461640932E-05  0.00000000000000E+00
  0.00000000000000E+00  0.00000000000000E+00 -3.46285461640923E-05
 Total energy (etotal) [Ha]= -1.82356455831703E+02

--- Iteration: (   2/1000) Internal Cycle: (1/1)
--------------------------------------------------------------------------------

---SELF-CONSISTENT-FIELD CONVERGENCE--------------------------------------------

--- !BeginCycle
iteration_state: {dtset: 1, itime: 2, icycle: 1, }
solver: {iscf: 17, nstep: 2500, nline: 4, wfoptalg: 10, }
tolerances: {toldff: 1.00E-08, }
...

     iter   Etot(hartree)      deltaE(h)  residm     nres2    diffor    maxfor
 ETOT  1  -182.35736038738    -1.824E+02 9.403E-05 1.450E-01 3.774E-02 4.380E-02
 ETOT  2  -182.35670150008     6.589E-04 7.673E-05 1.385E-02 3.989E-02 3.913E-03
 ETOT  3  -182.35666335443     3.815E-05 7.559E-05 1.538E-03 3.859E-03 7.772E-03
 ETOT  4  -182.35666060394     2.750E-06 7.420E-05 2.727E-04 2.025E-03 5.747E-03
 ETOT  5  -182.35666004714     5.568E-07 7.124E-05 1.034E-04 4.513E-06 5.751E-03
 ETOT  6  -182.35665980514     2.420E-07 6.752E-05 1.095E-05 5.104E-04 5.241E-03
 ETOT  7  -182.35665980432     8.277E-10 6.385E-05 2.895E-06 1.310E-06 5.239E-03
 ETOT  8  -182.35665980497    -6.518E-10 5.903E-05 3.545E-07 7.368E-05 5.166E-03
 ETOT  9  -182.35665980211     2.861E-09 5.519E-05 8.169E-08 2.944E-06 5.163E-03
 ETOT 10  -182.35665980198     1.250E-10 4.993E-05 1.402E-08 3.482E-06 5.159E-03
 ETOT 11  -182.35665980084     1.145E-09 4.625E-05 1.020E-09 6.833E-07 5.159E-03
 ETOT 12  -182.35665980077     6.958E-11 4.106E-05 6.631E-11 3.563E-08 5.159E-03
 ETOT 13  -182.35665980081    -4.033E-11 3.775E-05 1.947E-11 1.832E-07 5.158E-03
 ETOT 14  -182.35665980083    -1.793E-11 3.299E-05 3.068E-12 7.606E-08 5.159E-03
 ETOT 15  -182.35665980085    -2.956E-11 3.408E-05 4.766E-13 3.607E-08 5.158E-03
 ETOT 16  -182.35665980086    -6.395E-12 2.602E-05 1.825E-13 8.486E-09 5.159E-03
 ETOT 17  -182.35665980087    -4.377E-12 3.218E-05 7.679E-14 2.653E-09 5.159E-03

 At SCF step   17, forces are converged : 
  for the second time, max diff in force=  2.653E-09 < toldff=  1.000E-08

 Cartesian components of stress tensor (hartree/bohr^3)
  sigma(1 1)= -3.09557067E-05  sigma(3 2)=  0.00000000E+00
  sigma(2 2)= -3.09557067E-05  sigma(3 1)=  0.00000000E+00
  sigma(3 3)= -3.09557067E-05  sigma(2 1)=  0.00000000E+00


--- !ResultsGS
iteration_state: {dtset: 1, itime: 2, icycle: 1, }
comment   : Summary of ground state results
lattice_vectors:
- [  0.0000000,  10.0736642,  10.0736642, ]
- [ 10.0736642,   0.0000000,  10.0736642, ]
- [ 10.0736642,  10.0736642,   0.0000000, ]
lattice_lengths: [  14.24631,   14.24631,   14.24631, ]
lattice_angles: [ 60.000,  60.000,  60.000, ] # degrees, (23, 13, 12)
lattice_volume:   2.0445249E+03
convergence: {deltae: -4.377E-12, res2:  7.679E-14, residm:  3.218E-05, diffor:  2.653E-09, }
etotal    :  -1.82356660E+02
entropy   :   0.00000000E+00
fermie    :  -4.50762831E-02
cartesian_stress_tensor: # hartree/bohr^3
- [ -3.09557067E-05,   0.00000000E+00,   0.00000000E+00, ]
- [  0.00000000E+00,  -3.09557067E-05,   0.00000000E+00, ]
- [  0.00000000E+00,   0.00000000E+00,  -3.09557067E-05, ]
pressure_GPa:   9.1075E-01
xred      :
- [  2.5000E-01,   2.5000E-01,   2.5000E-01, Cs]
- [  7.5000E-01,   7.5000E-01,   7.5000E-01, Cs]
- [  7.7058E-01,   2.2942E-01,   7.7058E-01, Cl]
- [  2.2942E-01,   2.2942E-01,   7.7058E-01, Cl]
- [  7.7058E-01,   7.7058E-01,   2.2942E-01, Cl]
- [  2.2942E-01,   7.7058E-01,   2.2942E-01, Cl]
- [  2.2942E-01,   7.7058E-01,   7.7058E-01, Cl]
- [  7.7058E-01,   2.2942E-01,   2.2942E-01, Cl]
- [ -1.0883E-22,   5.8119E-21,   5.0282E-21, Hf]
cartesian_forces: # hartree/bohr
- [ -9.63729790E-20,   4.81873106E-20,   9.27657545E-20, ]
- [ -9.63734170E-20,   4.81864348E-20,   9.27661924E-20, ]
- [  3.69766451E-19,  -5.15850498E-03,  -3.73373019E-19, ]
- [  2.53588082E-20,  -7.35455714E-20,   5.15850498E-03, ]
- [  9.04390294E-19,  -9.52577057E-19,  -5.15850498E-03, ]
- [ -5.62513504E-19,   5.15850498E-03,   5.58906936E-19, ]
- [ -5.15850498E-03,  -8.62735414E-21,   1.49581076E-19, ]
- [  5.15850498E-03,   5.38681750E-19,  -3.97728028E-19, ]
- [ -9.63735264E-20,   4.81867632E-20,   9.27669588E-20, ]
force_length_stats: {min:   1.42180354E-19, max:   5.15850498E-03, mean:   3.43900332E-03, }
...

 Integrated electronic density in atomic spheres:
 ------------------------------------------------
 Atom  Sphere_radius  Integrated_density
    1        2.20660          5.36602772
    2        2.20660          5.36602772
    3        1.80316          4.38171631
    4        1.80316          4.38171631
    5        1.80316          4.38171631
    6        1.80316          4.38171631
    7        1.80316          4.38171631
    8        1.80316          4.38171631
    9        2.41000          9.35454172

 PAW TEST:
 ==== Compensation charge inside spheres ============
 The following values must be close to each other ...
 Compensation charge over spherical meshes =     -1.447797346880879
 Compensation charge over fine fft grid    =     -1.447749633949579

 ==== Results concerning PAW augmentation regions ====

 Total pseudopotential strength Dij (hartree):
 Atom #  1
   0.41550  -0.13773   0.00000   0.00000   0.00000   0.00000   0.00000   0.00000   0.00000   0.00000   0.00000   0.00000 ...
  -0.13773   0.04132   0.00000   0.00000   0.00000   0.00000   0.00000   0.00000   0.00000   0.00000   0.00000   0.00000 ...
   0.00000   0.00000  -0.09056   0.00000   0.00000  -0.16835   0.00000   0.00000   0.00000   0.00000   0.00000  -0.00000 ...
   0.00000   0.00000   0.00000  -0.09056   0.00000   0.00000  -0.16835   0.00000  -0.00000   0.00000   0.00000   0.00000 ...
   0.00000   0.00000   0.00000   0.00000  -0.09056   0.00000   0.00000  -0.16835   0.00000  -0.00000   0.00000   0.00000 ...
   0.00000   0.00000  -0.16835   0.00000   0.00000   0.39648   0.00000   0.00000   0.00000   0.00000   0.00000   0.00000 ...
   0.00000   0.00000   0.00000  -0.16835   0.00000   0.00000   0.39648   0.00000   0.00000   0.00000   0.00000   0.00000 ...
   0.00000   0.00000   0.00000   0.00000  -0.16835   0.00000   0.00000   0.39648   0.00000   0.00000   0.00000   0.00000 ...
   0.00000   0.00000   0.00000  -0.00000   0.00000   0.00000   0.00000   0.00000   0.00565   0.00000   0.00000   0.00000 ...
   0.00000   0.00000   0.00000   0.00000  -0.00000   0.00000   0.00000   0.00000   0.00000   0.00565   0.00000   0.00000 ...
   0.00000   0.00000   0.00000   0.00000   0.00000   0.00000   0.00000   0.00000   0.00000   0.00000   0.00565   0.00000 ...
   0.00000   0.00000  -0.00000   0.00000   0.00000   0.00000   0.00000   0.00000   0.00000   0.00000   0.00000   0.00565 ...
   ...  only 12  components have been written...
 Atom #  9
  -3.47855   0.41401   0.00000   0.00000   0.00000   0.00000   0.00000   0.00000   0.00000   0.00000   0.00000   0.00000 ...
   0.41401   0.00564   0.00000   0.00000   0.00000   0.00000   0.00000   0.00000   0.00000   0.00000   0.00000   0.00000 ...
   0.00000   0.00000  -1.39092   0.00000   0.00000   0.11030   0.00000   0.00000   0.00000   0.00000   0.00000   0.00000 ...
   0.00000   0.00000   0.00000  -1.39092   0.00000   0.00000   0.11030   0.00000   0.00000   0.00000   0.00000   0.00000 ...
   0.00000   0.00000   0.00000   0.00000  -1.39092   0.00000   0.00000   0.11030   0.00000   0.00000   0.00000   0.00000 ...
   0.00000   0.00000   0.11030   0.00000   0.00000   0.01554   0.00000   0.00000   0.00000   0.00000   0.00000   0.00000 ...
   0.00000   0.00000   0.00000   0.11030   0.00000   0.00000   0.01554   0.00000   0.00000   0.00000   0.00000   0.00000 ...
   0.00000   0.00000   0.00000   0.00000   0.11030   0.00000   0.00000   0.01554   0.00000   0.00000   0.00000   0.00000 ...
   0.00000   0.00000   0.00000   0.00000   0.00000   0.00000   0.00000   0.00000  -0.38149   0.00000   0.00000   0.00000 ...
   0.00000   0.00000   0.00000   0.00000   0.00000   0.00000   0.00000   0.00000   0.00000  -0.38149   0.00000   0.00000 ...
   0.00000   0.00000   0.00000   0.00000   0.00000   0.00000   0.00000   0.00000   0.00000   0.00000  -0.38086   0.00000 ...
   0.00000   0.00000   0.00000   0.00000   0.00000   0.00000   0.00000   0.00000   0.00000   0.00000   0.00000  -0.38149 ...
   ...  only 12  components have been written...


 Augmentation waves occupancies Rhoij:
 Atom #  1
   1.99784  -0.01473   0.00000   0.00000   0.00000   0.00000   0.00000   0.00000   0.00000   0.00000   0.00000   0.00000 ...
  -0.01473   0.10984   0.00000   0.00000   0.00000   0.00000   0.00000   0.00000   0.00000   0.00000   0.00000   0.00000 ...
   0.00000   0.00000   2.01117   0.00000   0.00000  -0.00502   0.00000   0.00000   0.00000   0.00000   0.00000   0.00224 ...
   0.00000   0.00000   0.00000   2.01117   0.00000   0.00000  -0.00502   0.00000   0.00224   0.00000   0.00000   0.00000 ...
   0.00000   0.00000   0.00000   0.00000   2.01117   0.00000   0.00000  -0.00502   0.00000   0.00224   0.00000   0.00000 ...
   0.00000   0.00000  -0.00502   0.00000   0.00000   0.00009   0.00000   0.00000   0.00000   0.00000   0.00000  -0.00018 ...
   0.00000   0.00000   0.00000  -0.00502   0.00000   0.00000   0.00009   0.00000  -0.00018   0.00000   0.00000   0.00000 ...
   0.00000   0.00000   0.00000   0.00000  -0.00502   0.00000   0.00000   0.00009   0.00000  -0.00018   0.00000   0.00000 ...
   0.00000   0.00000   0.00000   0.00224   0.00000   0.00000  -0.00018   0.00000   0.03604   0.00000   0.00000   0.00000 ...
   0.00000   0.00000   0.00000   0.00000   0.00224   0.00000   0.00000  -0.00018   0.00000   0.03604   0.00000   0.00000 ...
   0.00000   0.00000   0.00000   0.00000   0.00000   0.00000   0.00000   0.00000   0.00000   0.00000   0.02223   0.00000 ...
   0.00000   0.00000   0.00224   0.00000   0.00000  -0.00018   0.00000   0.00000   0.00000   0.00000   0.00000   0.03604 ...
   ...  only 12  components have been written...
 Atom #  9
   1.99783  -0.02359   0.00000   0.00000   0.00000   0.00000   0.00000   0.00000   0.00000   0.00000   0.00000   0.00000 ...
  -0.02359   1.01207   0.00000   0.00000   0.00000   0.00000   0.00000   0.00000   0.00000   0.00000   0.00000   0.00000 ...
   0.00000   0.00000   1.99213   0.00000   0.00000  -0.07191   0.00000   0.00000   0.00000   0.00000   0.00000   0.00000 ...
   0.00000   0.00000   0.00000   1.99213   0.00000   0.00000  -0.07191   0.00000   0.00000   0.00000   0.00000   0.00000 ...
   0.00000   0.00000   0.00000   0.00000   1.99213   0.00000   0.00000  -0.07191   0.00000   0.00000   0.00000   0.00000 ...
   0.00000   0.00000  -0.07191   0.00000   0.00000   1.49458   0.00000   0.00000   0.00000   0.00000   0.00000   0.00000 ...
   0.00000   0.00000   0.00000  -0.07191   0.00000   0.00000   1.49458   0.00000   0.00000   0.00000   0.00000   0.00000 ...
   0.00000   0.00000   0.00000   0.00000  -0.07191   0.00000   0.00000   1.49458   0.00000   0.00000   0.00000   0.00000 ...
   0.00000   0.00000   0.00000   0.00000   0.00000   0.00000   0.00000   0.00000   0.55509   0.00000   0.00000   0.00000 ...
   0.00000   0.00000   0.00000   0.00000   0.00000   0.00000   0.00000   0.00000   0.00000   0.55509   0.00000   0.00000 ...
   0.00000   0.00000   0.00000   0.00000   0.00000   0.00000   0.00000   0.00000   0.00000   0.00000   1.73291   0.00000 ...
   0.00000   0.00000   0.00000   0.00000   0.00000   0.00000   0.00000   0.00000   0.00000   0.00000   0.00000   0.55509 ...
   ...  only 12  components have been written...



---OUTPUT-----------------------------------------------------------------------

 Cartesian coordinates (xcart) [bohr]
  5.03683211253956E+00  5.03683211253956E+00  5.03683211253956E+00
  1.51104963376187E+01  1.51104963376187E+01  1.51104963376187E+01
  1.00736642250791E+01  1.55251421535425E+01  1.00736642250791E+01
  1.00736642250791E+01  1.00736642250791E+01  4.62218629661578E+00
  1.00736642250791E+01  1.00736642250791E+01  1.55251421535425E+01
  1.00736642250791E+01  4.62218629661578E+00  1.00736642250791E+01
  1.55251421535425E+01  1.00736642250791E+01  1.00736642250791E+01
  4.62218629661578E+00  1.00736642250791E+01  1.00736642250791E+01
  1.09199849085637E-19  4.95559440613300E-20  5.74512103208751E-20
 Reduced coordinates (xred)
  2.50000000000000E-01  2.50000000000000E-01  2.50000000000000E-01
  7.50000000000000E-01  7.50000000000000E-01  7.50000000000000E-01
  7.70580684776622E-01  2.29419315223378E-01  7.70580684776622E-01
  2.29419315223378E-01  2.29419315223378E-01  7.70580684776622E-01
  7.70580684776622E-01  7.70580684776622E-01  2.29419315223378E-01
  2.29419315223378E-01  7.70580684776622E-01  2.29419315223378E-01
  2.29419315223378E-01  7.70580684776622E-01  7.70580684776622E-01
  7.70580684776622E-01  2.29419315223378E-01  2.29419315223378E-01
 -1.08833025125690E-22  5.81194254289640E-21  5.02818937392644E-21
 Cartesian forces (fcart) [Ha/bohr]; max,rms= 5.15850E-03 2.43174E-03 (free atoms)
 -9.63729790219501E-20  4.81873106427838E-20  9.27657544885829E-20
 -9.63734169589148E-20  4.81864347688545E-20  9.27661924255475E-20
  3.69766451202329E-19 -5.15850497795327E-03 -3.73373018830249E-19
  2.53588082201285E-20 -7.35455714417064E-20  5.15850497795327E-03
  9.04390293852162E-19 -9.52577057073740E-19 -5.15850497795327E-03
 -5.62513504088641E-19  5.15850497795327E-03  5.58906936460720E-19
 -5.15850497795327E-03 -8.62735413914097E-21  1.49581076175955E-19
  5.15850497795327E-03  5.38681749576499E-19 -3.97728027539685E-19
 -9.63735264431559E-20  4.81867632215780E-20  9.27669588152356E-20
 Reduced forces (fred)
 -1.41991384962910E-18  3.63379687336097E-20  4.85406243712735E-19
 -1.41990943799916E-18  3.63379687336097E-20  4.85419478602536E-19
  5.19650470513005E-02  3.63313512887092E-20  5.19650470513004E-02
 -5.19650470513005E-02 -5.19650470513005E-02  4.85417272787569E-19
  5.19650470513005E-02  5.19650470513005E-02  4.85417272787570E-19
 -5.19650470513005E-02  3.63313512887090E-20 -5.19650470513004E-02
 -1.41992046707400E-18  5.19650470513004E-02  5.19650470513004E-02
 -1.41992046707400E-18 -5.19650470513004E-02 -5.19650470513005E-02
 -1.41992046707400E-18  3.63313512887092E-20  4.85417272787569E-19
 Scale of Primitive Cell (acell) [bohr]
  1.42463125698300E+01  1.42463125698300E+01  1.42463125698300E+01
 Real space primitive translations (rprimd) [bohr]
  0.00000000000000E+00  1.00736642250791E+01  1.00736642250791E+01
  1.00736642250791E+01  0.00000000000000E+00  1.00736642250791E+01
  1.00736642250791E+01  1.00736642250791E+01  0.00000000000000E+00
 Unitary Cell Volume (ucvol) [Bohr^3]=  2.04452491959663E+03
 Angles (23,13,12)= [degrees]
  6.00000000000000E+01  6.00000000000000E+01  6.00000000000000E+01
 Lengths [Bohr]
  1.42463125698996E+01  1.42463125698996E+01  1.42463125698996E+01
 Stress tensor in cartesian coordinates (strten) [Ha/bohr^3]
 -3.09557066990539E-05  0.00000000000000E+00  0.00000000000000E+00
  0.00000000000000E+00 -3.09557066990552E-05  0.00000000000000E+00
  0.00000000000000E+00  0.00000000000000E+00 -3.09557066990544E-05
 Total energy (etotal) [Ha]= -1.82356659800866E+02

 Difference of energy with previous step (new-old):
           Absolute (Ha)=-2.03969E-04
           Relative     =-1.11852E-06

--- Iteration: (   3/1000) Internal Cycle: (1/1)
--------------------------------------------------------------------------------

---SELF-CONSISTENT-FIELD CONVERGENCE--------------------------------------------

--- !BeginCycle
iteration_state: {dtset: 1, itime: 3, icycle: 1, }
solver: {iscf: 17, nstep: 2500, nline: 4, wfoptalg: 10, }
tolerances: {toldff: 1.00E-08, }
...

     iter   Etot(hartree)      deltaE(h)  residm     nres2    diffor    maxfor
 ETOT  1  -182.37965425039    -1.824E+02 7.574E-04 4.582E+00 2.123E-01 2.175E-01
 ETOT  2  -182.35841720100     2.124E-02 3.827E-04 3.960E-01 2.206E-01 3.170E-03
 ETOT  3  -182.35737822381     1.039E-03 3.068E-04 4.743E-02 1.895E-02 1.578E-02
 ETOT  4  -182.35726044114     1.178E-04 3.122E-04 8.800E-03 1.251E-02 3.273E-03
 ETOT  5  -182.35723474475     2.570E-05 1.816E-04 3.167E-03 3.637E-04 3.636E-03
 ETOT  6  -182.35721918217     1.556E-05 2.191E-04 2.449E-04 2.899E-03 7.370E-04
 ETOT  7  -182.35721858527     5.969E-07 1.380E-04 8.096E-05 1.176E-05 7.488E-04
 ETOT  8  -182.35721828232     3.029E-07 2.525E-04 9.572E-06 3.744E-04 3.744E-04
 ETOT  9  -182.35721824328     3.905E-08 1.501E-04 2.370E-06 1.555E-05 3.588E-04
 ETOT 10  -182.35721823423     9.050E-09 2.674E-04 3.400E-07 1.100E-05 3.478E-04
 ETOT 11  -182.35721822880     5.432E-09 1.422E-04 3.145E-08 6.501E-06 3.413E-04
 ETOT 12  -182.35721822855     2.497E-10 3.603E-04 1.455E-09 7.233E-08 3.414E-04
 ETOT 13  -182.35721822893    -3.803E-10 1.203E-04 5.149E-10 7.049E-07 3.407E-04
 ETOT 14  -182.35721822901    -8.265E-11 5.320E-04 4.721E-11 2.459E-07 3.410E-04
 ETOT 15  -182.35721822912    -1.056E-10 1.410E-04 1.007E-11 1.030E-07 3.409E-04
 ETOT 16  -182.35721822915    -3.047E-11 6.122E-04 3.850E-12 3.809E-08 3.409E-04
 ETOT 17  -182.35721822919    -4.027E-11 1.428E-04 1.171E-12 1.174E-08 3.409E-04
 ETOT 18  -182.35721822922    -2.893E-11 5.516E-04 3.364E-13 6.397E-10 3.409E-04
 ETOT 19  -182.35721822923    -1.560E-11 1.159E-04 1.278E-14 5.274E-09 3.409E-04

 At SCF step   19, forces are converged : 
  for the second time, max diff in force=  5.274E-09 < toldff=  1.000E-08

 Cartesian components of stress tensor (hartree/bohr^3)
  sigma(1 1)= -1.08402476E-05  sigma(3 2)=  0.00000000E+00
  sigma(2 2)= -1.08402476E-05  sigma(3 1)=  0.00000000E+00
  sigma(3 3)= -1.08402476E-05  sigma(2 1)=  0.00000000E+00


--- !ResultsGS
iteration_state: {dtset: 1, itime: 3, icycle: 1, }
comment   : Summary of ground state results
lattice_vectors:
- [  0.0000000,  10.0736642,  10.0736642, ]
- [ 10.0736642,   0.0000000,  10.0736642, ]
- [ 10.0736642,  10.0736642,   0.0000000, ]
lattice_lengths: [  14.24631,   14.24631,   14.24631, ]
lattice_angles: [ 60.000,  60.000,  60.000, ] # degrees, (23, 13, 12)
lattice_volume:   2.0445249E+03
convergence: {deltae: -1.560E-11, res2:  1.278E-14, residm:  1.159E-04, diffor:  5.274E-09, }
etotal    :  -1.82357218E+02
entropy   :   0.00000000E+00
fermie    :  -4.52790739E-02
cartesian_stress_tensor: # hartree/bohr^3
- [ -1.08402476E-05,   0.00000000E+00,   0.00000000E+00, ]
- [  0.00000000E+00,  -1.08402476E-05,   0.00000000E+00, ]
- [  0.00000000E+00,   0.00000000E+00,  -1.08402476E-05, ]
pressure_GPa:   3.1893E-01
xred      :
- [  2.5000E-01,   2.5000E-01,   2.5000E-01, Cs]
- [  7.5000E-01,   7.5000E-01,   7.5000E-01, Cs]
- [  7.6887E-01,   2.3113E-01,   7.6887E-01, Cl]
- [  2.3113E-01,   2.3113E-01,   7.6887E-01, Cl]
- [  7.6887E-01,   7.6887E-01,   2.3113E-01, Cl]
- [  2.3113E-01,   7.6887E-01,   2.3113E-01, Cl]
- [  2.3113E-01,   7.6887E-01,   7.6887E-01, Cl]
- [  7.6887E-01,   2.3113E-01,   2.3113E-01, Cl]
- [  1.4328E-19,  -1.6981E-20,  -9.4906E-20, Hf]
cartesian_forces: # hartree/bohr
- [ -8.21131809E-26,  -1.20466634E-20,  -9.23716330E-22, ]
- [  2.73710603E-26,  -1.20466634E-20,  -9.23825814E-22, ]
- [ -2.84496726E-21,  -3.40899009E-04,   1.92116882E-21, ]
- [  1.86805104E-20,  -3.07272012E-20,   3.40899009E-04, ]
- [  2.84496726E-21,  -1.48916581E-20,  -3.40899009E-04, ]
- [ -8.31418599E-21,   3.40899009E-04,   7.39038754E-21, ]
- [ -3.40899009E-04,  -1.48916581E-20,   1.92116882E-21, ]
- [  3.40899009E-04,  -9.20172354E-21,  -3.76876571E-21, ]
- [ -0.00000000E+00,  -1.20466908E-20,  -9.23798443E-22, ]
force_length_stats: {min:   1.20820260E-20, max:   3.40899009E-04, mean:   2.27266006E-04, }
...

 Integrated electronic density in atomic spheres:
 ------------------------------------------------
 Atom  Sphere_radius  Integrated_density
    1        2.20660          5.36612910
    2        2.20660          5.36612910
    3        1.80316          4.36592376
    4        1.80316          4.36592376
    5        1.80316          4.36592376
    6        1.80316          4.36592376
    7        1.80316          4.36592376
    8        1.80316          4.36592376
    9        2.41000          9.31876919

 PAW TEST:
 ==== Compensation charge inside spheres ============
 The following values must be close to each other ...
 Compensation charge over spherical meshes =     -1.450059369332246
 Compensation charge over fine fft grid    =     -1.450042210034793

 ==== Results concerning PAW augmentation regions ====

 Total pseudopotential strength Dij (hartree):
 Atom #  1
   0.41536  -0.13769   0.00000   0.00000   0.00000   0.00000   0.00000   0.00000   0.00000   0.00000   0.00000   0.00000 ...
  -0.13769   0.04131   0.00000   0.00000   0.00000   0.00000   0.00000   0.00000   0.00000   0.00000   0.00000   0.00000 ...
   0.00000   0.00000  -0.09054   0.00000   0.00000  -0.16836   0.00000   0.00000   0.00000   0.00000   0.00000  -0.00000 ...
   0.00000   0.00000   0.00000  -0.09054   0.00000   0.00000  -0.16836   0.00000  -0.00000   0.00000   0.00000   0.00000 ...
   0.00000   0.00000   0.00000   0.00000  -0.09054   0.00000   0.00000  -0.16836   0.00000  -0.00000   0.00000   0.00000 ...
   0.00000   0.00000  -0.16836   0.00000   0.00000   0.39644   0.00000   0.00000   0.00000   0.00000   0.00000   0.00000 ...
   0.00000   0.00000   0.00000  -0.16836   0.00000   0.00000   0.39644   0.00000   0.00000   0.00000   0.00000   0.00000 ...
   0.00000   0.00000   0.00000   0.00000  -0.16836   0.00000   0.00000   0.39644   0.00000   0.00000   0.00000   0.00000 ...
   0.00000   0.00000   0.00000  -0.00000   0.00000   0.00000   0.00000   0.00000   0.00565   0.00000   0.00000   0.00000 ...
   0.00000   0.00000   0.00000   0.00000  -0.00000   0.00000   0.00000   0.00000   0.00000   0.00565   0.00000   0.00000 ...
   0.00000   0.00000   0.00000   0.00000   0.00000   0.00000   0.00000   0.00000   0.00000   0.00000   0.00565   0.00000 ...
   0.00000   0.00000  -0.00000   0.00000   0.00000   0.00000   0.00000   0.00000   0.00000   0.00000   0.00000   0.00565 ...
   ...  only 12  components have been written...
 Atom #  9
  -3.48064   0.41474   0.00000   0.00000   0.00000   0.00000   0.00000   0.00000   0.00000   0.00000   0.00000   0.00000 ...
   0.41474   0.00546   0.00000   0.00000   0.00000   0.00000   0.00000   0.00000   0.00000   0.00000   0.00000   0.00000 ...
   0.00000   0.00000  -1.39412   0.00000   0.00000   0.11095   0.00000   0.00000   0.00000   0.00000   0.00000   0.00000 ...
   0.00000   0.00000   0.00000  -1.39412   0.00000   0.00000   0.11095   0.00000   0.00000   0.00000   0.00000   0.00000 ...
   0.00000   0.00000   0.00000   0.00000  -1.39412   0.00000   0.00000   0.11095   0.00000   0.00000   0.00000   0.00000 ...
   0.00000   0.00000   0.11095   0.00000   0.00000   0.01543   0.00000   0.00000   0.00000   0.00000   0.00000   0.00000 ...
   0.00000   0.00000   0.00000   0.11095   0.00000   0.00000   0.01543   0.00000   0.00000   0.00000   0.00000   0.00000 ...
   0.00000   0.00000   0.00000   0.00000   0.11095   0.00000   0.00000   0.01543   0.00000   0.00000   0.00000   0.00000 ...
[...]
                       7.3640446298E+00  4.8999855541E+00  4.8999855541E+00
                       2.4359264784E+00  4.8999855541E+00  4.8999855541E+00
                       6.8739861622E-19  1.0893532148E-19  2.0351209546E-19
           xangst10    2.4230697795E+00  2.4230697795E+00  2.4230697795E+00
                       7.2692093385E+00  7.2692093385E+00  7.2692093385E+00
                       4.8461395590E+00  7.2630664806E+00  4.8461395590E+00
                       4.8461395590E+00  4.8461395590E+00  2.4292126374E+00
                       4.8461395590E+00  4.8461395590E+00  7.2630664806E+00
                       4.8461395590E+00  2.4292126374E+00  4.8461395590E+00
                       7.2630664806E+00  4.8461395590E+00  4.8461395590E+00
                       2.4292126374E+00  4.8461395590E+00  4.8461395590E+00
                       4.2042951886E-19  7.9341722665E-19 -5.4959817071E-19
            xcart1     5.0368321125E+00  5.0368321125E+00  5.0368321125E+00
                       1.5110496338E+01  1.5110496338E+01  1.5110496338E+01
                       1.0073664225E+01  1.5488066221E+01  1.0073664225E+01
                       1.0073664225E+01  1.0073664225E+01  4.6592622294E+00
                       1.0073664225E+01  1.0073664225E+01  1.5488066221E+01
                       1.0073664225E+01  4.6592622294E+00  1.0073664225E+01
                       1.5488066221E+01  1.0073664225E+01  1.0073664225E+01
                       4.6592622294E+00  1.0073664225E+01  1.0073664225E+01
                      -1.2092632352E-18  5.0231716999E-19  1.3523774457E-18
            xcart2     4.9859550205E+00  4.9859550205E+00  4.9859550205E+00
                       1.4957865061E+01  1.4957865061E+01  1.4957865061E+01
                       9.9719100410E+00  1.5288678930E+01  9.9719100410E+00
                       9.9719100410E+00  9.9719100410E+00  4.6551411517E+00
                       9.9719100410E+00  9.9719100410E+00  1.5288678930E+01
                       9.9719100410E+00  4.6551411517E+00  9.9719100410E+00
                       1.5288678930E+01  9.9719100410E+00  9.9719100410E+00
                       4.6551411517E+00  9.9719100410E+00  9.9719100410E+00
                       4.9310682825E-20  2.3041466248E-20 -4.2546165169E-20
            xcart3     4.9350779284E+00  4.9350779284E+00  4.9350779284E+00
                       1.4805233785E+01  1.4805233785E+01  1.4805233785E+01
                       9.8701558569E+00  1.5089441784E+01  9.8701558569E+00
                       9.8701558569E+00  9.8701558569E+00  4.6508699293E+00
                       9.8701558569E+00  9.8701558569E+00  1.5089441784E+01
                       9.8701558569E+00  4.6508699293E+00  9.8701558569E+00
                       1.5089441784E+01  9.8701558569E+00  9.8701558569E+00
                       4.6508699293E+00  9.8701558569E+00  9.8701558569E+00
                       1.6038222240E-19  1.0525884961E-18  2.9867894603E-19
            xcart4     4.8842008364E+00  4.8842008364E+00  4.8842008364E+00
                       1.4652602509E+01  1.4652602509E+01  1.4652602509E+01
                       9.7684016728E+00  1.4891253914E+01  9.7684016728E+00
                       9.7684016728E+00  9.7684016728E+00  4.6455494313E+00
                       9.7684016728E+00  9.7684016728E+00  1.4891253914E+01
                       9.7684016728E+00  4.6455494313E+00  9.7684016728E+00
                       1.4891253914E+01  9.7684016728E+00  9.7684016728E+00
                       4.6455494313E+00  9.7684016728E+00  9.7684016728E+00
                       7.5591981380E-19  2.2712105283E-18  8.4050113098E-19
            xcart5     4.8333237444E+00  4.8333237444E+00  4.8333237444E+00
                       1.4499971233E+01  1.4499971233E+01  1.4499971233E+01
                       9.6666474887E+00  1.4694105072E+01  9.6666474887E+00
                       9.6666474887E+00  9.6666474887E+00  4.6391899057E+00
                       9.6666474887E+00  9.6666474887E+00  1.4694105072E+01
                       9.6666474887E+00  4.6391899057E+00  9.6666474887E+00
                       1.4694105072E+01  9.6666474887E+00  9.6666474887E+00
                       4.6391899057E+00  9.6666474887E+00  9.6666474887E+00
                       7.0452714396E-20  1.9243351922E-20 -6.0792822758E-20
            xcart6     4.7824466523E+00  4.7824466523E+00  4.7824466523E+00
                       1.4347339957E+01  1.4347339957E+01  1.4347339957E+01
                       9.5648933046E+00  1.4497708687E+01  9.5648933046E+00
                       9.5648933046E+00  9.5648933046E+00  4.6320779227E+00
                       9.5648933046E+00  9.5648933046E+00  1.4497708687E+01
                       9.5648933046E+00  4.6320779227E+00  9.5648933046E+00
                       1.4497708687E+01  9.5648933046E+00  9.5648933046E+00
                       4.6320779227E+00  9.5648933046E+00  9.5648933046E+00
                       1.6372639436E-19 -1.3156666015E-18  3.0919654929E-19
            xcart7     4.7315695603E+00  4.7315695603E+00  4.7315695603E+00
                       1.4194708681E+01  1.4194708681E+01  1.4194708681E+01
                       9.4631391205E+00  1.4302160774E+01  9.4631391205E+00
                       9.4631391205E+00  9.4631391205E+00  4.6241174670E+00
                       9.4631391205E+00  9.4631391205E+00  1.4302160774E+01
                       9.4631391205E+00  4.6241174670E+00  9.4631391205E+00
                       1.4302160774E+01  9.4631391205E+00  9.4631391205E+00
                       4.6241174670E+00  9.4631391205E+00  9.4631391205E+00
                       3.6654155998E-20  4.3427002330E-20 -4.6638522319E-20
            xcart8     4.6806924682E+00  4.6806924682E+00  4.6806924682E+00
                       1.4042077405E+01  1.4042077405E+01  1.4042077405E+01
                       9.3613849364E+00  1.4108512858E+01  9.3613849364E+00
                       9.3613849364E+00  9.3613849364E+00  4.6142570150E+00
                       9.3613849364E+00  9.3613849364E+00  1.4108512858E+01
                       9.3613849364E+00  4.6142570150E+00  9.3613849364E+00
                       1.4108512858E+01  9.3613849364E+00  9.3613849364E+00
                       4.6142570150E+00  9.3613849364E+00  9.3613849364E+00
                       2.2542964084E-18  2.4208993437E-19 -1.4939103967E-18
            xcart9     4.6298153762E+00  4.6298153762E+00  4.6298153762E+00
                       1.3889446129E+01  1.3889446129E+01  1.3889446129E+01
                       9.2596307523E+00  1.3916027581E+01  9.2596307523E+00
                       9.2596307523E+00  9.2596307523E+00  4.6032339241E+00
                       9.2596307523E+00  9.2596307523E+00  1.3916027581E+01
                       9.2596307523E+00  4.6032339241E+00  9.2596307523E+00
                       1.3916027581E+01  9.2596307523E+00  9.2596307523E+00
                       4.6032339241E+00  9.2596307523E+00  9.2596307523E+00
                       1.2989951288E-18  2.0585792379E-19  3.8458212514E-19
            xcart10    4.5789382841E+00  4.5789382841E+00  4.5789382841E+00
                       1.3736814852E+01  1.3736814852E+01  1.3736814852E+01
                       9.1578765683E+00  1.3725206533E+01  9.1578765683E+00
                       9.1578765683E+00  9.1578765683E+00  4.5905466033E+00
                       9.1578765683E+00  9.1578765683E+00  1.3725206533E+01
                       9.1578765683E+00  4.5905466033E+00  9.1578765683E+00
                       1.3725206533E+01  9.1578765683E+00  9.1578765683E+00
                       4.5905466033E+00  9.1578765683E+00  9.1578765683E+00
                       7.9449664883E-19  1.4993412675E-18 -1.0385900258E-18
             xred1     2.5000000000E-01  2.5000000000E-01  2.5000000000E-01
                       7.5000000000E-01  7.5000000000E-01  7.5000000000E-01
                       7.6874044413E-01  2.3125955587E-01  7.6874044413E-01
                       2.3125955587E-01  2.3125955587E-01  7.6874044413E-01
                       7.6874044413E-01  7.6874044413E-01  2.3125955587E-01
                       2.3125955587E-01  7.6874044413E-01  2.3125955587E-01
                       2.3125955587E-01  7.6874044413E-01  7.6874044413E-01
                       7.6874044413E-01  2.3125955587E-01  2.3125955587E-01
                       1.5207762451E-19 -1.7828813402E-20 -1.0221322971E-19
             xred2     2.5000000000E-01  2.5000000000E-01  2.5000000000E-01
                       7.5000000000E-01  7.5000000000E-01  7.5000000000E-01
                       7.6658728706E-01  2.3341271294E-01  7.6658728706E-01
                       2.3341271294E-01  2.3341271294E-01  7.6658728706E-01
                       7.6658728706E-01  7.6658728706E-01  2.3341271294E-01
                       2.3341271294E-01  7.6658728706E-01  2.3341271294E-01
                       2.3341271294E-01  7.6658728706E-01  7.6658728706E-01
                       7.6658728706E-01  2.3341271294E-01  2.3341271294E-01
                      -3.4504614193E-21 -8.1613996339E-22  5.7610986145E-21
             xred3     2.5000000000E-01  2.5000000000E-01  2.5000000000E-01
                       7.5000000000E-01  7.5000000000E-01  7.5000000000E-01
                       7.6439734100E-01  2.3560265900E-01  7.6439734100E-01
                       2.3560265900E-01  2.3560265900E-01  7.6439734100E-01
                       7.6439734100E-01  7.6439734100E-01  2.3560265900E-01
                       2.3560265900E-01  7.6439734100E-01  2.3560265900E-01
                       2.3560265900E-01  7.6439734100E-01  7.6439734100E-01
                       7.6439734100E-01  2.3560265900E-01  2.3560265900E-01
                       6.0327579268E-20 -3.0066765724E-20  4.6315974422E-20
             xred4     2.5000000000E-01  2.5000000000E-01  2.5000000000E-01
                       7.5000000000E-01  7.5000000000E-01  7.5000000000E-01
                       7.6221547870E-01  2.3778452130E-01  7.6221547870E-01
                       2.3778452130E-01  2.3778452130E-01  7.6221547870E-01
                       7.6221547870E-01  7.6221547870E-01  2.3778452130E-01
                       2.3778452130E-01  7.6221547870E-01  2.3778452130E-01
                       2.3778452130E-01  7.6221547870E-01  7.6221547870E-01
                       7.6221547870E-01  2.3778452130E-01  2.3778452130E-01
                       1.2058225718E-19 -3.4539406040E-20  1.1192359223E-19
             xred5     2.5000000000E-01  2.5000000000E-01  2.5000000000E-01
                       7.5000000000E-01  7.5000000000E-01  7.5000000000E-01
                       7.6004142537E-01  2.3995857463E-01  7.6004142537E-01
                       2.3995857463E-01  2.3995857463E-01  7.6004142537E-01
                       7.6004142537E-01  7.6004142537E-01  2.3995857463E-01
                       2.3995857463E-01  7.6004142537E-01  2.3995857463E-01
                       2.3995857463E-01  7.6004142537E-01  7.6004142537E-01
                       7.6004142537E-01  2.3995857463E-01  2.3995857463E-01
                      -5.7932279709E-21 -4.9569720499E-22  7.7839234984E-21
             xred6     2.5000000000E-01  2.5000000000E-01  2.5000000000E-01
                       7.5000000000E-01  7.5000000000E-01  7.5000000000E-01
                       7.5786044992E-01  2.4213955008E-01  7.5786044992E-01
                       2.4213955008E-01  2.4213955008E-01  7.5786044992E-01
                       7.5786044992E-01  7.5786044992E-01  2.4213955008E-01
                       2.4213955008E-01  7.5786044992E-01  2.4213955008E-01
                       2.4213955008E-01  7.5786044992E-01  7.5786044992E-01
                       7.5786044992E-01  2.4213955008E-01  2.4213955008E-01
                      -6.1171432307E-20  9.3497621366E-20 -7.6380191077E-20
             xred7     2.5000000000E-01  2.5000000000E-01  2.5000000000E-01
                       7.5000000000E-01  7.5000000000E-01  7.5000000000E-01
                       7.5567740218E-01  2.4432259782E-01  7.5567740218E-01
                       2.4432259782E-01  2.4432259782E-01  7.5567740218E-01
                       7.5567740218E-01  7.5567740218E-01  2.4432259782E-01
                       2.4432259782E-01  7.5567740218E-01  2.4432259782E-01
                       2.4432259782E-01  7.5567740218E-01  7.5567740218E-01
                       7.5567740218E-01  2.4432259782E-01  2.4432259782E-01
                      -2.1063663695E-21 -2.8220745765E-21  6.6954357869E-21
             xred8     2.5000000000E-01  2.5000000000E-01  2.5000000000E-01
                       7.5000000000E-01  7.5000000000E-01  7.5000000000E-01
                       7.5354837739E-01  2.4645162261E-01  7.5354837739E-01
                       2.4645162261E-01  2.4645162261E-01  7.5354837739E-01
                       7.5354837739E-01  7.5354837739E-01  2.4645162261E-01
                       2.4645162261E-01  7.5354837739E-01  2.4645162261E-01
                       2.4645162261E-01  7.5354837739E-01  7.5354837739E-01
                       7.5354837739E-01  2.4645162261E-01  2.4645162261E-01
                      -1.8726485956E-19  2.7682660251E-20  2.1312534238E-19
             xred9     2.5000000000E-01  2.5000000000E-01  2.5000000000E-01
                       7.5000000000E-01  7.5000000000E-01  7.5000000000E-01
                       7.5143534082E-01  2.4856465918E-01  7.5143534082E-01
                       2.4856465918E-01  2.4856465918E-01  7.5143534082E-01
                       7.5143534082E-01  7.5143534082E-01  2.4856465918E-01
                       2.4856465918E-01  7.5143534082E-01  2.4856465918E-01
                       2.4856465918E-01  7.5143534082E-01  7.5143534082E-01
                       7.5143534082E-01  2.4856465918E-01  2.4856465918E-01
                      -3.8260439254E-20  7.9793642405E-20  6.0492203058E-20
             xred10    2.5000000000E-01  2.5000000000E-01  2.5000000000E-01
                       7.5000000000E-01  7.5000000000E-01  7.5000000000E-01
                       7.4936621120E-01  2.5063378880E-01  7.4936621120E-01
                       2.5063378880E-01  2.5063378880E-01  7.4936621120E-01
                       7.4936621120E-01  7.4936621120E-01  2.5063378880E-01
                       2.5063378880E-01  7.4936621120E-01  2.5063378880E-01
                       2.5063378880E-01  7.4936621120E-01  7.4936621120E-01
                       7.4936621120E-01  2.5063378880E-01  2.5063378880E-01
                      -1.8221768149E-20 -9.5187712536E-20  1.8194326585E-19
            znucl       55.00000   17.00000   72.00000

================================================================================


- Timing analysis has been suppressed with timopt=0



================================================================================

 Suggested references for the acknowledgment of ABINIT usage.

 The users of ABINIT have little formal obligations with respect to the ABINIT group
 (those specified in the GNU General Public License, http://www.gnu.org/copyleft/gpl.txt).
 However, it is common practice in the scientific literature,
 to acknowledge the efforts of people that have made the research possible.
 In this spirit, please find below suggested citations of work written by ABINIT developers,
 corresponding to implementations inside of ABINIT that you have used in the present run.
 Note also that it will be of great value to readers of publications presenting these results,
 to read papers enabling them to understand the theoretical formalism and details
 of the ABINIT implementation.
 For information on why they are suggested, see also https://docs.abinit.org/theory/acknowledgments.
-
- [1] Implementation of the Projector Augmented-Wave Method in the ABINIT code.
- M. Torrent, F. Jollet, F. Bottin, G. Zerah, and X. Gonze Comput. Mat. Science 42, 337, (2008).
- Comment: PAW calculations. Strong suggestion to cite this paper.
- DOI and bibtex: see https://docs.abinit.org/theory/bibliography/#torrent2008
-
- [2] Libxc: A library of exchange and correlation functionals for density functional theory.
- M.A.L. Marques, M.J.T. Oliveira, T. Burnus, Computer Physics Communications 183, 2227 (2012).
- Comment: to be cited when LibXC is used (negative value of ixc)
- Strong suggestion to cite this paper.
- DOI and bibtex: see https://docs.abinit.org/theory/bibliography/#marques2012
-
- [3] The Abinit project: Impact, environment and recent developments.
- Computer Phys. Comm. 248, 107042 (2020).
- X.Gonze, B. Amadon, G. Antonius, F.Arnardi, L.Baguet, J.-M.Beuken,
- J.Bieder, F.Bottin, J.Bouchet, E.Bousquet, N.Brouwer, F.Bruneval,
- G.Brunin, T.Cavignac, J.-B. Charraud, Wei Chen, M.Cote, S.Cottenier,
- J.Denier, G.Geneste, Ph.Ghosez, M.Giantomassi, Y.Gillet, O.Gingras,
- D.R.Hamann, G.Hautier, Xu He, N.Helbig, N.Holzwarth, Y.Jia, F.Jollet,
- W.Lafargue-Dit-Hauret, K.Lejaeghere, M.A.L.Marques, A.Martin, C.Martins,
- H.P.C. Miranda, F.Naccarato, K. Persson, G.Petretto, V.Planes, Y.Pouillon,
- S.Prokhorenko, F.Ricci, G.-M.Rignanese, A.H.Romero, M.M.Schmitt, M.Torrent,
- M.J.van Setten, B.Van Troeye, M.J.Verstraete, G.Zerah and J.W.Zwanzig
- Comment: the fifth generic paper describing the ABINIT project.
- Note that a version of this paper, that is not formatted for Computer Phys. Comm. 
- is available at https://www.abinit.org/sites/default/files/ABINIT20.pdf .
- The licence allows the authors to put it on the Web.
- DOI and bibtex: see https://docs.abinit.org/theory/bibliography/#gonze2020
-
- [4] ABINIT: Overview, and focus on selected capabilities
- J. Chem. Phys. 152, 124102 (2020).
- A. Romero, D.C. Allan, B. Amadon, G. Antonius, T. Applencourt, L.Baguet,
- J.Bieder, F.Bottin, J.Bouchet, E.Bousquet, F.Bruneval,
- G.Brunin, D.Caliste, M.Cote,
- J.Denier, C. Dreyer, Ph.Ghosez, M.Giantomassi, Y.Gillet, O.Gingras,
- D.R.Hamann, G.Hautier, F.Jollet, G. Jomard,
- A.Martin, 
- H.P.C. Miranda, F.Naccarato, G.Petretto, N.A. Pike, V.Planes,
- S.Prokhorenko, T. Rangel, F.Ricci, G.-M.Rignanese, M.Royo, M.Stengel, M.Torrent,
- M.J.van Setten, B.Van Troeye, M.J.Verstraete, J.Wiktor, J.W.Zwanziger, and X.Gonze.
- Comment: a global overview of ABINIT, with focus on selected capabilities .
- Note that a version of this paper, that is not formatted for J. Chem. Phys 
- is available at https://www.abinit.org/sites/default/files/ABINIT20_JPC.pdf .
- The licence allows the authors to put it on the Web.
- DOI and bibtex: see https://docs.abinit.org/theory/bibliography/#romero2020
-
- [5] Recent developments in the ABINIT software package.
- Computer Phys. Comm. 205, 106 (2016).
- X.Gonze, F.Jollet, F.Abreu Araujo, D.Adams, B.Amadon, T.Applencourt,
- C.Audouze, J.-M.Beuken, J.Bieder, A.Bokhanchuk, E.Bousquet, F.Bruneval
- D.Caliste, M.Cote, F.Dahm, F.Da Pieve, M.Delaveau, M.Di Gennaro,
- B.Dorado, C.Espejo, G.Geneste, L.Genovese, A.Gerossier, M.Giantomassi,
- Y.Gillet, D.R.Hamann, L.He, G.Jomard, J.Laflamme Janssen, S.Le Roux,
- A.Levitt, A.Lherbier, F.Liu, I.Lukacevic, A.Martin, C.Martins,
- M.J.T.Oliveira, S.Ponce, Y.Pouillon, T.Rangel, G.-M.Rignanese,
- A.H.Romero, B.Rousseau, O.Rubel, A.A.Shukri, M.Stankovski, M.Torrent,
- M.J.Van Setten, B.Van Troeye, M.J.Verstraete, D.Waroquier, J.Wiktor,
- B.Xu, A.Zhou, J.W.Zwanziger.
- Comment: the fourth generic paper describing the ABINIT project.
- Note that a version of this paper, that is not formatted for Computer Phys. Comm. 
- is available at https://www.abinit.org/sites/default/files/ABINIT16.pdf .
- The licence allows the authors to put it on the Web.
- DOI and bibtex: see https://docs.abinit.org/theory/bibliography/#gonze2016
-
- Proc.   0 individual time (sec): cpu=       5953.1  wall=       5985.1

================================================================================

 Calculation completed.
.Delivered   0 WARNINGs and  42 COMMENTs to log file.
+Overall time at end (sec) : cpu=      23833.7  wall=      23940.3
