
.Version 9.2.2 of ABINIT 
.(MPI version, prepared for a x86_64_linux_gnu9.3 computer) 

.Copyright (C) 1998-2020 ABINIT group . 
 ABINIT comes with ABSOLUTELY NO WARRANTY.
 It is free software, and you are welcome to redistribute it
 under certain conditions (GNU General Public License,
 see ~abinit/COPYING or http://www.gnu.org/copyleft/gpl.txt).

 ABINIT is a project of the Universite Catholique de Louvain,
 Corning Inc. and other collaborators, see ~abinit/doc/developers/contributors.txt .
 Please read https://docs.abinit.org/theory/acknowledgments for suggested
 acknowledgments of the ABINIT effort.
 For more information, see https://www.abinit.org .

.Starting date : Thu 15 Dec 2022.
- ( at 08h44 )
  
- The starting date is more than 2 years after the initial release
- of this version of ABINIT, namely Nov 2020.
- Note that the use beyond 3 years after the release will not be supported.
- Action: please, switch to a more recent version of ABINIT.

- input  file    -> Cs2TiI6.in
- output file    -> Cs2TiI6.out
- root for input  files -> Cs2TiI6i
- root for output files -> Cs2TiI6o

- inpspheads : Reading pseudopotential header in XML form from 
-   ../../../Psps_for_tests/ATOMICDATA/Cs.GGA_PBE-JTH.xml
- inpspheads : Reading pseudopotential header in XML form from 
-   ../../../Psps_for_tests/ATOMICDATA/I.GGA_PBE-JTH.xml
- inpspheads : Reading pseudopotential header in XML form from 
-   ../../../Psps_for_tests/ATOMICDATA/Zr.GGA_PBE-JTH.xml
- inpspheads : Reading pseudopotential header in XML form from 
-   ../../../Psps_for_tests/ATOMICDATA/Cl.GGA_PBE-JTH.xml

 DATASET    1 : space group Im m 2 (# 44); Bravais oI (body-center ortho.)
================================================================================
 Values of the parameters that define the memory need for DATASET  1.
     intxc =       0    ionmov =       0      iscf =      17    lmnmax =      18
     lnmax =       6     mgfft =      54  mpssoang =       3    mqgrid =    3347
     natom =       9  nloc_mem =       2    nspden =       1   nspinor =       1
    nsppol =       1      nsym =       4    n1xccc =       1    ntypat =       4
    occopt =       1   xclevel =       2
-    mband =          42        mffmem =           1         mkmem =          47
       mpw =        6289          nfft =      157464          nkpt =         280
Pmy_natom=         2
 PAW method is used; the additional fine FFT grid is defined by:
   mgfftf=        90    nfftf =    729000
================================================================================
P This job should need less than                     416.257 Mbytes of memory.
  Rough estimation (10% accuracy) of disk space for files :
_ WF disk file :   1128.521 Mbytes ; DEN or POT disk file :      5.564 Mbytes.
================================================================================


 DATASET    2 : space group Im m 2 (# 44); Bravais oI (body-center ortho.)
================================================================================
 Values of the parameters that define the memory need for DATASET  2.
     intxc =       0    ionmov =       0      iscf =      17    lmnmax =      18
     lnmax =       6     mgfft =      54  mpssoang =       3    mqgrid =    3344
     natom =       9  nloc_mem =       2    nspden =       1   nspinor =       1
    nsppol =       1      nsym =       4    n1xccc =       1    ntypat =       4
    occopt =       1   xclevel =       2
-    mband =          42        mffmem =           1         mkmem =          47
       mpw =        6272          nfft =      157464          nkpt =         280
Pmy_natom=         2
 PAW method is used; the additional fine FFT grid is defined by:
   mgfftf=        90    nfftf =    729000
================================================================================
P This job should need less than                     415.694 Mbytes of memory.
  Rough estimation (10% accuracy) of disk space for files :
_ WF disk file :   1125.471 Mbytes ; DEN or POT disk file :      5.564 Mbytes.
================================================================================


 DATASET    3 : space group Im m 2 (# 44); Bravais oI (body-center ortho.)
================================================================================
 Values of the parameters that define the memory need for DATASET  3.
     intxc =       0    ionmov =       0      iscf =      17    lmnmax =      18
     lnmax =       6     mgfft =      54  mpssoang =       3    mqgrid =    3340
     natom =       9  nloc_mem =       2    nspden =       1   nspinor =       1
    nsppol =       1      nsym =       4    n1xccc =       1    ntypat =       4
    occopt =       1   xclevel =       2
-    mband =          42        mffmem =           1         mkmem =          47
       mpw =        6258          nfft =      157464          nkpt =         280
Pmy_natom=         2
 PAW method is used; the additional fine FFT grid is defined by:
   mgfftf=        90    nfftf =    729000
================================================================================
P This job should need less than                     415.233 Mbytes of memory.
  Rough estimation (10% accuracy) of disk space for files :
_ WF disk file :   1122.959 Mbytes ; DEN or POT disk file :      5.564 Mbytes.
================================================================================


 DATASET    4 : space group Im m 2 (# 44); Bravais oI (body-center ortho.)
================================================================================
 Values of the parameters that define the memory need for DATASET  4.
     intxc =       0    ionmov =       0      iscf =      17    lmnmax =      18
     lnmax =       6     mgfft =      54  mpssoang =       3    mqgrid =    3337
     natom =       9  nloc_mem =       2    nspden =       1   nspinor =       1
    nsppol =       1      nsym =       4    n1xccc =       1    ntypat =       4
    occopt =       1   xclevel =       2
-    mband =          42        mffmem =           1         mkmem =          47
       mpw =        6242          nfft =      157464          nkpt =         280
Pmy_natom=         2
 PAW method is used; the additional fine FFT grid is defined by:
   mgfftf=        90    nfftf =    729000
================================================================================
P This job should need less than                     414.705 Mbytes of memory.
  Rough estimation (10% accuracy) of disk space for files :
_ WF disk file :   1120.087 Mbytes ; DEN or POT disk file :      5.564 Mbytes.
================================================================================


 DATASET    5 : space group Im m 2 (# 44); Bravais oI (body-center ortho.)
================================================================================
 Values of the parameters that define the memory need for DATASET  5.
     intxc =       0    ionmov =       0      iscf =      17    lmnmax =      18
     lnmax =       6     mgfft =      54  mpssoang =       3    mqgrid =    3334
     natom =       9  nloc_mem =       2    nspden =       1   nspinor =       1
    nsppol =       1      nsym =       4    n1xccc =       1    ntypat =       4
    occopt =       1   xclevel =       2
-    mband =          42        mffmem =           1         mkmem =          47
       mpw =        6214          nfft =      157464          nkpt =         280
Pmy_natom=         2
 PAW method is used; the additional fine FFT grid is defined by:
   mgfftf=        90    nfftf =    729000
================================================================================
P This job should need less than                     413.769 Mbytes of memory.
  Rough estimation (10% accuracy) of disk space for files :
_ WF disk file :   1115.063 Mbytes ; DEN or POT disk file :      5.564 Mbytes.
================================================================================


 DATASET    6 : space group Im m 2 (# 44); Bravais oI (body-center ortho.)
================================================================================
 Values of the parameters that define the memory need for DATASET  6.
     intxc =       0    ionmov =       0      iscf =      17    lmnmax =      18
     lnmax =       6     mgfft =      54  mpssoang =       3    mqgrid =    3330
     natom =       9  nloc_mem =       2    nspden =       1   nspinor =       1
    nsppol =       1      nsym =       4    n1xccc =       1    ntypat =       4
    occopt =       1   xclevel =       2
-    mband =          42        mffmem =           1         mkmem =          47
       mpw =        6195          nfft =      157464          nkpt =         280
Pmy_natom=         2
 PAW method is used; the additional fine FFT grid is defined by:
   mgfftf=        90    nfftf =    729000
================================================================================
P This job should need less than                     413.139 Mbytes of memory.
  Rough estimation (10% accuracy) of disk space for files :
_ WF disk file :   1111.654 Mbytes ; DEN or POT disk file :      5.564 Mbytes.
================================================================================


 DATASET    7 : space group Im m 2 (# 44); Bravais oI (body-center ortho.)
================================================================================
 Values of the parameters that define the memory need for DATASET  7.
     intxc =       0    ionmov =       0      iscf =      17    lmnmax =      18
     lnmax =       6     mgfft =      54  mpssoang =       3    mqgrid =    3327
     natom =       9  nloc_mem =       2    nspden =       1   nspinor =       1
    nsppol =       1      nsym =       4    n1xccc =       1    ntypat =       4
    occopt =       1   xclevel =       2
-    mband =          42        mffmem =           1         mkmem =          47
       mpw =        6180          nfft =      157464          nkpt =         280
Pmy_natom=         2
 PAW method is used; the additional fine FFT grid is defined by:
   mgfftf=        90    nfftf =    729000
================================================================================
P This job should need less than                     412.644 Mbytes of memory.
  Rough estimation (10% accuracy) of disk space for files :
_ WF disk file :   1108.962 Mbytes ; DEN or POT disk file :      5.564 Mbytes.
================================================================================


 DATASET    8 : space group Im m 2 (# 44); Bravais oI (body-center ortho.)
================================================================================
 Values of the parameters that define the memory need for DATASET  8.
     intxc =       0    ionmov =       0      iscf =      17    lmnmax =      18
     lnmax =       6     mgfft =      54  mpssoang =       3    mqgrid =    3323
     natom =       9  nloc_mem =       2    nspden =       1   nspinor =       1
    nsppol =       1      nsym =       4    n1xccc =       1    ntypat =       4
    occopt =       1   xclevel =       2
-    mband =          42        mffmem =           1         mkmem =          47
       mpw =        6156          nfft =      157464          nkpt =         280
Pmy_natom=         2
 PAW method is used; the additional fine FFT grid is defined by:
   mgfftf=        90    nfftf =    729000
================================================================================
P This job should need less than                     411.845 Mbytes of memory.
  Rough estimation (10% accuracy) of disk space for files :
_ WF disk file :   1104.655 Mbytes ; DEN or POT disk file :      5.564 Mbytes.
================================================================================


 DATASET    9 : space group Im m 2 (# 44); Bravais oI (body-center ortho.)
================================================================================
 Values of the parameters that define the memory need for DATASET  9.
     intxc =       0    ionmov =       0      iscf =      17    lmnmax =      18
     lnmax =       6     mgfft =      54  mpssoang =       3    mqgrid =    3319
     natom =       9  nloc_mem =       2    nspden =       1   nspinor =       1
    nsppol =       1      nsym =       4    n1xccc =       1    ntypat =       4
    occopt =       1   xclevel =       2
-    mband =          42        mffmem =           1         mkmem =          47
       mpw =        6142          nfft =      157464          nkpt =         280
Pmy_natom=         2
 PAW method is used; the additional fine FFT grid is defined by:
   mgfftf=        90    nfftf =    729000
================================================================================
P This job should need less than                     411.384 Mbytes of memory.
  Rough estimation (10% accuracy) of disk space for files :
_ WF disk file :   1102.143 Mbytes ; DEN or POT disk file :      5.564 Mbytes.
================================================================================


 DATASET   10 : space group Im m 2 (# 44); Bravais oI (body-center ortho.)
================================================================================
 Values of the parameters that define the memory need for DATASET 10.
     intxc =       0    ionmov =       0      iscf =      17    lmnmax =      18
     lnmax =       6     mgfft =      54  mpssoang =       3    mqgrid =    3316
     natom =       9  nloc_mem =       2    nspden =       1   nspinor =       1
    nsppol =       1      nsym =       4    n1xccc =       1    ntypat =       4
    occopt =       1   xclevel =       2
-    mband =          42        mffmem =           1         mkmem =          47
       mpw =        6121          nfft =      157464          nkpt =         280
Pmy_natom=         2
 PAW method is used; the additional fine FFT grid is defined by:
   mgfftf=        90    nfftf =    729000
================================================================================
P This job should need less than                     410.686 Mbytes of memory.
  Rough estimation (10% accuracy) of disk space for files :
_ WF disk file :   1098.375 Mbytes ; DEN or POT disk file :      5.564 Mbytes.
================================================================================

--------------------------------------------------------------------------------
------------- Echo of variables that govern the present computation ------------
--------------------------------------------------------------------------------
-
- outvars: echo of selected default values                                      
-   iomode0 =  0 , fftalg0 =112 , wfoptalg0 = 10
-
- outvars: echo of global parameters not present in the input file              
-  max_nthreads =    0
-
 -outvars: echo values of preprocessed input variables --------
            acell1     1.4227912842E+01  1.4531856352E+01  1.4227912842E+01 Bohr
            acell2     1.4213577389E+01  1.4516757407E+01  1.4213577389E+01 Bohr
            acell3     1.4199246871E+01  1.4501537347E+01  1.4199246871E+01 Bohr
            acell4     1.4184810505E+01  1.4486428321E+01  1.4184810505E+01 Bohr
            acell5     1.4170290162E+01  1.4471690503E+01  1.4170290162E+01 Bohr
            acell6     1.4155846873E+01  1.4456916394E+01  1.4155846873E+01 Bohr
            acell7     1.4141517699E+01  1.4441377908E+01  1.4141517699E+01 Bohr
            acell8     1.4127183297E+01  1.4425688122E+01  1.4127183297E+01 Bohr
            acell9     1.4113078286E+01  1.4408854258E+01  1.4113078286E+01 Bohr
            acell10    1.4098712405E+01  1.4392912486E+01  1.4098712405E+01 Bohr
              amu      1.32905430E+02  1.26904470E+02  9.12240000E+01
                       3.54527000E+01
           diemac      1.20000000E+01
             ecut      1.60000000E+01 Hartree
-          fftalg         112
           istwfk        2    0    0    0    0    0    3    0    0    0
                         0    0    0    0    0    0    0    0    0    0
                         0    0    0    0    0    0    0    0    0    0
                         0    0    0    0    0    0    0    0    0    0
                         0    0    0    0    0    0    0    0    0    0
                       outvar_i_n : Printing only first  50 k-points.
              ixc     -101130
           jdtset        1    2    3    4    5    6    7    8    9   10
              kpt      0.00000000E+00  0.00000000E+00  0.00000000E+00
                       8.33333333E-02  0.00000000E+00  0.00000000E+00
                       1.66666667E-01  0.00000000E+00  0.00000000E+00
                       2.50000000E-01  0.00000000E+00  0.00000000E+00
                       3.33333333E-01  0.00000000E+00  0.00000000E+00
                       4.16666667E-01  0.00000000E+00  0.00000000E+00
                       5.00000000E-01  0.00000000E+00  0.00000000E+00
                       0.00000000E+00  8.33333333E-02  0.00000000E+00
                       8.33333333E-02  8.33333333E-02  0.00000000E+00
                       1.66666667E-01  8.33333333E-02  0.00000000E+00
                       2.50000000E-01  8.33333333E-02  0.00000000E+00
                       3.33333333E-01  8.33333333E-02  0.00000000E+00
                       4.16666667E-01  8.33333333E-02  0.00000000E+00
                       5.00000000E-01  8.33333333E-02  0.00000000E+00
                      -4.16666667E-01  8.33333333E-02  0.00000000E+00
                      -3.33333333E-01  8.33333333E-02  0.00000000E+00
                      -2.50000000E-01  8.33333333E-02  0.00000000E+00
                      -1.66666667E-01  8.33333333E-02  0.00000000E+00
                      -8.33333333E-02  8.33333333E-02  0.00000000E+00
                       0.00000000E+00  1.66666667E-01  0.00000000E+00
                       8.33333333E-02  1.66666667E-01  0.00000000E+00
                       1.66666667E-01  1.66666667E-01  0.00000000E+00
                       2.50000000E-01  1.66666667E-01  0.00000000E+00
                       3.33333333E-01  1.66666667E-01  0.00000000E+00
                       4.16666667E-01  1.66666667E-01  0.00000000E+00
                       5.00000000E-01  1.66666667E-01  0.00000000E+00
                      -4.16666667E-01  1.66666667E-01  0.00000000E+00
                      -3.33333333E-01  1.66666667E-01  0.00000000E+00
                      -2.50000000E-01  1.66666667E-01  0.00000000E+00
                      -1.66666667E-01  1.66666667E-01  0.00000000E+00
                      -8.33333333E-02  1.66666667E-01  0.00000000E+00
                       0.00000000E+00  2.50000000E-01  0.00000000E+00
                       8.33333333E-02  2.50000000E-01  0.00000000E+00
                       1.66666667E-01  2.50000000E-01  0.00000000E+00
                       2.50000000E-01  2.50000000E-01  0.00000000E+00
                       3.33333333E-01  2.50000000E-01  0.00000000E+00
                       4.16666667E-01  2.50000000E-01  0.00000000E+00
                       5.00000000E-01  2.50000000E-01  0.00000000E+00
                      -4.16666667E-01  2.50000000E-01  0.00000000E+00
                      -3.33333333E-01  2.50000000E-01  0.00000000E+00
                      -2.50000000E-01  2.50000000E-01  0.00000000E+00
                      -1.66666667E-01  2.50000000E-01  0.00000000E+00
                      -8.33333333E-02  2.50000000E-01  0.00000000E+00
                       0.00000000E+00  3.33333333E-01  0.00000000E+00
                       8.33333333E-02  3.33333333E-01  0.00000000E+00
                       1.66666667E-01  3.33333333E-01  0.00000000E+00
                       2.50000000E-01  3.33333333E-01  0.00000000E+00
                       3.33333333E-01  3.33333333E-01  0.00000000E+00
                       4.16666667E-01  3.33333333E-01  0.00000000E+00
                       5.00000000E-01  3.33333333E-01  0.00000000E+00
                       outvar_i_n : Printing only first  50 k-points.
         kptrlatt       12    0    0      0   12    0      0    0   12
          kptrlen1     1.69129757E+02
          kptrlen2     1.68970952E+02
          kptrlen3     1.68813236E+02
          kptrlen4     1.68659378E+02
          kptrlen5     1.68505492E+02
          kptrlen6     1.68348318E+02
          kptrlen7     1.68194037E+02
          kptrlen8     1.68041669E+02
          kptrlen9     1.67890835E+02
          kptrlen10    1.67742759E+02
P           mkmem          47
            natom           9
            nband          42
           ndtset          10
            ngfft          54      54      54
          ngfftdg          90      90      90
             nkpt         280
            nstep        2500
             nsym           4
           ntypat           4
              occ      2.000000  2.000000  2.000000  2.000000  2.000000  2.000000
                       2.000000  2.000000  2.000000  2.000000  2.000000  2.000000
                       2.000000  2.000000  2.000000  2.000000  2.000000  2.000000
                       2.000000  2.000000  2.000000  2.000000  2.000000  2.000000
                       2.000000  2.000000  2.000000  2.000000  2.000000  2.000000
                       2.000000  2.000000  2.000000  2.000000  2.000000  2.000000
                       0.000000  0.000000  0.000000  0.000000  0.000000  0.000000
        pawecutdg      4.00000000E+01 Hartree
            prtwf           0
            rprim1     1.0876777230E-02  7.0276839615E-01  7.1133555872E-01
                       7.0710678119E-01  0.0000000000E+00  7.0710678119E-01
                       7.1133555872E-01  7.0276839615E-01  1.0876777230E-02
            rprim2     1.0841352264E-02  7.0275611139E-01  7.1134823608E-01
                       7.0710678119E-01  0.0000000000E+00  7.0710678119E-01
                       7.1134823608E-01  7.0275611139E-01  1.0841352264E-02
            rprim3     1.0800575447E-02  7.0274489517E-01  7.1135993694E-01
                       7.0710678119E-01  0.0000000000E+00  7.0710678119E-01
                       7.1135993694E-01  7.0274489517E-01  1.0800575447E-02
            rprim4     1.0754551667E-02  7.0271744633E-01  7.1138774958E-01
                       7.0710678119E-01  0.0000000000E+00  7.0710678119E-01
                       7.1138774958E-01  7.0271744633E-01  1.0754551667E-02
            rprim5     1.0717817296E-02  7.0267620651E-01  7.1142903877E-01
                       7.0710678119E-01  0.0000000000E+00  7.0710678119E-01
                       7.1142903877E-01  7.0267620651E-01  1.0717817296E-02
            rprim6     1.0686886133E-02  7.0264655412E-01  7.1145879041E-01
                       7.0710678119E-01  0.0000000000E+00  7.0710678119E-01
                       7.1145879041E-01  7.0264655412E-01  1.0686886133E-02
            rprim7     1.0630668238E-02  7.0263628083E-01  7.1146977853E-01
                       7.0710678119E-01  0.0000000000E+00  7.0710678119E-01
                       7.1146977853E-01  7.0263628083E-01  1.0630668238E-02
            rprim8     1.0566564137E-02  7.0262562655E-01  7.1148125529E-01
                       7.0710678119E-01  0.0000000000E+00  7.0710678119E-01
                       7.1148125529E-01  7.0262562655E-01  1.0566564137E-02
            rprim9     1.0470297084E-02  7.0265291239E-01  7.1145573129E-01
                       7.0710678119E-01  0.0000000000E+00  7.0710678119E-01
                       7.1145573129E-01  7.0265291239E-01  1.0470297084E-02
            rprim10    1.0390635475E-02  7.0263817314E-01  7.1147145574E-01
                       7.0710678119E-01  0.0000000000E+00  7.0710678119E-01
                       7.1147145574E-01  7.0263817314E-01  1.0390635475E-02
          spgroup          44
           symrel      1  0  0   0  1  0   0  0  1       0  1 -1   0  1  0  -1  1  0
                       0  0 -1   0 -1  0  -1  0  0       1 -1  0   0 -1  0   0 -1  1
           toldfe      1.00000000E-08 Hartree
            typat      1  1  2  4  2  4  4  4  3
           useylm           1
              wtk        0.00058    0.00231    0.00231    0.00231    0.00231    0.00231
                         0.00116    0.00231    0.00231    0.00463    0.00463    0.00463
                         0.00463    0.00463    0.00463    0.00463    0.00463    0.00463
                         0.00463    0.00231    0.00463    0.00231    0.00463    0.00463
                         0.00463    0.00463    0.00463    0.00463    0.00463    0.00463
                         0.00463    0.00231    0.00463    0.00463    0.00231    0.00463
                         0.00463    0.00463    0.00463    0.00463    0.00463    0.00463
                         0.00463    0.00231    0.00463    0.00463    0.00463    0.00231
                         0.00463    0.00463
                       outvars : Printing only first  50 k-points.
           xangst1     2.7740127973E+00  2.5640109983E+00  2.6635868584E+00
                       8.2116124530E+00  8.0183980762E+00  8.1011865141E+00
                       5.3473962632E+00  5.2912045373E+00  2.8691644146E+00
                       5.5112368962E+00  5.2912045373E+00  8.2511133133E+00
                       8.0060348968E+00  5.2912045373E+00  5.5278030482E+00
                       5.4692323729E+00  8.1218557613E+00  5.4059669384E+00
                       5.4692323730E+00  2.4605533132E+00  5.4059669385E+00
                       2.6240859981E+00  5.2912045373E+00  5.3639624152E+00
                       8.7953195201E-02 -5.5966409163E-18 -8.7953195201E-02
           xangst2     2.7710737192E+00  2.5607393750E+00  2.6608761410E+00
                       8.2030235795E+00  8.0108225048E+00  8.0928260012E+00
                       5.3415652896E+00  5.2857809399E+00  2.8673846080E+00
                       5.5048372176E+00  5.2857809399E+00  8.2401986996E+00
                       7.9965151124E+00  5.2857809399E+00  5.5223344308E+00
                       5.4633463570E+00  8.1111837705E+00  5.4005533635E+00
                       5.4633463570E+00  2.4603781093E+00  5.4005533635E+00
                       2.6237010209E+00  5.2857809399E+00  5.3590625028E+00
                       8.8190228724E-02 -5.7107893369E-18 -8.8190228724E-02
           xangst3     2.7681071785E+00  2.5587762903E+00  2.6581475667E+00
                       8.1943619238E+00  8.0019584958E+00  8.0844023120E+00
                       5.3360265679E+00  5.2803673930E+00  2.8657402178E+00
                       5.4985635885E+00  5.2803673930E+00  8.2293040852E+00
                       7.9867692727E+00  5.2803673930E+00  5.5164829226E+00
                       5.4573673021E+00  8.1006157138E+00  5.3951421885E+00
                       5.4573673020E+00  2.4601190723E+00  5.3951421884E+00
                       2.6232054053E+00  5.2803673930E+00  5.3539459021E+00
                       8.8269421378E-02  2.0088090813E-17 -8.8269421378E-02
           xangst4     2.7651730135E+00  2.5560869476E+00  2.6554281639E+00
                       8.1857741909E+00  7.9934986683E+00  8.0760293414E+00
                       5.3304599825E+00  5.2747928080E+00  2.8639905686E+00
                       5.4921938639E+00  5.2747928080E+00  8.2185316486E+00
                       7.9772117862E+00  5.2747928080E+00  5.5107423724E+00
                       5.4514441447E+00  8.0898211823E+00  5.3897582101E+00
                       5.4514441447E+00  2.4597644336E+00  5.3897582101E+00
                       2.6226707062E+00  5.2747928080E+00  5.3490084909E+00
                       8.8437586809E-02 -9.6084290537E-19 -8.8437586809E-02
           xangst5     2.7622822978E+00  2.5528934908E+00  2.6528042123E+00
                       8.1773688079E+00  7.9852745145E+00  8.0678907224E+00
                       5.3249841590E+00  5.2690840027E+00  2.8623687046E+00
                       5.4858893391E+00  5.2690840027E+00  8.2078820275E+00
                       7.9678043156E+00  5.2690840027E+00  5.5051888613E+00
                       5.4457624873E+00  8.0787236310E+00  5.3844105330E+00
                       5.4457624873E+00  2.4594443743E+00  5.3844105329E+00
                       2.6222909927E+00  5.2690840027E+00  5.3442836811E+00
                       8.8547194344E-02 -2.0868286806E-17 -8.8547194344E-02
           xangst6     2.7593978311E+00  2.5495509144E+00  2.6501604320E+00
                       8.1689560943E+00  7.9774316497E+00  8.0597186952E+00
                       5.3192163210E+00  5.2634912821E+00  2.8607206648E+00
                       5.4796763048E+00  5.2634912821E+00  8.1971748869E+00
                       7.9583958615E+00  5.2634912821E+00  5.4999002052E+00
                       5.4400948441E+00  8.0677604534E+00  5.3790216821E+00
                       5.4400948442E+00  2.4592221108E+00  5.3790216822E+00
                       2.6219416394E+00  5.2634912821E+00  5.3394402215E+00
                       8.8692364758E-02 -6.2276750043E-18 -8.8692364758E-02
           xangst7     2.7562594022E+00  2.5470120301E+00  2.6474845958E+00
                       8.1600034002E+00  7.9691608993E+00  8.0512285938E+00
                       5.3135159892E+00  5.2580864647E+00  2.8588146483E+00
                       5.4729790833E+00  5.2580864647E+00  8.1860452007E+00
                       7.9486733477E+00  5.2580864647E+00  5.4939720068E+00
                       5.4340926990E+00  8.0572485867E+00  5.3733952970E+00
                       5.4340926990E+00  2.4589243427E+00  5.3733952970E+00
                       2.6214427954E+00  5.2580864647E+00  5.3345089127E+00
                       8.8892568095E-02 -2.3148081151E-18 -8.8892568095E-02
           xangst8     2.7530873377E+00  2.5441630965E+00  2.6447857810E+00
                       8.1509604563E+00  7.9611909256E+00  8.0426588996E+00
                       5.3074670551E+00  5.2526770111E+00  2.8568214577E+00
                       5.4660478085E+00  5.2526770111E+00  8.1749022383E+00
                       7.9389247796E+00  5.2526770111E+00  5.4882791822E+00
                       5.4282795594E+00  8.0467773505E+00  5.3674666779E+00
                       5.4282795594E+00  2.4585766716E+00  5.3674666779E+00
                       2.6208439990E+00  5.2526770111E+00  5.3296984288E+00
                       8.9094394247E-02 -2.4908021385E-18 -8.9094394247E-02
           xangst9     2.7495950132E+00  2.5423079530E+00  2.6419791296E+00
                       8.1411691561E+00  7.9529647618E+00  8.0335532724E+00
                       5.3015483583E+00  5.2476363574E+00  2.8545070118E+00
                       5.4583963844E+00  5.2476363574E+00  8.1630634499E+00
                       7.9286412738E+00  5.2476363574E+00  5.4815999274E+00
                       5.4219043215E+00  8.0369770134E+00  5.3612439642E+00
                       5.4219043215E+00  2.4582957014E+00  5.3612439641E+00
                       2.6200848358E+00  5.2476363574E+00  5.3247519013E+00
                       8.9349478096E-02 -6.8838109931E-18 -8.9349478096E-02
           xangst10    2.7463084626E+00  2.5398624037E+00  2.6393005116E+00
                       8.1319174368E+00  7.9445071094E+00  8.0249094858E+00
                       5.2957301393E+00  5.2421847566E+00  2.8523429506E+00
                       5.4511605482E+00  5.2421847566E+00  8.1517787827E+00
                       7.9188749977E+00  5.2421847566E+00  5.4754878091E+00
                       5.4159093905E+00  8.0264239274E+00  5.3553085579E+00
                       5.4159093905E+00  2.4579455857E+00  5.3553085579E+00
                       2.6194391657E+00  5.2421847566E+00  5.3200574001E+00
                       8.9622262308E-02 -6.8874246523E-18 -8.9622262308E-02
            xcart1     5.2421244761E+00  4.8452785886E+00  5.0334496935E+00
                       1.5517698646E+01  1.5152576388E+01  1.5309023863E+01
                       1.0105114461E+01  9.9989274885E+00  5.4219349739E+00
                       1.0414728387E+01  9.9989274885E+00  1.5592344454E+01
                       1.5129213365E+01  9.9989274885E+00  1.0446033878E+01
                       1.0335351342E+01  1.5348083080E+01  1.0215796997E+01
                       1.0335351342E+01  4.6497718973E+00  1.0215796997E+01
                       4.9588038855E+00  9.9989274885E+00  1.0136419952E+01
                       1.6620745144E-01 -1.0576118596E-17 -1.6620745144E-01
            xcart2     5.2365704234E+00  4.8390961164E+00  5.0283271800E+00
                       1.5501468027E+01  1.5138260633E+01  1.5293224783E+01
                       1.0094095518E+01  9.9886783748E+00  5.4185716268E+00
                       1.0402634747E+01  9.9886783748E+00  1.5571718823E+01
                       1.5111223580E+01  9.9886783748E+00  1.0435699688E+01
                       1.0324228384E+01  1.5327915940E+01  1.0205566823E+01
                       1.0324228384E+01  4.6494408099E+00  1.0205566823E+01
                       4.9580763841E+00  9.9886783748E+00  1.0127160459E+01
                       1.6665537988E-01 -1.0791827849E-17 -1.6665537988E-01
            xcart3     5.2309644739E+00  4.8353864239E+00  5.0231709219E+00
                       1.5485099870E+01  1.5121510084E+01  1.5277306318E+01
                       1.0083628851E+01  9.9784482539E+00  5.4154641796E+00
                       1.0390779306E+01  9.9784482539E+00  1.5551130985E+01
                       1.5092806612E+01  9.9784482539E+00  1.0424641940E+01
                       1.0312929607E+01  1.5307945207E+01  1.0195341184E+01
                       1.0312929607E+01  4.6489513009E+00  1.0195341184E+01
                       4.9571398064E+00  9.9784482539E+00  1.0117491485E+01
                       1.6680503231E-01  3.7960990168E-17 -1.6680503231E-01
            xcart4     5.2254197055E+00  4.8303043027E+00  5.0180319954E+00
                       1.5468871406E+01  1.5105523327E+01  1.5261483696E+01
                       1.0073109529E+01  9.9679138147E+00  5.4121578218E+00
                       1.0378742272E+01  9.9679138147E+00  1.5530774030E+01
                       1.5074745580E+01  9.9679138147E+00  1.0413793873E+01
                       1.0301736462E+01  1.5287546499E+01  1.0185166940E+01
                       1.0301736462E+01  4.6482811309E+00  1.0185166940E+01
                       4.9561293715E+00  9.9679138147E+00  1.0108161130E+01
                       1.6712281892E-01 -1.8157299479E-18 -1.6712281892E-01
            xcart5     5.2199570446E+00  4.8242695441E+00  5.0130734454E+00
                       1.5452987535E+01  1.5089981928E+01  1.5246103935E+01
                       1.0062761722E+01  9.9571257362E+00  5.4090929430E+00
                       1.0366828446E+01  9.9571257362E+00  1.5510649163E+01
                       1.5056968037E+01  9.9571257362E+00  1.0403299258E+01
                       1.0290999686E+01  1.5266575166E+01  1.0175061294E+01
                       1.0290999686E+01  4.6476763064E+00  1.0175061294E+01
                       4.9554118169E+00  9.9571257362E+00  1.0099232534E+01
                       1.6732994715E-01 -3.9435346926E-17 -1.6732994715E-01
            xcart6     5.2145061925E+00  4.8179529901E+00  5.0080774247E+00
                       1.5437089810E+01  1.5075161062E+01  1.5230661042E+01
                       1.0051862088E+01  9.9465570260E+00  5.4059785991E+00
                       1.0355087513E+01  9.9465570260E+00  1.5490415600E+01
                       1.5039188635E+01  9.9465570260E+00  1.0393305146E+01
                       1.0280289392E+01  1.5245857763E+01  1.0164877842E+01
                       1.0280289392E+01  4.6472562893E+00  1.0164877842E+01
                       4.9547516348E+00  9.9465570260E+00  1.0090079722E+01
                       1.6760427947E-01 -1.1768600203E-17 -1.6760427947E-01
            xcart7     5.2085754213E+00  4.8131551940E+00  5.0030208272E+00
                       1.5420171670E+01  1.5059531609E+01  1.5214617076E+01
                       1.0041090022E+01  9.9363434013E+00  5.4023767499E+00
                       1.0342431599E+01  9.9363434013E+00  1.5469383541E+01
                       1.5020815747E+01  9.9363434013E+00  1.0382102475E+01
                       1.0268946982E+01  1.5225993213E+01  1.0154245515E+01
                       1.0268946982E+01  4.6466935891E+00  1.0154245515E+01
                       4.9538089562E+00  9.9363434013E+00  1.0080760898E+01
                       1.6798260895E-01 -4.3743533876E-18 -1.6798260895E-01
            xcart8     5.2025810882E+00  4.8077714898E+00  4.9979208062E+00
                       1.5403082982E+01  1.5044470541E+01  1.5198422700E+01
                       1.0029659193E+01  9.9261210154E+00  5.3986101656E+00
                       1.0329333387E+01  9.9261210154E+00  1.5448326394E+01
                       1.5002393623E+01  9.9261210154E+00  1.0371344595E+01
                       1.0257961740E+01  1.5206205445E+01  1.0143042049E+01
                       1.0257961740E+01  4.6460365860E+00  1.0143042049E+01
                       4.9526773951E+00  9.9261210154E+00  1.0071670401E+01
                       1.6836400510E-01 -4.7069338930E-18 -1.6836400510E-01
            xcart9     5.1959815514E+00  4.8042657766E+00  4.9926170037E+00
                       1.5384580106E+01  1.5028925344E+01  1.5181215559E+01
                       1.0018474477E+01  9.9165955604E+00  5.3942364967E+00
                       1.0314874291E+01  9.9165955604E+00  1.5425954326E+01
                       1.4982960613E+01  9.9165955604E+00  1.0358722633E+01
                       1.0245914286E+01  1.5187685492E+01  1.0131282824E+01
                       1.0245914286E+01  4.6455056293E+00  1.0131282824E+01
                       4.9512427846E+00  9.9165955604E+00  1.0062322819E+01
                       1.6884604372E-01 -1.3008517527E-17 -1.6884604372E-01
            xcart10    5.1897708708E+00  4.7996443582E+00  4.9875551492E+00
                       1.5367096891E+01  1.5012942698E+01  1.5164881169E+01
                       1.0007479637E+01  9.9062935279E+00  5.3901470137E+00
                       1.0301200543E+01  9.9062935279E+00  1.5404629395E+01
                       1.4964505026E+01  9.9062935279E+00  1.0347172403E+01
                       1.0234585509E+01  1.5167743049E+01  1.0120066532E+01
                       1.0234585508E+01  4.6448440065E+00  1.0120066531E+01
                       4.9500226448E+00  9.9062935279E+00  1.0053451497E+01
                       1.6936153117E-01 -1.3015346354E-17 -1.6936153117E-01
             xred1     2.3182065028E-01  2.5771008470E-01  2.5275918032E-01
                       7.4724081968E-01  7.4228991530E-01  7.6817934972E-01
                       2.6504373661E-01  2.5553196246E-01  7.3495626339E-01
                       7.5976226780E-01  7.6548027447E-01  2.4023773220E-01
                       2.6504373661E-01  7.4446803754E-01  7.3495626339E-01
                       7.6148839699E-01  2.3251353221E-01  7.7348453859E-01
                       2.2651546141E-01  7.6748646779E-01  2.3851160301E-01
                       7.5976226780E-01  2.3451972553E-01  2.4023773220E-01
                      -1.6677337199E-02  6.1160206887E-19  1.6677337199E-02
             xred2     2.3177161482E-01  2.5777095153E-01  2.5268648212E-01
                       7.4731351788E-01  7.4222904847E-01  7.6822838518E-01
                       2.6520736002E-01  2.5561723772E-01  7.3479263998E-01
                       7.5957794773E-01  7.6520276060E-01  2.4042205227E-01
                       2.6520736002E-01  7.4438276228E-01  7.3479263998E-01
                       7.6130559034E-01  2.3273553495E-01  7.7322333977E-01
                       2.2677666023E-01  7.6726446506E-01  2.3869440966E-01
                       7.5957794773E-01  2.3479723940E-01  2.4042205227E-01
                      -1.6737998786E-02  1.2798564581E-18  1.6737998786E-02
             xred3     2.3184690150E-01  2.5770849831E-01  2.5273610188E-01
                       7.4726389812E-01  7.4229150169E-01  7.6815309850E-01
                       2.6535790853E-01  2.5574840942E-01  7.3464209147E-01
                       7.5938153339E-01  7.6494869096E-01  2.4061846661E-01
                       2.6535790853E-01  7.4425159058E-01  7.3464209147E-01
                       7.6113988652E-01  2.3294961213E-01  7.7296088921E-01
                       2.2703911079E-01  7.6705038786E-01  2.3886011348E-01
                       7.5938153339E-01  2.3505130904E-01  2.4061846661E-01
                      -1.6768680800E-02 -9.1607283777E-19  1.6768680800E-02
             xred4     2.3185892957E-01  2.5770736021E-01  2.5272635001E-01
                       7.4727364999E-01  7.4229263979E-01  7.6814107043E-01
                       2.6550674368E-01  2.5586178386E-01  7.3449325632E-01
                       7.5919957546E-01  7.6468679984E-01  2.4080042454E-01
                       2.6550674368E-01  7.4413821614E-01  7.3449325632E-01
                       7.6097318286E-01  2.3316218505E-01  7.7270244704E-01
                       2.2729755296E-01  7.6683781495E-01  2.3902681714E-01
                       7.5919957546E-01  2.3531320016E-01  2.4080042454E-01
                      -1.6815953683E-02 -3.7106548727E-19  1.6815953683E-02
             xred5     2.3183426168E-01  2.5774788469E-01  2.5266996895E-01
                       7.4733003105E-01  7.4225211532E-01  7.6816573832E-01
                       2.6565933497E-01  2.5597618323E-01  7.3434066503E-01
                       7.5902281076E-01  7.6440928885E-01  2.4097718924E-01
                       2.6565933497E-01  7.4402381677E-01  7.3434066503E-01
                       7.6077735951E-01  2.3338443390E-01  7.7245377269E-01
                       2.2754622731E-01  7.6661556610E-01  2.3922264049E-01
                       7.5902281076E-01  2.3559071115E-01  2.4097718924E-01
                      -1.6852171030E-02  1.2976892378E-18  1.6852171030E-02
             xred6     2.3178734050E-01  2.5780800444E-01  2.5259665062E-01
                       7.4740334938E-01  7.4219199556E-01  7.6821265950E-01
                       2.6583295210E-01  2.5606330387E-01  7.3416704790E-01
                       7.5883658530E-01  7.6413752532E-01  2.4116341470E-01
                       2.6583295210E-01  7.4393669613E-01  7.3416704790E-01
                       7.6057159442E-01  2.3361130274E-01  7.7220580009E-01
                       2.2779419991E-01  7.6638869726E-01  2.3942840558E-01
                       7.5883658530E-01  2.3586247468E-01  2.4116341470E-01
                      -1.6895559017E-02 -1.4807737591E-18  1.6895559017E-02
             xred7     2.3182942193E-01  2.5780048054E-01  2.5256961699E-01
                       7.4743038301E-01  7.4219951946E-01  7.6817057807E-01
                       2.6597988841E-01  2.5617300158E-01  7.3402011159E-01
                       7.5865143956E-01  7.6384820312E-01  2.4134856044E-01
                       2.6597988841E-01  7.4382699842E-01  7.3402011159E-01
                       7.6039026662E-01  2.3382311790E-01  7.7196349759E-01
                       2.2803650241E-01  7.6617688210E-01  2.3960973338E-01
                       7.5865143956E-01  2.3615179688E-01  2.4134856044E-01
                      -1.6949229919E-02 -9.2354100324E-19  1.6949229919E-02
             xred8     2.3184341719E-01  2.5782224081E-01  2.5251210118E-01
                       7.4748789882E-01  7.4217775918E-01  7.6815658281E-01
                       2.6615470289E-01  2.5625050213E-01  7.3384529711E-01
                       7.5848407849E-01  7.6354860025E-01  2.4151592151E-01
                       2.6615470289E-01  7.4374949787E-01  7.3384529711E-01
                       7.6016629309E-01  2.3403082527E-01  7.7177205636E-01
                       2.2822794364E-01  7.6596917473E-01  2.3983370691E-01
                       7.5848407849E-01  2.3645139975E-01  2.4151592151E-01
                      -1.7003115518E-02  7.0526433118E-19  1.7003115518E-02
             xred9     2.3195548537E-01  2.5776637520E-01  2.5251176423E-01
                       7.4748823577E-01  7.4223362480E-01  7.6804451463E-01
                       2.6628884790E-01  2.5637051017E-01  7.3371115210E-01
                       7.5831637738E-01  7.6321733444E-01  2.4168362262E-01
                       2.6628884790E-01  7.4362948983E-01  7.3371115210E-01
                       7.5997761813E-01  2.3422885409E-01  7.7156467368E-01
                       2.2843532632E-01  7.6577114591E-01  2.4002238187E-01
                       7.5831637738E-01  2.3678266556E-01  2.4168362262E-01
                      -1.7067116169E-02  1.0808503762E-18  1.7067116169E-02
             xred10    2.3202317950E-01  2.5774772145E-01  2.5248137760E-01
                       7.4751862240E-01  7.4225227855E-01  7.6797682050E-01
                       2.6643184618E-01  2.5646720073E-01  7.3356815382E-01
                       7.5815737192E-01  7.6289704620E-01  2.4184262808E-01
                       2.6643184618E-01  7.4353279927E-01  7.3356815382E-01
                       7.5976800213E-01  2.3443904592E-01  7.7135390604E-01
                       2.2864609396E-01  7.6556095408E-01  2.4023199787E-01
                       7.5815737192E-01  2.3710295380E-01  2.4184262808E-01
                      -1.7134334211E-02 -1.3655055308E-18  1.7134334211E-02
            znucl       55.00000   53.00000   40.00000   17.00000

================================================================================

 chkinp: Checking input parameters for consistency, jdtset=   1.

 chkinp: Checking input parameters for consistency, jdtset=   2.

 chkinp: Checking input parameters for consistency, jdtset=   3.

 chkinp: Checking input parameters for consistency, jdtset=   4.

 chkinp: Checking input parameters for consistency, jdtset=   5.

 chkinp: Checking input parameters for consistency, jdtset=   6.

 chkinp: Checking input parameters for consistency, jdtset=   7.

 chkinp: Checking input parameters for consistency, jdtset=   8.

 chkinp: Checking input parameters for consistency, jdtset=   9.

 chkinp: Checking input parameters for consistency, jdtset=  10.

================================================================================
== DATASET  1 ==================================================================
-   mpi_nproc: 6, omp_nthreads: -1 (-1 if OMP is not activated)


--- !DatasetInfo
iteration_state: {dtset: 1, }
dimensions: {natom: 9, nkpt: 280, mband: 42, nsppol: 1, nspinor: 1, nspden: 1, mpw: 6289, }
cutoff_energies: {ecut:  16.0, pawecutdg:  40.0, }
electrons: {nelect:   7.20000000E+01, charge:   0.00000000E+00, occopt:   1.00000000E+00, tsmear:   1.00000000E-02, }
meta: {optdriver: 0, ionmov: 0, optcell: 0, iscf: 17, paral_kgb: 0, }
...

 Real(R)+Recip(G) space primitive vectors, cartesian coordinates (Bohr,Bohr^-1):
 R(1)=  0.1547538  9.9989275 10.1208203  G(1)= -0.0501702  0.0500054  0.0501702
 R(2)= 10.2755742  0.0000000 10.2755742  G(2)=  0.0486591 -0.0500054  0.0486591
 R(3)= 10.1208203  9.9989275  0.1547538  G(3)=  0.0501702  0.0500054 -0.0501702
 Unit cell volume ucvol=  2.0479214E+03 bohr^3
 Angles (23,13,12)=  5.92907825E+01  5.93789577E+01  5.92907825E+01 degrees

 Coarse grid specifications (used for wave-functions):

 getcut: wavevector=  0.0000  0.0000  0.0000  ngfft=  54  54  54
         ecut(hartree)=     16.000   => boxcut(ratio)=   2.06445

 Fine grid specifications (used for densities):

 getcut: wavevector=  0.0000  0.0000  0.0000  ngfft=  90  90  90
         ecut(hartree)=     40.000   => boxcut(ratio)=   2.17562

--- Pseudopotential description ------------------------------------------------
- pspini: atom type   1  psp file is ../../../Psps_for_tests/ATOMICDATA/Cs.GGA_PBE-JTH.xml
- pspatm: opening atomic psp file    ../../../Psps_for_tests/ATOMICDATA/Cs.GGA_PBE-JTH.xml
- pspatm : Reading pseudopotential header in XML form from ../../../Psps_for_tests/ATOMICDATA/Cs.GGA_PBE-JTH.xml
 Pseudopotential format is: paw10
 basis_size (lnmax)=  6 (lmn_size= 18), orbitals=   0   0   1   1   2   2
 Spheres core radius: rc_sph= 2.20660278
 1 radial meshes are used:
  - mesh 1: r(i)=AA*[exp(BB*(i-1))-1], size=1500 , AA= 0.15922E-03 BB= 0.87573E-02
 Shapefunction is SIN type: shapef(r)=[sin(pi*r/rshp)/(pi*r/rshp)]**2
 Radius for shape functions =  2.00394208
 mmax= 1500
 Radial grid used for partial waves is grid 1
 Radial grid used for projectors is grid 1
 Radial grid used for (t)core density is grid 1
 Radial grid used for Vloc is grid 1
 Radial grid used for pseudo valence density is grid 1
 Mesh size for Vloc has been set to 1341 to avoid numerical noise.
 Compensation charge density is not taken into account in XC energy/potential
 pspatm: atomic psp has been read  and splines computed

- pspini: atom type   2  psp file is ../../../Psps_for_tests/ATOMICDATA/I.GGA_PBE-JTH.xml
- pspatm: opening atomic psp file    ../../../Psps_for_tests/ATOMICDATA/I.GGA_PBE-JTH.xml
- pspatm : Reading pseudopotential header in XML form from ../../../Psps_for_tests/ATOMICDATA/I.GGA_PBE-JTH.xml
 Pseudopotential format is: paw10
 basis_size (lnmax)=  4 (lmn_size=  8), orbitals=   0   0   1   1
 Spheres core radius: rc_sph= 2.30022271
 1 radial meshes are used:
  - mesh 1: r(i)=AA*[exp(BB*(i-1))-1], size=2000 , AA= 0.12610E-03 BB= 0.66836E-02
 Shapefunction is SIN type: shapef(r)=[sin(pi*r/rshp)/(pi*r/rshp)]**2
 Radius for shape functions =  2.10879093
 mmax= 2000
 Radial grid used for partial waves is grid 1
 Radial grid used for projectors is grid 1
 Radial grid used for (t)core density is grid 1
 Radial grid used for Vloc is grid 1
 Radial grid used for pseudo valence density is grid 1
 Mesh size for Vloc has been set to 1792 to avoid numerical noise.
 Compensation charge density is not taken into account in XC energy/potential
 pspatm: atomic psp has been read  and splines computed

- pspini: atom type   3  psp file is ../../../Psps_for_tests/ATOMICDATA/Zr.GGA_PBE-JTH.xml
- pspatm: opening atomic psp file    ../../../Psps_for_tests/ATOMICDATA/Zr.GGA_PBE-JTH.xml
- pspatm : Reading pseudopotential header in XML form from ../../../Psps_for_tests/ATOMICDATA/Zr.GGA_PBE-JTH.xml
 Pseudopotential format is: paw10
 basis_size (lnmax)=  6 (lmn_size= 18), orbitals=   0   0   1   1   2   2
 Spheres core radius: rc_sph= 2.21000000
 1 radial meshes are used:
  - mesh 1: r(i)=AA*[exp(BB*(i-1))-1], size= 941 , AA= 0.35256E-03 BB= 0.14102E-01
 Shapefunction is BESSEL type: shapef(r,l)=aa(1,l)*jl(q(1,l)*r)+aa(2,l)*jl(q(2,l)*r)
 Radius for shape functions =  2.21000000
 mmax=  941
 Radial grid used for partial waves is grid 1
 Radial grid used for projectors is grid 1
 Radial grid used for (t)core density is grid 1
 Radial grid used for Vloc is grid 1
 Radial grid used for pseudo valence density is grid 1
 Mesh size for Vloc has been set to  777 to avoid numerical noise.
 Compensation charge density is not taken into account in XC energy/potential
 pspatm: atomic psp has been read  and splines computed

- pspini: atom type   4  psp file is ../../../Psps_for_tests/ATOMICDATA/Cl.GGA_PBE-JTH.xml
- pspatm: opening atomic psp file    ../../../Psps_for_tests/ATOMICDATA/Cl.GGA_PBE-JTH.xml
- pspatm : Reading pseudopotential header in XML form from ../../../Psps_for_tests/ATOMICDATA/Cl.GGA_PBE-JTH.xml
 Pseudopotential format is: paw10
 basis_size (lnmax)=  4 (lmn_size=  8), orbitals=   0   0   1   1
 Spheres core radius: rc_sph= 1.80315674
 1 radial meshes are used:
  - mesh 1: r(i)=AA*[exp(BB*(i-1))-1], size=1400 , AA= 0.50355E-03 BB= 0.85603E-02
 Shapefunction is SIN type: shapef(r)=[sin(pi*r/rshp)/(pi*r/rshp)]**2
 Radius for shape functions =  1.61320365
 mmax= 1400
 Radial grid used for partial waves is grid 1
 Radial grid used for projectors is grid 1
 Radial grid used for (t)core density is grid 1
 Radial grid used for Vloc is grid 1
 Radial grid used for pseudo valence density is grid 1
 Mesh size for Vloc has been set to 1238 to avoid numerical noise.
 Compensation charge density is not taken into account in XC energy/potential
 pspatm: atomic psp has been read  and splines computed

   2.17261008E+04                                ecore*ucvol(ha*bohr**3)
--------------------------------------------------------------------------------

_setup2: Arith. and geom. avg. npw (full set) are    6260.098    6260.091

================================================================================

--- !BeginCycle
iteration_state: {dtset: 1, }
solver: {iscf: 17, nstep: 2500, nline: 4, wfoptalg: 10, }
tolerances: {toldfe: 1.00E-08, }
...

     iter   Etot(hartree)      deltaE(h)  residm     nres2
 ETOT  1  -172.64172009847    -1.726E+02 2.760E-01 2.358E+01
 ETOT  2  -172.81009778647    -1.684E-01 1.968E-02 5.084E+00
 ETOT  3  -172.80779151347     2.306E-03 5.313E-03 1.077E+00
 ETOT  4  -172.80852482136    -7.333E-04 5.200E-03 5.494E-02
 ETOT  5  -172.80835455724     1.703E-04 1.025E-03 6.382E-03
 ETOT  6  -172.80840032872    -4.577E-05 1.596E-03 5.350E-04
 ETOT  7  -172.80840346536    -3.137E-06 5.930E-04 1.276E-04
 ETOT  8  -172.80840491792    -1.453E-06 4.352E-04 2.323E-05
 ETOT  9  -172.80840508517    -1.672E-07 3.170E-04 3.624E-06
 ETOT 10  -172.80840510900    -2.383E-08 3.139E-04 4.941E-07
 ETOT 11  -172.80840511058    -1.583E-09 2.083E-04 1.905E-07
 ETOT 12  -172.80840511177    -1.191E-09 1.726E-04 4.264E-08

 At SCF step   12, etot is converged : 
  for the second time, diff in etot=  1.191E-09 < toldfe=  1.000E-08

 Cartesian components of stress tensor (hartree/bohr^3)
  sigma(1 1)= -7.65281196E-05  sigma(3 2)=  1.18512107E-13
  sigma(2 2)= -7.65495723E-05  sigma(3 1)=  6.31062636E-08
  sigma(3 3)= -7.65281196E-05  sigma(2 1)=  1.18512343E-13


--- !ResultsGS
iteration_state: {dtset: 1, }
comment   : Summary of ground state results
lattice_vectors:
- [  0.1547538,   9.9989275,  10.1208203, ]
- [ 10.2755742,   0.0000000,  10.2755742, ]
- [ 10.1208203,   9.9989275,   0.1547538, ]
lattice_lengths: [  14.22791,   14.53186,   14.22791, ]
lattice_angles: [ 59.291,  59.379,  59.291, ] # degrees, (23, 13, 12)
lattice_volume:   2.0479214E+03
convergence: {deltae: -1.191E-09, res2:  4.264E-08, residm:  1.726E-04, diffor: null, }
etotal    :  -1.72808405E+02
entropy   :   0.00000000E+00
fermie    :   9.19181898E-03
cartesian_stress_tensor: # hartree/bohr^3
- [ -7.65281196E-05,   1.18512343E-13,   6.31062636E-08, ]
- [  1.18512343E-13,  -7.65495723E-05,   1.18512107E-13, ]
- [  6.31062636E-08,   1.18512107E-13,  -7.65281196E-05, ]
pressure_GPa:   2.2517E+00
xred      :
- [  2.3182E-01,   2.5771E-01,   2.5276E-01, Cs]
- [  7.4724E-01,   7.4229E-01,   7.6818E-01, Cs]
- [  2.6504E-01,   2.5553E-01,   7.3496E-01,  I]
- [  7.5976E-01,   7.6548E-01,   2.4024E-01, Cl]
- [  2.6504E-01,   7.4447E-01,   7.3496E-01,  I]
- [  7.6149E-01,   2.3251E-01,   7.7348E-01, Cl]
- [  2.2652E-01,   7.6749E-01,   2.3851E-01, Cl]
- [  7.5976E-01,   2.3452E-01,   2.4024E-01, Cl]
- [ -1.6677E-02,   6.1160E-19,   1.6677E-02, Zr]
cartesian_forces: # hartree/bohr
- [ -8.36155013E-06,   1.02671958E-05,   8.36155013E-06, ]
- [ -8.36155013E-06,  -1.02671958E-05,   8.36155013E-06, ]
- [ -1.69359639E-05,  -9.55548432E-17,   1.28208015E-05, ]
- [  1.29401389E-05,  -3.06213413E-16,  -2.61274292E-05, ]
- [ -1.28208015E-05,   9.55553323E-17,   1.69359639E-05, ]
- [  1.99650626E-06,   4.83431797E-05,  -1.99650626E-06, ]
- [  1.99650626E-06,  -4.83431797E-05,  -1.99650626E-06, ]
- [  2.61274292E-05,   3.06210480E-16,  -1.29401389E-05, ]
- [  3.41928512E-06,   4.30397157E-22,  -3.41928512E-06, ]
force_length_stats: {min:   4.83559938E-06, max:   4.84255624E-05, mean:   2.59781042E-05, }
...

 Integrated electronic density in atomic spheres:
 ------------------------------------------------
 Atom  Sphere_radius  Integrated_density
    1        2.20660          5.37576852
    2        2.20660          5.37576852
    3        2.30022          4.04113023
    4        1.80316          4.37093349
    5        2.30022          4.04113023
    6        1.80316          4.37096434
    7        1.80316          4.37096434
    8        1.80316          4.37093349
    9        2.21000          8.83938384

 PAW TEST:
 ==== Compensation charge inside spheres ============
 The following values must be close to each other ...
 Compensation charge over spherical meshes =     -5.794541561543283
 Compensation charge over fine fft grid    =     -5.794552844922552

 ==== Results concerning PAW augmentation regions ====

 Total pseudopotential strength Dij (hartree):
 Atom #  1
   0.41547  -0.13772  -0.00000   0.00000  -0.00000   0.00000  -0.00001   0.00001  -0.00000   0.00000   0.00000   0.00000 ...
  -0.13772   0.04132   0.00000  -0.00000   0.00000  -0.00000   0.00000  -0.00000   0.00000  -0.00000  -0.00000  -0.00000 ...
  -0.00000   0.00000  -0.09053   0.00000  -0.00000  -0.16839  -0.00000   0.00000  -0.00000   0.00000   0.00000  -0.00000 ...
   0.00000  -0.00000   0.00000  -0.09053   0.00000  -0.00000  -0.16839  -0.00000  -0.00000  -0.00000   0.00000  -0.00000 ...
  -0.00000   0.00000  -0.00000   0.00000  -0.09053   0.00000  -0.00000  -0.16839  -0.00000  -0.00000   0.00000   0.00000 ...
   0.00000  -0.00000  -0.16839  -0.00000   0.00000   0.39651   0.00001  -0.00001   0.00000  -0.00000  -0.00000  -0.00000 ...
  -0.00001   0.00000  -0.00000  -0.16839  -0.00000   0.00001   0.39652   0.00000  -0.00000   0.00000  -0.00000   0.00000 ...
   0.00001  -0.00000   0.00000  -0.00000  -0.16839  -0.00001   0.00000   0.39652   0.00000  -0.00000  -0.00000  -0.00000 ...
  -0.00000   0.00000  -0.00000  -0.00000  -0.00000   0.00000  -0.00000   0.00000   0.00565   0.00000   0.00000   0.00000 ...
   0.00000  -0.00000   0.00000  -0.00000  -0.00000  -0.00000   0.00000  -0.00000   0.00000   0.00565   0.00000  -0.00000 ...
   0.00000  -0.00000   0.00000   0.00000   0.00000  -0.00000  -0.00000  -0.00000   0.00000   0.00000   0.00565   0.00000 ...
   0.00000  -0.00000  -0.00000  -0.00000   0.00000  -0.00000   0.00000  -0.00000   0.00000  -0.00000   0.00000   0.00565 ...
   ...  only 12  components have been written...
 Atom #  9
   3.05139  -0.88820   0.00000   0.00001  -0.00001   0.00000   0.00000  -0.00000   0.00000   0.00000  -0.00002   0.00001 ...
  -0.88820   0.26528   0.00000  -0.00001   0.00001   0.00000   0.00000  -0.00000   0.00000   0.00000   0.00000  -0.00000 ...
   0.00000   0.00000   0.27814   0.00000   0.00000  -0.05687   0.00000   0.00000   0.00009  -0.00009   0.00000   0.00000 ...
   0.00001  -0.00001   0.00000   0.27805   0.00001   0.00000  -0.05685  -0.00000   0.00000   0.00000  -0.00011   0.00009 ...
  -0.00001   0.00001   0.00000   0.00001   0.27805   0.00000  -0.00000  -0.05685   0.00000   0.00000  -0.00006  -0.00009 ...
   0.00000   0.00000  -0.05687   0.00000   0.00000   0.01548   0.00000   0.00000  -0.00002   0.00002   0.00000   0.00000 ...
   0.00000   0.00000   0.00000  -0.05685  -0.00000   0.00000   0.01547   0.00000   0.00000   0.00000   0.00002  -0.00002 ...
  -0.00000  -0.00000   0.00000  -0.00000  -0.05685   0.00000   0.00000   0.01547   0.00000   0.00000   0.00001   0.00002 ...
   0.00000   0.00000   0.00009   0.00000   0.00000  -0.00002   0.00000   0.00000  -0.00426   0.00000   0.00000   0.00000 ...
   0.00000   0.00000  -0.00009   0.00000   0.00000   0.00002   0.00000   0.00000   0.00000  -0.00426   0.00000   0.00000 ...
  -0.00002   0.00000   0.00000  -0.00011  -0.00006   0.00000   0.00002   0.00001   0.00000   0.00000  -0.00419   0.00000 ...
   0.00001  -0.00000   0.00000   0.00009  -0.00009   0.00000  -0.00002   0.00002   0.00000   0.00000   0.00000  -0.00429 ...
   ...  only 12  components have been written...


 Augmentation waves occupancies Rhoij:
 Atom #  1
   1.99875  -0.01225  -0.00007  -0.00002   0.00002  -0.00001   0.00003  -0.00003  -0.00414   0.00414   0.00077   0.00063 ...
  -0.01225   0.17895  -0.00046   0.00210  -0.00210   0.00004  -0.00003   0.00003   0.03484  -0.03484  -0.01077  -0.00137 ...
  -0.00007  -0.00046   2.01066  -0.00301   0.00301  -0.00507   0.00047  -0.00047  -0.00253   0.00253   0.00186  -0.00218 ...
  -0.00002   0.00210  -0.00301   2.00896  -0.00044   0.00047  -0.00473   0.00005  -0.00232   0.00159   0.00165   0.00011 ...
   0.00002  -0.00210   0.00301  -0.00044   2.00896  -0.00047   0.00005  -0.00473   0.00159  -0.00232   0.00196  -0.00011 ...
  -0.00001   0.00004  -0.00507   0.00047  -0.00047   0.00016  -0.00003   0.00003   0.00008  -0.00008  -0.00009   0.00007 ...
   0.00003  -0.00003   0.00047  -0.00473   0.00005  -0.00003   0.00012  -0.00000   0.00007  -0.00006  -0.00004  -0.00007 ...
  -0.00003   0.00003  -0.00047   0.00005  -0.00473   0.00003  -0.00000   0.00012  -0.00006   0.00007  -0.00009   0.00007 ...
  -0.00414   0.03484  -0.00253  -0.00232   0.00159   0.00008   0.00007  -0.00006   0.07449   0.00486  -0.02376  -0.00057 ...
   0.00414  -0.03484   0.00253   0.00159  -0.00232  -0.00008  -0.00006   0.00007   0.00486   0.07449  -0.01377   0.00057 ...
   0.00077  -0.01077   0.00186   0.00165   0.00196  -0.00009  -0.00004  -0.00009  -0.02376  -0.01377   0.04391  -0.00206 ...
   0.00063  -0.00137  -0.00218   0.00011  -0.00011   0.00007  -0.00007   0.00007  -0.00057   0.00057  -0.00206   0.03729 ...
   ...  only 12  components have been written...
 Atom #  9
   1.99313  -0.06851   0.00000   0.00005  -0.00005   0.00000   0.00108  -0.00108   0.00000   0.00000   0.00189  -0.00062 ...
  -0.06851   1.07070   0.00000   0.00412  -0.00412   0.00000  -0.03702   0.03702   0.00000   0.00000  -0.01891   0.00846 ...
   0.00000   0.00000   1.96550   0.00000   0.00000  -0.21179   0.00000   0.00000   0.00271  -0.00271   0.00000   0.00000 ...
   0.00005   0.00412   0.00000   1.96731  -0.00018   0.00000  -0.19955  -0.00084   0.00000   0.00000   0.00206   0.00292 ...
  -0.00005  -0.00412   0.00000  -0.00018   1.96731   0.00000  -0.00084  -0.19955   0.00000   0.00000   0.00114  -0.00292 ...
   0.00000   0.00000  -0.21179   0.00000   0.00000   1.87658   0.00000   0.00000  -0.04169   0.04169   0.00000   0.00000 ...
   0.00108  -0.03702   0.00000  -0.19955  -0.00084   0.00000   1.68781   0.02419   0.00000   0.00000  -0.16625  -0.06292 ...
  -0.00108   0.03702   0.00000  -0.00084  -0.19955   0.00000   0.02419   1.68781   0.00000   0.00000  -0.08583   0.06292 ...
   0.00000   0.00000   0.00271   0.00000   0.00000  -0.04169   0.00000   0.00000   0.52382   0.00123   0.00000   0.00000 ...
   0.00000   0.00000  -0.00271   0.00000   0.00000   0.04169   0.00000   0.00000   0.00123   0.52382   0.00000   0.00000 ...
   0.00189  -0.01891   0.00000   0.00206   0.00114   0.00000  -0.16625  -0.08583   0.00000   0.00000   1.50422   0.00575 ...
  -0.00062   0.00846   0.00000   0.00292  -0.00292   0.00000  -0.06292   0.06292   0.00000   0.00000   0.00575   0.51485 ...
   ...  only 12  components have been written...


================================================================================

 ----iterations are completed or convergence reached----

 Mean square residual over all n,k,spin=   63.961E-08; max=  17.260E-05
 reduced coordinates (array xred) for    9 atoms
       0.231820650280      0.257710084700      0.252759180320
       0.747240819680      0.742289915300      0.768179349720
       0.265043736610      0.255531962460      0.734956263390
       0.759762267800      0.765480274470      0.240237732200
       0.265043736610      0.744468037540      0.734956263390
       0.761488396990      0.232513532210      0.773484538590
       0.226515461410      0.767486467790      0.238511603010
       0.759762267800      0.234519725530      0.240237732200
      -0.016677337199      0.000000000000      0.016677337199
 rms dE/dt=  2.3932E-04; max dE/dt=  6.1825E-04; dE/dt below (all hartree)
    1      -0.000071024780      0.000000000000     -0.000134297113
    2       0.000134297113      0.000000000000      0.000071024780
    3      -0.000012168192      0.000042285656      0.000054453848
    4       0.000377396412      0.000135506980     -0.000241889432
    5      -0.000054453848     -0.000042285656      0.000012168192
    6      -0.000348514703      0.000000000000     -0.000618245194
    7       0.000618245194      0.000000000000      0.000348514703
    8       0.000241889432     -0.000135506980     -0.000377396412
    9       0.000149044754      0.000000000000     -0.000149044754

 cartesian coordinates (angstrom) at end:
    1      2.77401279734022     2.56401099834336     2.66358685836343
    2      8.21161245303629     8.01839807620947     8.10118651405950
    3      5.34739626318023     5.29120453727641     2.86916441464517
    4      5.51123689624107     5.29120453727641     8.25111331333024
    5      8.00603489675455     5.29120453727641     5.52780304821949
    6      5.46923237287235     8.12185576133739     5.40596693839591
    7      5.46923237300380     2.46055331321544     5.40596693852737
    8      2.62408599806948     5.29120453727641     5.36396241515865
    9      0.08795319520109    -0.00000000000000    -0.08795319520109

 cartesian forces (hartree/bohr) at end:
    1     -0.00000836155013     0.00001026719583     0.00000836155013
    2     -0.00000836155013    -0.00001026719583     0.00000836155013
    3     -0.00001693596390    -0.00000000000000     0.00001282080153
    4      0.00001294013889    -0.00000000000000    -0.00002612742919
    5     -0.00001282080153     0.00000000000000     0.00001693596390
    6      0.00000199650626     0.00004834317969    -0.00000199650626
    7      0.00000199650626    -0.00004834317969    -0.00000199650626
    8      0.00002612742919     0.00000000000000    -0.00001294013889
    9      0.00000341928512     0.00000000000000    -0.00000341928512
 frms,max,avg= 1.7003840E-05 4.8343180E-05   1.154E-05  0.000E+00 -1.154E-05 h/b

 cartesian forces (eV/Angstrom) at end:
    1     -0.00042996815937     0.00052796039253     0.00042996815937
    2     -0.00042996815937    -0.00052796039253     0.00042996815937
    3     -0.00087088220591    -0.00000000000000     0.00065927206647
    4      0.00066540863950    -0.00000000000002    -0.00134352631462
    5     -0.00065927206647     0.00000000000000     0.00087088220591
    6      0.00010266447085     0.00248590604083    -0.00010266447085
    7      0.00010266447085    -0.00248590604083    -0.00010266447085
    8      0.00134352631462     0.00000000000002    -0.00066540863950
    9      0.00017582669531     0.00000000000000    -0.00017582669531
 frms,max,avg= 8.7437251E-04 2.4859060E-03   5.932E-04  0.000E+00 -5.932E-04 e/A
 length scales= 14.227912842000 14.531856352000 14.227912842000 bohr
              =  7.529087201791  7.689927179982  7.529087201791 angstroms
 prteigrs : about to open file Cs2TiI6o_DS1_EIG
 Fermi (or HOMO) energy (hartree) =   0.00919   Average Vxc (hartree)=  -0.30864
 Eigenvalues (hartree) for nkpt= 280  k points:
 kpt#   1, nband= 42, wtk=  0.00058, kpt=  0.0000  0.0000  0.0000 (reduced coord)
  -1.81412   -1.00690   -1.00594   -1.00573   -0.74076   -0.74019   -0.53243   -0.52321
  -0.52142   -0.51636   -0.41723   -0.40504   -0.26584   -0.26387   -0.26357   -0.25906
  -0.25891   -0.25861   -0.15553   -0.12300   -0.12010   -0.11583   -0.11488   -0.11146
  -0.10589   -0.09820   -0.09600   -0.07521   -0.06682   -0.06061   -0.05996   -0.03185
  -0.02184   -0.01417   -0.01387    0.00919    0.07586    0.08163    0.08182    0.16902
   0.17151    0.17720
 prteigrs : prtvol=0 or 1, do not print more k-points.


--- !EnergyTerms
iteration_state     : {dtset: 1, }
comment             : Components of total free energy in Hartree
kinetic             :  5.57227495289400E+01
hartree             :  3.89511329606977E+01
xc                  : -5.48493473202136E+01
Ewald energy        : -1.27526978888263E+02
psp_core            :  1.06088545687718E+01
local_psp           : -1.32578644063069E+02
spherical_terms     :  3.68638399273081E+01
total_energy        : -1.72808393285828E+02
total_energy_eV     : -4.70235552393052E+03
...


--- !EnergyTermsDC
iteration_state     : {dtset: 1, }
comment             : '"Double-counting" decomposition of free energy'
band_energy         : -2.45071527586034E+01
Ewald energy        : -1.27526978888263E+02
psp_core            :  1.06088545687718E+01
xc_dc               : -4.94073762194050E+01
spherical_terms     :  1.80242481857271E+01
total_energy_dc     : -1.72808405111773E+02
total_energy_dc_eV  : -4.70235584573084E+03
...


 Cartesian components of stress tensor (hartree/bohr^3)
  sigma(1 1)= -7.65281196E-05  sigma(3 2)=  1.18512107E-13
  sigma(2 2)= -7.65495723E-05  sigma(3 1)=  6.31062636E-08
  sigma(3 3)= -7.65281196E-05  sigma(2 1)=  1.18512343E-13

-Cartesian components of stress tensor (GPa)         [Pressure=  2.2517E+00 GPa]
- sigma(1 1)= -2.25153463E+00  sigma(3 2)=  3.48674599E-09
- sigma(2 2)= -2.25216579E+00  sigma(3 1)=  1.85665006E-03
- sigma(3 3)= -2.25153463E+00  sigma(2 1)=  3.48675292E-09

================================================================================
== DATASET  2 ==================================================================
-   mpi_nproc: 6, omp_nthreads: -1 (-1 if OMP is not activated)


--- !DatasetInfo
iteration_state: {dtset: 2, }
dimensions: {natom: 9, nkpt: 280, mband: 42, nsppol: 1, nspinor: 1, nspden: 1, mpw: 6272, }
cutoff_energies: {ecut:  16.0, pawecutdg:  40.0, }
electrons: {nelect:   7.20000000E+01, charge:   0.00000000E+00, occopt:   1.00000000E+00, tsmear:   1.00000000E-02, }
meta: {optdriver: 0, ionmov: 0, optcell: 0, iscf: 17, paral_kgb: 0, }
...

 Real(R)+Recip(G) space primitive vectors, cartesian coordinates (Bohr,Bohr^-1):
 R(1)=  0.1540944  9.9886784 10.1108032  G(1)= -0.0502174  0.0500567  0.0502174
 R(2)= 10.2648976  0.0000000 10.2648976  G(2)=  0.0487097 -0.0500567  0.0487097
 R(3)= 10.1108032  9.9886784  0.1540944  G(3)=  0.0502174  0.0500567 -0.0502174
 Unit cell volume ucvol=  2.0417777E+03 bohr^3
 Angles (23,13,12)=  5.92918544E+01  5.93834444E+01  5.92918544E+01 degrees

 Coarse grid specifications (used for wave-functions):

 getcut: wavevector=  0.0000  0.0000  0.0000  ngfft=  54  54  54
         ecut(hartree)=     16.000   => boxcut(ratio)=   2.06660

 Fine grid specifications (used for densities):

 getcut: wavevector=  0.0000  0.0000  0.0000  ngfft=  90  90  90
         ecut(hartree)=     40.000   => boxcut(ratio)=   2.17788

--- Pseudopotential description ------------------------------------------------
- pspini: atom type   1  psp file is ../../../Psps_for_tests/ATOMICDATA/Cs.GGA_PBE-JTH.xml
- pspatm: opening atomic psp file    ../../../Psps_for_tests/ATOMICDATA/Cs.GGA_PBE-JTH.xml
- pspatm : Reading pseudopotential header in XML form from ../../../Psps_for_tests/ATOMICDATA/Cs.GGA_PBE-JTH.xml
 Pseudopotential format is: paw10
 basis_size (lnmax)=  6 (lmn_size= 18), orbitals=   0   0   1   1   2   2
 Spheres core radius: rc_sph= 2.20660278
 1 radial meshes are used:
  - mesh 1: r(i)=AA*[exp(BB*(i-1))-1], size=1500 , AA= 0.15922E-03 BB= 0.87573E-02
 Shapefunction is SIN type: shapef(r)=[sin(pi*r/rshp)/(pi*r/rshp)]**2
 Radius for shape functions =  2.00394208
 mmax= 1500
 Radial grid used for partial waves is grid 1
 Radial grid used for projectors is grid 1
 Radial grid used for (t)core density is grid 1
 Radial grid used for Vloc is grid 1
 Radial grid used for pseudo valence density is grid 1
 Mesh size for Vloc has been set to 1341 to avoid numerical noise.
 Compensation charge density is not taken into account in XC energy/potential
 pspatm: atomic psp has been read  and splines computed

- pspini: atom type   2  psp file is ../../../Psps_for_tests/ATOMICDATA/I.GGA_PBE-JTH.xml
- pspatm: opening atomic psp file    ../../../Psps_for_tests/ATOMICDATA/I.GGA_PBE-JTH.xml
- pspatm : Reading pseudopotential header in XML form from ../../../Psps_for_tests/ATOMICDATA/I.GGA_PBE-JTH.xml
 Pseudopotential format is: paw10
 basis_size (lnmax)=  4 (lmn_size=  8), orbitals=   0   0   1   1
 Spheres core radius: rc_sph= 2.30022271
 1 radial meshes are used:
  - mesh 1: r(i)=AA*[exp(BB*(i-1))-1], size=2000 , AA= 0.12610E-03 BB= 0.66836E-02
 Shapefunction is SIN type: shapef(r)=[sin(pi*r/rshp)/(pi*r/rshp)]**2
 Radius for shape functions =  2.10879093
 mmax= 2000
 Radial grid used for partial waves is grid 1
 Radial grid used for projectors is grid 1
 Radial grid used for (t)core density is grid 1
 Radial grid used for Vloc is grid 1
 Radial grid used for pseudo valence density is grid 1
 Mesh size for Vloc has been set to 1792 to avoid numerical noise.
 Compensation charge density is not taken into account in XC energy/potential
 pspatm: atomic psp has been read  and splines computed

- pspini: atom type   3  psp file is ../../../Psps_for_tests/ATOMICDATA/Zr.GGA_PBE-JTH.xml
- pspatm: opening atomic psp file    ../../../Psps_for_tests/ATOMICDATA/Zr.GGA_PBE-JTH.xml
- pspatm : Reading pseudopotential header in XML form from ../../../Psps_for_tests/ATOMICDATA/Zr.GGA_PBE-JTH.xml
 Pseudopotential format is: paw10
 basis_size (lnmax)=  6 (lmn_size= 18), orbitals=   0   0   1   1   2   2
 Spheres core radius: rc_sph= 2.21000000
 1 radial meshes are used:
  - mesh 1: r(i)=AA*[exp(BB*(i-1))-1], size= 941 , AA= 0.35256E-03 BB= 0.14102E-01
 Shapefunction is BESSEL type: shapef(r,l)=aa(1,l)*jl(q(1,l)*r)+aa(2,l)*jl(q(2,l)*r)
 Radius for shape functions =  2.21000000
 mmax=  941
 Radial grid used for partial waves is grid 1
 Radial grid used for projectors is grid 1
 Radial grid used for (t)core density is grid 1
 Radial grid used for Vloc is grid 1
 Radial grid used for pseudo valence density is grid 1
 Mesh size for Vloc has been set to  777 to avoid numerical noise.
 Compensation charge density is not taken into account in XC energy/potential
 pspatm: atomic psp has been read  and splines computed

- pspini: atom type   4  psp file is ../../../Psps_for_tests/ATOMICDATA/Cl.GGA_PBE-JTH.xml
- pspatm: opening atomic psp file    ../../../Psps_for_tests/ATOMICDATA/Cl.GGA_PBE-JTH.xml
- pspatm : Reading pseudopotential header in XML form from ../../../Psps_for_tests/ATOMICDATA/Cl.GGA_PBE-JTH.xml
 Pseudopotential format is: paw10
 basis_size (lnmax)=  4 (lmn_size=  8), orbitals=   0   0   1   1
 Spheres core radius: rc_sph= 1.80315674
 1 radial meshes are used:
  - mesh 1: r(i)=AA*[exp(BB*(i-1))-1], size=1400 , AA= 0.50355E-03 BB= 0.85603E-02
 Shapefunction is SIN type: shapef(r)=[sin(pi*r/rshp)/(pi*r/rshp)]**2
 Radius for shape functions =  1.61320365
 mmax= 1400
 Radial grid used for partial waves is grid 1
 Radial grid used for projectors is grid 1
 Radial grid used for (t)core density is grid 1
 Radial grid used for Vloc is grid 1
 Radial grid used for pseudo valence density is grid 1
 Mesh size for Vloc has been set to 1238 to avoid numerical noise.
 Compensation charge density is not taken into account in XC energy/potential
 pspatm: atomic psp has been read  and splines computed

--------------------------------------------------------------------------------

_setup2: Arith. and geom. avg. npw (full set) are    6241.615    6241.609

================================================================================

--- !BeginCycle
iteration_state: {dtset: 2, }
solver: {iscf: 17, nstep: 2500, nline: 4, wfoptalg: 10, }
tolerances: {toldfe: 1.00E-08, }
...

     iter   Etot(hartree)      deltaE(h)  residm     nres2
 ETOT  1  -172.64012899175    -1.726E+02 2.207E-01 2.380E+01
 ETOT  2  -172.80951326193    -1.694E-01 2.272E-02 5.203E+00
 ETOT  3  -172.80729271389     2.221E-03 6.291E-03 1.123E+00
 ETOT  4  -172.80802092699    -7.282E-04 5.366E-03 5.518E-02
 ETOT  5  -172.80784880558     1.721E-04 2.010E-03 6.441E-03
 ETOT  6  -172.80789464985    -4.584E-05 2.315E-03 5.341E-04
 ETOT  7  -172.80789763088    -2.981E-06 5.974E-04 1.286E-04
 ETOT  8  -172.80789902036    -1.389E-06 6.693E-04 2.570E-05
 ETOT  9  -172.80789919910    -1.787E-07 4.850E-04 4.826E-06
 ETOT 10  -172.80789922544    -2.634E-08 5.567E-04 6.473E-07
 ETOT 11  -172.80789922704    -1.595E-09 2.133E-04 2.520E-07
 ETOT 12  -172.80789922835    -1.318E-09 3.466E-04 5.985E-08

 At SCF step   12, etot is converged : 
  for the second time, diff in etot=  1.318E-09 < toldfe=  1.000E-08

 Cartesian components of stress tensor (hartree/bohr^3)
  sigma(1 1)= -7.86662378E-05  sigma(3 2)= -1.99467403E-14
  sigma(2 2)= -7.85793750E-05  sigma(3 1)=  5.78777350E-08
  sigma(3 3)= -7.86662378E-05  sigma(2 1)= -1.99468960E-14


--- !ResultsGS
iteration_state: {dtset: 2, }
comment   : Summary of ground state results
lattice_vectors:
- [  0.1540944,   9.9886784,  10.1108032, ]
- [ 10.2648976,   0.0000000,  10.2648976, ]
- [ 10.1108032,   9.9886784,   0.1540944, ]
lattice_lengths: [  14.21358,   14.51676,   14.21358, ]
lattice_angles: [ 59.292,  59.383,  59.292, ] # degrees, (23, 13, 12)
lattice_volume:   2.0417777E+03
convergence: {deltae: -1.318E-09, res2:  5.985E-08, residm:  3.466E-04, diffor: null, }
etotal    :  -1.72807899E+02
entropy   :   0.00000000E+00
fermie    :   1.00128404E-02
cartesian_stress_tensor: # hartree/bohr^3
- [ -7.86662378E-05,  -1.99468960E-14,   5.78777350E-08, ]
- [ -1.99468960E-14,  -7.85793750E-05,  -1.99467403E-14, ]
- [  5.78777350E-08,  -1.99467403E-14,  -7.86662378E-05, ]
pressure_GPa:   2.3136E+00
xred      :
- [  2.3177E-01,   2.5777E-01,   2.5269E-01, Cs]
- [  7.4731E-01,   7.4223E-01,   7.6823E-01, Cs]
- [  2.6521E-01,   2.5562E-01,   7.3479E-01,  I]
- [  7.5958E-01,   7.6520E-01,   2.4042E-01, Cl]
- [  2.6521E-01,   7.4438E-01,   7.3479E-01,  I]
- [  7.6131E-01,   2.3274E-01,   7.7322E-01, Cl]
- [  2.2678E-01,   7.6726E-01,   2.3869E-01, Cl]
- [  7.5958E-01,   2.3480E-01,   2.4042E-01, Cl]
- [ -1.6738E-02,   1.2799E-18,   1.6738E-02, Zr]
cartesian_forces: # hartree/bohr
- [ -7.80723690E-06,   5.25451783E-06,   7.80723690E-06, ]
- [ -7.80723690E-06,  -5.25451783E-06,   7.80723690E-06, ]
- [ -1.61667475E-05,  -3.12339474E-17,   2.42040183E-05, ]
- [  1.64617349E-05,   4.45807880E-17,  -2.79338120E-05, ]
- [ -2.42040183E-05,   3.12354920E-17,   1.61667475E-05, ]
- [  8.91102747E-06,   6.01395637E-05,  -8.91102747E-06, ]
- [  8.91102747E-06,  -6.01395637E-05,  -8.91102747E-06, ]
- [  2.79338120E-05,  -4.45819360E-17,  -1.64617349E-05, ]
- [ -6.23236223E-06,   1.10352122E-21,   6.23236223E-06, ]
force_length_stats: {min:   8.81389119E-06, max:   6.14457480E-05, mean:   3.10245734E-05, }
...

 Integrated electronic density in atomic spheres:
 ------------------------------------------------
 Atom  Sphere_radius  Integrated_density
    1        2.20660          5.37699995
    2        2.20660          5.37699995
    3        2.30022          4.03895903
    4        1.80316          4.37286468
    5        2.30022          4.03895903
    6        1.80316          4.37259315
    7        1.80316          4.37259315
    8        1.80316          4.37286468
    9        2.21000          8.83769005

 PAW TEST:
 ==== Compensation charge inside spheres ============
 The following values must be close to each other ...
 Compensation charge over spherical meshes =     -5.794687298008924
 Compensation charge over fine fft grid    =     -5.794703285940170

 ==== Results concerning PAW augmentation regions ====

 Total pseudopotential strength Dij (hartree):
 Atom #  1
   0.41527  -0.13766  -0.00000   0.00000  -0.00000   0.00000  -0.00001   0.00001  -0.00000   0.00000   0.00000   0.00000 ...
  -0.13766   0.04130   0.00000  -0.00000   0.00000  -0.00000   0.00000  -0.00000   0.00000  -0.00000  -0.00000  -0.00000 ...
  -0.00000   0.00000  -0.09051   0.00000  -0.00000  -0.16840  -0.00000   0.00000  -0.00000   0.00000   0.00000  -0.00000 ...
   0.00000  -0.00000   0.00000  -0.09051   0.00000  -0.00000  -0.16841  -0.00000  -0.00000  -0.00000   0.00000  -0.00000 ...
  -0.00000   0.00000  -0.00000   0.00000  -0.09051   0.00000  -0.00000  -0.16841  -0.00000  -0.00000   0.00000   0.00000 ...
   0.00000  -0.00000  -0.16840  -0.00000   0.00000   0.39645   0.00001  -0.00001   0.00000  -0.00000  -0.00000  -0.00000 ...
  -0.00001   0.00000  -0.00000  -0.16841  -0.00000   0.00001   0.39646   0.00000  -0.00000   0.00000  -0.00000   0.00000 ...
[...]
                       5.4219043215E+00  2.4582957014E+00  5.3612439641E+00
                       2.6200848358E+00  5.2476363574E+00  5.3247519013E+00
                       8.9349478096E-02 -6.8838109931E-18 -8.9349478096E-02
           xangst10    2.7463084626E+00  2.5398624037E+00  2.6393005116E+00
                       8.1319174368E+00  7.9445071094E+00  8.0249094858E+00
                       5.2957301393E+00  5.2421847566E+00  2.8523429506E+00
                       5.4511605482E+00  5.2421847566E+00  8.1517787827E+00
                       7.9188749977E+00  5.2421847566E+00  5.4754878091E+00
                       5.4159093905E+00  8.0264239274E+00  5.3553085579E+00
                       5.4159093905E+00  2.4579455857E+00  5.3553085579E+00
                       2.6194391657E+00  5.2421847566E+00  5.3200574001E+00
                       8.9622262308E-02 -6.8874246523E-18 -8.9622262308E-02
            xcart1     5.2421244761E+00  4.8452785886E+00  5.0334496935E+00
                       1.5517698646E+01  1.5152576388E+01  1.5309023863E+01
                       1.0105114461E+01  9.9989274885E+00  5.4219349739E+00
                       1.0414728387E+01  9.9989274885E+00  1.5592344454E+01
                       1.5129213365E+01  9.9989274885E+00  1.0446033878E+01
                       1.0335351342E+01  1.5348083080E+01  1.0215796997E+01
                       1.0335351342E+01  4.6497718973E+00  1.0215796997E+01
                       4.9588038855E+00  9.9989274885E+00  1.0136419952E+01
                       1.6620745144E-01 -1.0576118596E-17 -1.6620745144E-01
            xcart2     5.2365704234E+00  4.8390961164E+00  5.0283271800E+00
                       1.5501468027E+01  1.5138260633E+01  1.5293224783E+01
                       1.0094095518E+01  9.9886783748E+00  5.4185716268E+00
                       1.0402634747E+01  9.9886783748E+00  1.5571718823E+01
                       1.5111223580E+01  9.9886783748E+00  1.0435699688E+01
                       1.0324228384E+01  1.5327915940E+01  1.0205566823E+01
                       1.0324228384E+01  4.6494408099E+00  1.0205566823E+01
                       4.9580763841E+00  9.9886783748E+00  1.0127160459E+01
                       1.6665537988E-01 -1.0791827849E-17 -1.6665537988E-01
            xcart3     5.2309644739E+00  4.8353864239E+00  5.0231709219E+00
                       1.5485099870E+01  1.5121510084E+01  1.5277306318E+01
                       1.0083628851E+01  9.9784482539E+00  5.4154641796E+00
                       1.0390779306E+01  9.9784482539E+00  1.5551130985E+01
                       1.5092806612E+01  9.9784482539E+00  1.0424641940E+01
                       1.0312929607E+01  1.5307945207E+01  1.0195341184E+01
                       1.0312929607E+01  4.6489513009E+00  1.0195341184E+01
                       4.9571398064E+00  9.9784482539E+00  1.0117491485E+01
                       1.6680503231E-01  3.7960990168E-17 -1.6680503231E-01
            xcart4     5.2254197055E+00  4.8303043027E+00  5.0180319954E+00
                       1.5468871406E+01  1.5105523327E+01  1.5261483696E+01
                       1.0073109529E+01  9.9679138147E+00  5.4121578218E+00
                       1.0378742272E+01  9.9679138147E+00  1.5530774030E+01
                       1.5074745580E+01  9.9679138147E+00  1.0413793873E+01
                       1.0301736462E+01  1.5287546499E+01  1.0185166940E+01
                       1.0301736462E+01  4.6482811309E+00  1.0185166940E+01
                       4.9561293715E+00  9.9679138147E+00  1.0108161130E+01
                       1.6712281892E-01 -1.8157299479E-18 -1.6712281892E-01
            xcart5     5.2199570446E+00  4.8242695441E+00  5.0130734454E+00
                       1.5452987535E+01  1.5089981928E+01  1.5246103935E+01
                       1.0062761722E+01  9.9571257362E+00  5.4090929430E+00
                       1.0366828446E+01  9.9571257362E+00  1.5510649163E+01
                       1.5056968037E+01  9.9571257362E+00  1.0403299258E+01
                       1.0290999686E+01  1.5266575166E+01  1.0175061294E+01
                       1.0290999686E+01  4.6476763064E+00  1.0175061294E+01
                       4.9554118169E+00  9.9571257362E+00  1.0099232534E+01
                       1.6732994715E-01 -3.9435346926E-17 -1.6732994715E-01
            xcart6     5.2145061925E+00  4.8179529901E+00  5.0080774247E+00
                       1.5437089810E+01  1.5075161062E+01  1.5230661042E+01
                       1.0051862088E+01  9.9465570260E+00  5.4059785991E+00
                       1.0355087513E+01  9.9465570260E+00  1.5490415600E+01
                       1.5039188635E+01  9.9465570260E+00  1.0393305146E+01
                       1.0280289392E+01  1.5245857763E+01  1.0164877842E+01
                       1.0280289392E+01  4.6472562893E+00  1.0164877842E+01
                       4.9547516348E+00  9.9465570260E+00  1.0090079722E+01
                       1.6760427947E-01 -1.1768600203E-17 -1.6760427947E-01
            xcart7     5.2085754213E+00  4.8131551940E+00  5.0030208272E+00
                       1.5420171670E+01  1.5059531609E+01  1.5214617076E+01
                       1.0041090022E+01  9.9363434013E+00  5.4023767499E+00
                       1.0342431599E+01  9.9363434013E+00  1.5469383541E+01
                       1.5020815747E+01  9.9363434013E+00  1.0382102475E+01
                       1.0268946982E+01  1.5225993213E+01  1.0154245515E+01
                       1.0268946982E+01  4.6466935891E+00  1.0154245515E+01
                       4.9538089562E+00  9.9363434013E+00  1.0080760898E+01
                       1.6798260895E-01 -4.3743533876E-18 -1.6798260895E-01
            xcart8     5.2025810882E+00  4.8077714898E+00  4.9979208062E+00
                       1.5403082982E+01  1.5044470541E+01  1.5198422700E+01
                       1.0029659193E+01  9.9261210154E+00  5.3986101656E+00
                       1.0329333387E+01  9.9261210154E+00  1.5448326394E+01
                       1.5002393623E+01  9.9261210154E+00  1.0371344595E+01
                       1.0257961740E+01  1.5206205445E+01  1.0143042049E+01
                       1.0257961740E+01  4.6460365860E+00  1.0143042049E+01
                       4.9526773951E+00  9.9261210154E+00  1.0071670401E+01
                       1.6836400510E-01 -4.7069338930E-18 -1.6836400510E-01
            xcart9     5.1959815514E+00  4.8042657766E+00  4.9926170037E+00
                       1.5384580106E+01  1.5028925344E+01  1.5181215559E+01
                       1.0018474477E+01  9.9165955604E+00  5.3942364967E+00
                       1.0314874291E+01  9.9165955604E+00  1.5425954326E+01
                       1.4982960613E+01  9.9165955604E+00  1.0358722633E+01
                       1.0245914286E+01  1.5187685492E+01  1.0131282824E+01
                       1.0245914286E+01  4.6455056293E+00  1.0131282824E+01
                       4.9512427846E+00  9.9165955604E+00  1.0062322819E+01
                       1.6884604372E-01 -1.3008517527E-17 -1.6884604372E-01
            xcart10    5.1897708708E+00  4.7996443582E+00  4.9875551492E+00
                       1.5367096891E+01  1.5012942698E+01  1.5164881169E+01
                       1.0007479637E+01  9.9062935279E+00  5.3901470137E+00
                       1.0301200543E+01  9.9062935279E+00  1.5404629395E+01
                       1.4964505026E+01  9.9062935279E+00  1.0347172403E+01
                       1.0234585509E+01  1.5167743049E+01  1.0120066532E+01
                       1.0234585508E+01  4.6448440065E+00  1.0120066531E+01
                       4.9500226448E+00  9.9062935279E+00  1.0053451497E+01
                       1.6936153117E-01 -1.3015346354E-17 -1.6936153117E-01
             xred1     2.3182065028E-01  2.5771008470E-01  2.5275918032E-01
                       7.4724081968E-01  7.4228991530E-01  7.6817934972E-01
                       2.6504373661E-01  2.5553196246E-01  7.3495626339E-01
                       7.5976226780E-01  7.6548027447E-01  2.4023773220E-01
                       2.6504373661E-01  7.4446803754E-01  7.3495626339E-01
                       7.6148839699E-01  2.3251353221E-01  7.7348453859E-01
                       2.2651546141E-01  7.6748646779E-01  2.3851160301E-01
                       7.5976226780E-01  2.3451972553E-01  2.4023773220E-01
                      -1.6677337199E-02  6.1160206887E-19  1.6677337199E-02
             xred2     2.3177161482E-01  2.5777095153E-01  2.5268648212E-01
                       7.4731351788E-01  7.4222904847E-01  7.6822838518E-01
                       2.6520736002E-01  2.5561723772E-01  7.3479263998E-01
                       7.5957794773E-01  7.6520276060E-01  2.4042205227E-01
                       2.6520736002E-01  7.4438276228E-01  7.3479263998E-01
                       7.6130559034E-01  2.3273553495E-01  7.7322333977E-01
                       2.2677666023E-01  7.6726446506E-01  2.3869440966E-01
                       7.5957794773E-01  2.3479723940E-01  2.4042205227E-01
                      -1.6737998786E-02  1.2798564581E-18  1.6737998786E-02
             xred3     2.3184690150E-01  2.5770849831E-01  2.5273610188E-01
                       7.4726389812E-01  7.4229150169E-01  7.6815309850E-01
                       2.6535790853E-01  2.5574840942E-01  7.3464209147E-01
                       7.5938153339E-01  7.6494869096E-01  2.4061846661E-01
                       2.6535790853E-01  7.4425159058E-01  7.3464209147E-01
                       7.6113988652E-01  2.3294961213E-01  7.7296088921E-01
                       2.2703911079E-01  7.6705038786E-01  2.3886011348E-01
                       7.5938153339E-01  2.3505130904E-01  2.4061846661E-01
                      -1.6768680800E-02 -9.1607283777E-19  1.6768680800E-02
             xred4     2.3185892957E-01  2.5770736021E-01  2.5272635001E-01
                       7.4727364999E-01  7.4229263979E-01  7.6814107043E-01
                       2.6550674368E-01  2.5586178386E-01  7.3449325632E-01
                       7.5919957546E-01  7.6468679984E-01  2.4080042454E-01
                       2.6550674368E-01  7.4413821614E-01  7.3449325632E-01
                       7.6097318286E-01  2.3316218505E-01  7.7270244704E-01
                       2.2729755296E-01  7.6683781495E-01  2.3902681714E-01
                       7.5919957546E-01  2.3531320016E-01  2.4080042454E-01
                      -1.6815953683E-02 -3.7106548727E-19  1.6815953683E-02
             xred5     2.3183426168E-01  2.5774788469E-01  2.5266996895E-01
                       7.4733003105E-01  7.4225211532E-01  7.6816573832E-01
                       2.6565933497E-01  2.5597618323E-01  7.3434066503E-01
                       7.5902281076E-01  7.6440928885E-01  2.4097718924E-01
                       2.6565933497E-01  7.4402381677E-01  7.3434066503E-01
                       7.6077735951E-01  2.3338443390E-01  7.7245377269E-01
                       2.2754622731E-01  7.6661556610E-01  2.3922264049E-01
                       7.5902281076E-01  2.3559071115E-01  2.4097718924E-01
                      -1.6852171030E-02  1.2976892378E-18  1.6852171030E-02
             xred6     2.3178734050E-01  2.5780800444E-01  2.5259665062E-01
                       7.4740334938E-01  7.4219199556E-01  7.6821265950E-01
                       2.6583295210E-01  2.5606330387E-01  7.3416704790E-01
                       7.5883658530E-01  7.6413752532E-01  2.4116341470E-01
                       2.6583295210E-01  7.4393669613E-01  7.3416704790E-01
                       7.6057159442E-01  2.3361130274E-01  7.7220580009E-01
                       2.2779419991E-01  7.6638869726E-01  2.3942840558E-01
                       7.5883658530E-01  2.3586247468E-01  2.4116341470E-01
                      -1.6895559017E-02 -1.4807737591E-18  1.6895559017E-02
             xred7     2.3182942193E-01  2.5780048054E-01  2.5256961699E-01
                       7.4743038301E-01  7.4219951946E-01  7.6817057807E-01
                       2.6597988841E-01  2.5617300158E-01  7.3402011159E-01
                       7.5865143956E-01  7.6384820312E-01  2.4134856044E-01
                       2.6597988841E-01  7.4382699842E-01  7.3402011159E-01
                       7.6039026662E-01  2.3382311790E-01  7.7196349759E-01
                       2.2803650241E-01  7.6617688210E-01  2.3960973338E-01
                       7.5865143956E-01  2.3615179688E-01  2.4134856044E-01
                      -1.6949229919E-02 -9.2354100324E-19  1.6949229919E-02
             xred8     2.3184341719E-01  2.5782224081E-01  2.5251210118E-01
                       7.4748789882E-01  7.4217775918E-01  7.6815658281E-01
                       2.6615470289E-01  2.5625050213E-01  7.3384529711E-01
                       7.5848407849E-01  7.6354860025E-01  2.4151592151E-01
                       2.6615470289E-01  7.4374949787E-01  7.3384529711E-01
                       7.6016629309E-01  2.3403082527E-01  7.7177205636E-01
                       2.2822794364E-01  7.6596917473E-01  2.3983370691E-01
                       7.5848407849E-01  2.3645139975E-01  2.4151592151E-01
                      -1.7003115518E-02  7.0526433118E-19  1.7003115518E-02
             xred9     2.3195548537E-01  2.5776637520E-01  2.5251176423E-01
                       7.4748823577E-01  7.4223362480E-01  7.6804451463E-01
                       2.6628884790E-01  2.5637051017E-01  7.3371115210E-01
                       7.5831637738E-01  7.6321733444E-01  2.4168362262E-01
                       2.6628884790E-01  7.4362948983E-01  7.3371115210E-01
                       7.5997761813E-01  2.3422885409E-01  7.7156467368E-01
                       2.2843532632E-01  7.6577114591E-01  2.4002238187E-01
                       7.5831637738E-01  2.3678266556E-01  2.4168362262E-01
                      -1.7067116169E-02  1.0808503762E-18  1.7067116169E-02
             xred10    2.3202317950E-01  2.5774772145E-01  2.5248137760E-01
                       7.4751862240E-01  7.4225227855E-01  7.6797682050E-01
                       2.6643184618E-01  2.5646720073E-01  7.3356815382E-01
                       7.5815737192E-01  7.6289704620E-01  2.4184262808E-01
                       2.6643184618E-01  7.4353279927E-01  7.3356815382E-01
                       7.5976800213E-01  2.3443904592E-01  7.7135390604E-01
                       2.2864609396E-01  7.6556095408E-01  2.4023199787E-01
                       7.5815737192E-01  2.3710295380E-01  2.4184262808E-01
                      -1.7134334211E-02 -1.3655055308E-18  1.7134334211E-02
            znucl       55.00000   53.00000   40.00000   17.00000

================================================================================


- Timing analysis has been suppressed with timopt=0



================================================================================

 Suggested references for the acknowledgment of ABINIT usage.

 The users of ABINIT have little formal obligations with respect to the ABINIT group
 (those specified in the GNU General Public License, http://www.gnu.org/copyleft/gpl.txt).
 However, it is common practice in the scientific literature,
 to acknowledge the efforts of people that have made the research possible.
 In this spirit, please find below suggested citations of work written by ABINIT developers,
 corresponding to implementations inside of ABINIT that you have used in the present run.
 Note also that it will be of great value to readers of publications presenting these results,
 to read papers enabling them to understand the theoretical formalism and details
 of the ABINIT implementation.
 For information on why they are suggested, see also https://docs.abinit.org/theory/acknowledgments.
-
- [1] Implementation of the Projector Augmented-Wave Method in the ABINIT code.
- M. Torrent, F. Jollet, F. Bottin, G. Zerah, and X. Gonze Comput. Mat. Science 42, 337, (2008).
- Comment: PAW calculations. Strong suggestion to cite this paper.
- DOI and bibtex: see https://docs.abinit.org/theory/bibliography/#torrent2008
-
- [2] Libxc: A library of exchange and correlation functionals for density functional theory.
- M.A.L. Marques, M.J.T. Oliveira, T. Burnus, Computer Physics Communications 183, 2227 (2012).
- Comment: to be cited when LibXC is used (negative value of ixc)
- Strong suggestion to cite this paper.
- DOI and bibtex: see https://docs.abinit.org/theory/bibliography/#marques2012
-
- [3] The Abinit project: Impact, environment and recent developments.
- Computer Phys. Comm. 248, 107042 (2020).
- X.Gonze, B. Amadon, G. Antonius, F.Arnardi, L.Baguet, J.-M.Beuken,
- J.Bieder, F.Bottin, J.Bouchet, E.Bousquet, N.Brouwer, F.Bruneval,
- G.Brunin, T.Cavignac, J.-B. Charraud, Wei Chen, M.Cote, S.Cottenier,
- J.Denier, G.Geneste, Ph.Ghosez, M.Giantomassi, Y.Gillet, O.Gingras,
- D.R.Hamann, G.Hautier, Xu He, N.Helbig, N.Holzwarth, Y.Jia, F.Jollet,
- W.Lafargue-Dit-Hauret, K.Lejaeghere, M.A.L.Marques, A.Martin, C.Martins,
- H.P.C. Miranda, F.Naccarato, K. Persson, G.Petretto, V.Planes, Y.Pouillon,
- S.Prokhorenko, F.Ricci, G.-M.Rignanese, A.H.Romero, M.M.Schmitt, M.Torrent,
- M.J.van Setten, B.Van Troeye, M.J.Verstraete, G.Zerah and J.W.Zwanzig
- Comment: the fifth generic paper describing the ABINIT project.
- Note that a version of this paper, that is not formatted for Computer Phys. Comm. 
- is available at https://www.abinit.org/sites/default/files/ABINIT20.pdf .
- The licence allows the authors to put it on the Web.
- DOI and bibtex: see https://docs.abinit.org/theory/bibliography/#gonze2020
-
- [4] ABINIT: Overview, and focus on selected capabilities
- J. Chem. Phys. 152, 124102 (2020).
- A. Romero, D.C. Allan, B. Amadon, G. Antonius, T. Applencourt, L.Baguet,
- J.Bieder, F.Bottin, J.Bouchet, E.Bousquet, F.Bruneval,
- G.Brunin, D.Caliste, M.Cote,
- J.Denier, C. Dreyer, Ph.Ghosez, M.Giantomassi, Y.Gillet, O.Gingras,
- D.R.Hamann, G.Hautier, F.Jollet, G. Jomard,
- A.Martin, 
- H.P.C. Miranda, F.Naccarato, G.Petretto, N.A. Pike, V.Planes,
- S.Prokhorenko, T. Rangel, F.Ricci, G.-M.Rignanese, M.Royo, M.Stengel, M.Torrent,
- M.J.van Setten, B.Van Troeye, M.J.Verstraete, J.Wiktor, J.W.Zwanziger, and X.Gonze.
- Comment: a global overview of ABINIT, with focus on selected capabilities .
- Note that a version of this paper, that is not formatted for J. Chem. Phys 
- is available at https://www.abinit.org/sites/default/files/ABINIT20_JPC.pdf .
- The licence allows the authors to put it on the Web.
- DOI and bibtex: see https://docs.abinit.org/theory/bibliography/#romero2020
-
- [5] Recent developments in the ABINIT software package.
- Computer Phys. Comm. 205, 106 (2016).
- X.Gonze, F.Jollet, F.Abreu Araujo, D.Adams, B.Amadon, T.Applencourt,
- C.Audouze, J.-M.Beuken, J.Bieder, A.Bokhanchuk, E.Bousquet, F.Bruneval
- D.Caliste, M.Cote, F.Dahm, F.Da Pieve, M.Delaveau, M.Di Gennaro,
- B.Dorado, C.Espejo, G.Geneste, L.Genovese, A.Gerossier, M.Giantomassi,
- Y.Gillet, D.R.Hamann, L.He, G.Jomard, J.Laflamme Janssen, S.Le Roux,
- A.Levitt, A.Lherbier, F.Liu, I.Lukacevic, A.Martin, C.Martins,
- M.J.T.Oliveira, S.Ponce, Y.Pouillon, T.Rangel, G.-M.Rignanese,
- A.H.Romero, B.Rousseau, O.Rubel, A.A.Shukri, M.Stankovski, M.Torrent,
- M.J.Van Setten, B.Van Troeye, M.J.Verstraete, D.Waroquier, J.Wiktor,
- B.Xu, A.Zhou, J.W.Zwanziger.
- Comment: the fourth generic paper describing the ABINIT project.
- Note that a version of this paper, that is not formatted for Computer Phys. Comm. 
- is available at https://www.abinit.org/sites/default/files/ABINIT16.pdf .
- The licence allows the authors to put it on the Web.
- DOI and bibtex: see https://docs.abinit.org/theory/bibliography/#gonze2016
-
- Proc.   0 individual time (sec): cpu=      13453.6  wall=      13475.8

================================================================================

 Calculation completed.
.Delivered   0 WARNINGs and   0 COMMENTs to log file.
+Overall time at end (sec) : cpu=      80735.6  wall=      80854.8
