
.Version 9.2.2 of ABINIT 
.(MPI version, prepared for a x86_64_linux_gnu9.3 computer) 

.Copyright (C) 1998-2020 ABINIT group . 
 ABINIT comes with ABSOLUTELY NO WARRANTY.
 It is free software, and you are welcome to redistribute it
 under certain conditions (GNU General Public License,
 see ~abinit/COPYING or http://www.gnu.org/copyleft/gpl.txt).

 ABINIT is a project of the Universite Catholique de Louvain,
 Corning Inc. and other collaborators, see ~abinit/doc/developers/contributors.txt .
 Please read https://docs.abinit.org/theory/acknowledgments for suggested
 acknowledgments of the ABINIT effort.
 For more information, see https://www.abinit.org .

.Starting date : Sat 22 Oct 2022.
- ( at 05h32 )
  
- input  file    -> Cs2TiI6.in
- output file    -> Cs2TiI6.out
- root for input  files -> Cs2TiI6i
- root for output files -> Cs2TiI6o

- inpspheads : Reading pseudopotential header in XML form from 
-   ../../../Psps_for_tests/ATOMICDATA/Cs.GGA_PBE-JTH.xml
- inpspheads : Reading pseudopotential header in XML form from 
-   ../../../Psps_for_tests/ATOMICDATA/I.GGA_PBE-JTH.xml
- inpspheads : Reading pseudopotential header in XML form from 
-   ../../../Psps_for_tests/ATOMICDATA/Zr.GGA_PBE-JTH.xml
- inpspheads : Reading pseudopotential header in XML form from 
-   ../../../Psps_for_tests/ATOMICDATA/Br.GGA_PBE-JTH.xml

 DATASET    1 : space group I4 m m (#107); Bravais tI (body-center tetrag.)
================================================================================
 Values of the parameters that define the memory need for DATASET  1.
     intxc =       0    ionmov =       0      iscf =      17    lmnmax =      18
     lnmax =       6     mgfft =      60  mpssoang =       3    mqgrid =    3542
     natom =       9  nloc_mem =       2    nspden =       1   nspinor =       1
    nsppol =       1      nsym =       8    n1xccc =       1    ntypat =       4
    occopt =       1   xclevel =       2
-    mband =          42        mffmem =           1         mkmem =          28
       mpw =        7684          nfft =      216000          nkpt =         163
Pmy_natom=         2
 PAW method is used; the additional fine FFT grid is defined by:
   mgfftf=        90    nfftf =    729000
================================================================================
P This job should need less than                     365.931 Mbytes of memory.
  Rough estimation (10% accuracy) of disk space for files :
_ WF disk file :    802.685 Mbytes ; DEN or POT disk file :      5.564 Mbytes.
================================================================================


 DATASET    2 : space group I4 m m (#107); Bravais tI (body-center tetrag.)
================================================================================
 Values of the parameters that define the memory need for DATASET  2.
     intxc =       0    ionmov =       0      iscf =      17    lmnmax =      18
     lnmax =       6     mgfft =      60  mpssoang =       3    mqgrid =    3542
     natom =       9  nloc_mem =       2    nspden =       1   nspinor =       1
    nsppol =       1      nsym =       8    n1xccc =       1    ntypat =       4
    occopt =       1   xclevel =       2
-    mband =          42        mffmem =           1         mkmem =          28
       mpw =        7684          nfft =      216000          nkpt =         163
Pmy_natom=         2
 PAW method is used; the additional fine FFT grid is defined by:
   mgfftf=        90    nfftf =    729000
================================================================================
P This job should need less than                     365.931 Mbytes of memory.
  Rough estimation (10% accuracy) of disk space for files :
_ WF disk file :    802.685 Mbytes ; DEN or POT disk file :      5.564 Mbytes.
================================================================================

--------------------------------------------------------------------------------
------------- Echo of variables that govern the present computation ------------
--------------------------------------------------------------------------------
-
- outvars: echo of selected default values                                      
-   iomode0 =  0 , fftalg0 =112 , wfoptalg0 = 10
-
- outvars: echo of global parameters not present in the input file              
-  max_nthreads =    0
-
 -outvars: echo values of preprocessed input variables --------
            acell1     1.5233602722E+01  1.5233602722E+01  1.5243697338E+01 Bohr
            acell2     1.5233602712E+01  1.5233602712E+01  1.5243697339E+01 Bohr
              amu      1.32905430E+02  1.26904470E+02  9.12240000E+01
                       7.99040000E+01
           diemac      1.20000000E+01
             ecut      1.60000000E+01 Hartree
-          fftalg         112
           istwfk        2    0    0    0    0    0    3    0    0    0
                         0    0    0    0    0    0    0    0    0    0
                         0    0    0    0    0    0    0    0    0    0
                         0    0    0    0    0    0    0    0    0    0
                         0    0    7    0    0    0    0    0    0    0
                       outvar_i_n : Printing only first  50 k-points.
              ixc     -101130
           jdtset        1    2
              kpt      0.00000000E+00  0.00000000E+00  0.00000000E+00
                       8.33333333E-02  0.00000000E+00  0.00000000E+00
                       1.66666667E-01  0.00000000E+00  0.00000000E+00
                       2.50000000E-01  0.00000000E+00  0.00000000E+00
                       3.33333333E-01  0.00000000E+00  0.00000000E+00
                       4.16666667E-01  0.00000000E+00  0.00000000E+00
                       5.00000000E-01  0.00000000E+00  0.00000000E+00
                       8.33333333E-02  8.33333333E-02  0.00000000E+00
                       1.66666667E-01  8.33333333E-02  0.00000000E+00
                       2.50000000E-01  8.33333333E-02  0.00000000E+00
                       3.33333333E-01  8.33333333E-02  0.00000000E+00
                       4.16666667E-01  8.33333333E-02  0.00000000E+00
                       5.00000000E-01  8.33333333E-02  0.00000000E+00
                      -4.16666667E-01  8.33333333E-02  0.00000000E+00
                      -3.33333333E-01  8.33333333E-02  0.00000000E+00
                      -2.50000000E-01  8.33333333E-02  0.00000000E+00
                      -1.66666667E-01  8.33333333E-02  0.00000000E+00
                      -8.33333333E-02  8.33333333E-02  0.00000000E+00
                       1.66666667E-01  1.66666667E-01  0.00000000E+00
                       2.50000000E-01  1.66666667E-01  0.00000000E+00
                       3.33333333E-01  1.66666667E-01  0.00000000E+00
                       4.16666667E-01  1.66666667E-01  0.00000000E+00
                       5.00000000E-01  1.66666667E-01  0.00000000E+00
                      -4.16666667E-01  1.66666667E-01  0.00000000E+00
                      -3.33333333E-01  1.66666667E-01  0.00000000E+00
                      -2.50000000E-01  1.66666667E-01  0.00000000E+00
                      -1.66666667E-01  1.66666667E-01  0.00000000E+00
                       2.50000000E-01  2.50000000E-01  0.00000000E+00
                       3.33333333E-01  2.50000000E-01  0.00000000E+00
                       4.16666667E-01  2.50000000E-01  0.00000000E+00
                       5.00000000E-01  2.50000000E-01  0.00000000E+00
                      -4.16666667E-01  2.50000000E-01  0.00000000E+00
                      -3.33333333E-01  2.50000000E-01  0.00000000E+00
                      -2.50000000E-01  2.50000000E-01  0.00000000E+00
                       3.33333333E-01  3.33333333E-01  0.00000000E+00
                       4.16666667E-01  3.33333333E-01  0.00000000E+00
                       5.00000000E-01  3.33333333E-01  0.00000000E+00
                      -4.16666667E-01  3.33333333E-01  0.00000000E+00
                      -3.33333333E-01  3.33333333E-01  0.00000000E+00
                       4.16666667E-01  4.16666667E-01  0.00000000E+00
                       5.00000000E-01  4.16666667E-01  0.00000000E+00
                      -4.16666667E-01  4.16666667E-01  0.00000000E+00
                       5.00000000E-01  5.00000000E-01  0.00000000E+00
                       8.33333333E-02  0.00000000E+00  8.33333333E-02
                       1.66666667E-01  0.00000000E+00  8.33333333E-02
                       2.50000000E-01  0.00000000E+00  8.33333333E-02
                       3.33333333E-01  0.00000000E+00  8.33333333E-02
                       4.16666667E-01  0.00000000E+00  8.33333333E-02
                       5.00000000E-01  0.00000000E+00  8.33333333E-02
                      -4.16666667E-01  0.00000000E+00  8.33333333E-02
                       outvar_i_n : Printing only first  50 k-points.
         kptrlatt       12    0    0      0   12    0      0    0   12
          kptrlen1     1.82803233E+02
          kptrlen2     1.82803233E+02
P           mkmem          28
            natom           9
            nband          42
           ndtset           2
            ngfft          60      60      60
          ngfftdg          90      90      90
             nkpt         163
            nstep        2500
             nsym           8
           ntypat           4
              occ      2.000000  2.000000  2.000000  2.000000  2.000000  2.000000
                       2.000000  2.000000  2.000000  2.000000  2.000000  2.000000
                       2.000000  2.000000  2.000000  2.000000  2.000000  2.000000
                       2.000000  2.000000  2.000000  2.000000  2.000000  2.000000
                       2.000000  2.000000  2.000000  2.000000  2.000000  2.000000
                       2.000000  2.000000  2.000000  2.000000  2.000000  2.000000
                       0.000000  0.000000  0.000000  0.000000  0.000000  0.000000
        pawecutdg      4.00000000E+01 Hartree
            prtwf           0
            rprim1     0.0000000000E+00  7.0757534872E-01  7.0663790294E-01
                       7.0757534872E-01  0.0000000000E+00  7.0663790294E-01
                       7.0710678119E-01  7.0710678119E-01  0.0000000000E+00
            rprim2     0.0000000000E+00  7.0757534921E-01  7.0663790246E-01
                       7.0757534921E-01  0.0000000000E+00  7.0663790246E-01
                       7.0710678119E-01  7.0710678119E-01  0.0000000000E+00
          spgroup         107
           symrel      1  0  0   0  1  0   0  0  1       1  0 -1   0  1 -1   0  0 -1
                       0  1 -1   1  0 -1   0  0 -1       0  1  0   1  0  0   0  0  1
                       1  0  0   1  0 -1   1 -1  0       0  1  0   0  1 -1  -1  1  0
                       0  1 -1   0  1  0  -1  1  0       1  0 -1   1  0  0   1 -1  0
           toldfe      1.00000000E-08 Hartree
            typat1     1  1  2  4  4  4  4  4  3
            typat2     1  1  4  2  4  4  4  4  3
           useylm           1
              wtk        0.00058    0.00463    0.00463    0.00463    0.00463    0.00463
                         0.00231    0.00116    0.00463    0.00463    0.00463    0.00463
                         0.00463    0.00463    0.00463    0.00463    0.00463    0.00231
                         0.00116    0.00463    0.00463    0.00463    0.00463    0.00463
                         0.00463    0.00463    0.00231    0.00116    0.00463    0.00463
                         0.00463    0.00463    0.00463    0.00231    0.00116    0.00463
                         0.00463    0.00463    0.00231    0.00116    0.00463    0.00231
                         0.00058    0.00231    0.00926    0.00926    0.00926    0.00926
                         0.00926    0.00926
                       outvars : Printing only first  50 k-points.
           xangst1     2.8519798638E+00  2.8519798638E+00  2.8221110366E+00
                       8.5559395914E+00  8.5559395914E+00  8.5185137557E+00
                       5.7039597276E+00  5.7039597276E+00  2.8575295251E+00
                       5.7039597276E+00  5.7039597276E+00  8.6975332794E+00
                       8.7651849262E+00  5.7039597276E+00  5.6832842452E+00
                       5.7039597276E+00  8.7651849262E+00  5.6832842452E+00
                       5.7039597276E+00  2.6427345290E+00  5.6832842452E+00
                       2.6427345290E+00  5.7039597276E+00  5.6832842452E+00
                      -4.6378268575E-13 -4.6378268575E-13 -5.7602824806E-02
           xangst2     2.8519798640E+00  2.8519798640E+00  2.8742916802E+00
                       8.5559395919E+00  8.5559395919E+00  8.5706943916E+00
                       5.7039597279E+00  5.7039597279E+00  2.6952721568E+00
                       5.7039597279E+00  5.7039597279E+00  8.5352758982E+00
                       8.7651849259E+00  5.7039597279E+00  5.7095211854E+00
                       5.7039597279E+00  8.7651849259E+00  5.7095211854E+00
                       5.7039597279E+00  2.6427345299E+00  5.7095211854E+00
                       2.6427345299E+00  5.7039597279E+00  5.7095211854E+00
                      -3.8811018971E-13 -3.8811018971E-13  5.7602823434E-02
            xcart1     5.3894608791E+00  5.3894608791E+00  5.3330169757E+00
                       1.6168382637E+01  1.6168382637E+01  1.6097658057E+01
                       1.0778921758E+01  1.0778921758E+01  5.3999482191E+00
                       1.0778921758E+01  1.0778921758E+01  1.6435955930E+01
                       1.6563799015E+01  1.0778921758E+01  1.0739850759E+01
                       1.0778921758E+01  1.6563799015E+01  1.0739850759E+01
                       1.0778921758E+01  4.9940445018E+00  1.0739850759E+01
                       4.9940445018E+00  1.0778921758E+01  1.0739850759E+01
                      -8.7642226124E-13 -8.7642226124E-13 -1.0885356336E-01
            xcart2     5.3894608794E+00  5.3894608794E+00  5.4316241015E+00
                       1.6168382638E+01  1.6168382638E+01  1.6196265169E+01
                       1.0778921759E+01  1.0778921759E+01  5.0933262299E+00
                       1.0778921759E+01  1.0778921759E+01  1.6129333916E+01
                       1.6563799014E+01  1.0778921759E+01  1.0789431390E+01
                       1.0778921759E+01  1.6563799014E+01  1.0789431390E+01
                       1.0778921759E+01  4.9940445034E+00  1.0789431390E+01
                       4.9940445034E+00  1.0778921759E+01  1.0789431390E+01
                      -7.3342196793E-13 -7.3342196793E-13  1.0885356077E-01
             xred1     2.4770992991E-01  2.4770992991E-01  2.5229007009E-01
                       7.4770992991E-01  7.4770992991E-01  7.5229007009E-01
                       2.5081877687E-01  2.5081877687E-01  7.4918122313E-01
                       7.6342331365E-01  7.6342331365E-01  2.3657668635E-01
                       2.3050641812E-01  7.6719064185E-01  7.6949358188E-01
                       7.6719064185E-01  2.3050641812E-01  7.6949358188E-01
                       2.3050641812E-01  7.6719064185E-01  2.3280935815E-01
                       7.6719064185E-01  2.3050641812E-01  2.3280935815E-01
                      -5.0560702646E-03 -5.0560702646E-03  5.0560702646E-03
             xred2     2.5229007022E-01  2.5229007022E-01  2.4770992978E-01
                       7.5229007022E-01  7.5229007022E-01  7.4770992978E-01
                       2.3657668649E-01  2.3657668649E-01  7.6342331351E-01
                       7.4918122283E-01  7.4918122283E-01  2.5081877717E-01
                       2.3280935822E-01  7.6949358182E-01  7.6719064178E-01
                       7.6949358182E-01  2.3280935822E-01  7.6719064178E-01
                       2.3280935822E-01  7.6949358182E-01  2.3050641818E-01
                       7.6949358182E-01  2.3280935822E-01  2.3050641818E-01
                       5.0560701509E-03  5.0560701509E-03 -5.0560701509E-03
            znucl       55.00000   53.00000   40.00000   35.00000

================================================================================

 chkinp: Checking input parameters for consistency, jdtset=   1.

 chkinp: Checking input parameters for consistency, jdtset=   2.

================================================================================
== DATASET  1 ==================================================================
-   mpi_nproc: 6, omp_nthreads: -1 (-1 if OMP is not activated)


--- !DatasetInfo
iteration_state: {dtset: 1, }
dimensions: {natom: 9, nkpt: 163, mband: 42, nsppol: 1, nspinor: 1, nspden: 1, mpw: 7684, }
cutoff_energies: {ecut:  16.0, pawecutdg:  40.0, }
electrons: {nelect:   7.20000000E+01, charge:   0.00000000E+00, occopt:   1.00000000E+00, tsmear:   1.00000000E-02, }
meta: {optdriver: 0, ionmov: 0, optcell: 0, iscf: 17, paral_kgb: 0, }
...

 Real(R)+Recip(G) space primitive vectors, cartesian coordinates (Bohr,Bohr^-1):
 R(1)=  0.0000000 10.7789218 10.7646411  G(1)= -0.0463868  0.0463868  0.0464484
 R(2)= 10.7789218  0.0000000 10.7646411  G(2)=  0.0463868 -0.0463868  0.0464484
 R(3)= 10.7789218 10.7789218  0.0000000  G(3)=  0.0463868  0.0463868 -0.0464484
 Unit cell volume ucvol=  2.5013830E+03 bohr^3
 Angles (23,13,12)=  5.99780771E+01  5.99780771E+01  6.00438457E+01 degrees

 Coarse grid specifications (used for wave-functions):

 getcut: wavevector=  0.0000  0.0000  0.0000  ngfft=  60  60  60
         ecut(hartree)=     16.000   => boxcut(ratio)=   2.18593

 Fine grid specifications (used for densities):

 getcut: wavevector=  0.0000  0.0000  0.0000  ngfft=  90  90  90
         ecut(hartree)=     40.000   => boxcut(ratio)=   2.07401

--- Pseudopotential description ------------------------------------------------
- pspini: atom type   1  psp file is ../../../Psps_for_tests/ATOMICDATA/Cs.GGA_PBE-JTH.xml
- pspatm: opening atomic psp file    ../../../Psps_for_tests/ATOMICDATA/Cs.GGA_PBE-JTH.xml
- pspatm : Reading pseudopotential header in XML form from ../../../Psps_for_tests/ATOMICDATA/Cs.GGA_PBE-JTH.xml
 Pseudopotential format is: paw10
 basis_size (lnmax)=  6 (lmn_size= 18), orbitals=   0   0   1   1   2   2
 Spheres core radius: rc_sph= 2.20660278
 1 radial meshes are used:
  - mesh 1: r(i)=AA*[exp(BB*(i-1))-1], size=1500 , AA= 0.15922E-03 BB= 0.87573E-02
 Shapefunction is SIN type: shapef(r)=[sin(pi*r/rshp)/(pi*r/rshp)]**2
 Radius for shape functions =  2.00394208
 mmax= 1500
 Radial grid used for partial waves is grid 1
 Radial grid used for projectors is grid 1
 Radial grid used for (t)core density is grid 1
 Radial grid used for Vloc is grid 1
 Radial grid used for pseudo valence density is grid 1
 Mesh size for Vloc has been set to 1341 to avoid numerical noise.
 Compensation charge density is not taken into account in XC energy/potential
 pspatm: atomic psp has been read  and splines computed

- pspini: atom type   2  psp file is ../../../Psps_for_tests/ATOMICDATA/I.GGA_PBE-JTH.xml
- pspatm: opening atomic psp file    ../../../Psps_for_tests/ATOMICDATA/I.GGA_PBE-JTH.xml
- pspatm : Reading pseudopotential header in XML form from ../../../Psps_for_tests/ATOMICDATA/I.GGA_PBE-JTH.xml
 Pseudopotential format is: paw10
 basis_size (lnmax)=  4 (lmn_size=  8), orbitals=   0   0   1   1
 Spheres core radius: rc_sph= 2.30022271
 1 radial meshes are used:
  - mesh 1: r(i)=AA*[exp(BB*(i-1))-1], size=2000 , AA= 0.12610E-03 BB= 0.66836E-02
 Shapefunction is SIN type: shapef(r)=[sin(pi*r/rshp)/(pi*r/rshp)]**2
 Radius for shape functions =  2.10879093
 mmax= 2000
 Radial grid used for partial waves is grid 1
 Radial grid used for projectors is grid 1
 Radial grid used for (t)core density is grid 1
 Radial grid used for Vloc is grid 1
 Radial grid used for pseudo valence density is grid 1
 Mesh size for Vloc has been set to 1792 to avoid numerical noise.
 Compensation charge density is not taken into account in XC energy/potential
 pspatm: atomic psp has been read  and splines computed

- pspini: atom type   3  psp file is ../../../Psps_for_tests/ATOMICDATA/Zr.GGA_PBE-JTH.xml
- pspatm: opening atomic psp file    ../../../Psps_for_tests/ATOMICDATA/Zr.GGA_PBE-JTH.xml
- pspatm : Reading pseudopotential header in XML form from ../../../Psps_for_tests/ATOMICDATA/Zr.GGA_PBE-JTH.xml
 Pseudopotential format is: paw10
 basis_size (lnmax)=  6 (lmn_size= 18), orbitals=   0   0   1   1   2   2
 Spheres core radius: rc_sph= 2.21000000
 1 radial meshes are used:
  - mesh 1: r(i)=AA*[exp(BB*(i-1))-1], size= 941 , AA= 0.35256E-03 BB= 0.14102E-01
 Shapefunction is BESSEL type: shapef(r,l)=aa(1,l)*jl(q(1,l)*r)+aa(2,l)*jl(q(2,l)*r)
 Radius for shape functions =  2.21000000
 mmax=  941
 Radial grid used for partial waves is grid 1
 Radial grid used for projectors is grid 1
 Radial grid used for (t)core density is grid 1
 Radial grid used for Vloc is grid 1
 Radial grid used for pseudo valence density is grid 1
 Mesh size for Vloc has been set to  777 to avoid numerical noise.
 Compensation charge density is not taken into account in XC energy/potential
 pspatm: atomic psp has been read  and splines computed

- pspini: atom type   4  psp file is ../../../Psps_for_tests/ATOMICDATA/Br.GGA_PBE-JTH.xml
- pspatm: opening atomic psp file    ../../../Psps_for_tests/ATOMICDATA/Br.GGA_PBE-JTH.xml
- pspatm : Reading pseudopotential header in XML form from ../../../Psps_for_tests/ATOMICDATA/Br.GGA_PBE-JTH.xml
 Pseudopotential format is: paw10
 basis_size (lnmax)=  4 (lmn_size=  8), orbitals=   0   0   1   1
 Spheres core radius: rc_sph= 2.20000000
 1 radial meshes are used:
  - mesh 1: r(i)=AA*[exp(BB*(i-1))-1], size= 927 , AA= 0.40483E-03 BB= 0.14169E-01
 Shapefunction is BESSEL type: shapef(r,l)=aa(1,l)*jl(q(1,l)*r)+aa(2,l)*jl(q(2,l)*r)
 Radius for shape functions =  2.02066386
 mmax=  927
 Radial grid used for partial waves is grid 1
 Radial grid used for projectors is grid 1
 Radial grid used for (t)core density is grid 1
 Radial grid used for Vloc is grid 1
 Radial grid used for pseudo valence density is grid 1
 Mesh size for Vloc has been set to  763 to avoid numerical noise.
 Compensation charge density is not taken into account in XC energy/potential
 pspatm: atomic psp has been read  and splines computed

   2.54645917E+04                                ecore*ucvol(ha*bohr**3)
--------------------------------------------------------------------------------

_setup2: Arith. and geom. avg. npw (full set) are    7646.126    7646.122

================================================================================

--- !BeginCycle
iteration_state: {dtset: 1, }
solver: {iscf: 17, nstep: 2500, nline: 4, wfoptalg: 10, }
tolerances: {toldfe: 1.00E-08, }
...

     iter   Etot(hartree)      deltaE(h)  residm     nres2
 ETOT  1  -168.48257621668    -1.685E+02 2.019E-01 1.775E+01
 ETOT  2  -168.62398984667    -1.414E-01 2.074E-02 4.213E+00
 ETOT  3  -168.62104868791     2.941E-03 4.026E-03 9.448E-01
 ETOT  4  -168.62160305288    -5.544E-04 3.591E-03 4.979E-02
 ETOT  5  -168.62139206000     2.110E-04 1.287E-03 7.489E-03
 ETOT  6  -168.62144152277    -4.946E-05 1.119E-03 5.439E-04
 ETOT  7  -168.62144322302    -1.700E-06 7.061E-04 1.792E-04
 ETOT  8  -168.62144490829    -1.685E-06 1.437E-03 1.667E-05
 ETOT  9  -168.62144494464    -3.635E-08 5.046E-04 2.640E-06
 ETOT 10  -168.62144495655    -1.190E-08 5.215E-04 3.485E-07
 ETOT 11  -168.62144495937    -2.827E-09 1.034E-04 7.067E-08
 ETOT 12  -168.62144495999    -6.188E-10 1.393E-04 1.651E-08

 At SCF step   12, etot is converged : 
  for the second time, diff in etot=  6.188E-10 < toldfe=  1.000E-08

 Cartesian components of stress tensor (hartree/bohr^3)
  sigma(1 1)=  3.07304675E-06  sigma(3 2)= -3.27930129E-14
  sigma(2 2)=  3.07304675E-06  sigma(3 1)= -3.27913305E-14
  sigma(3 3)=  3.03852985E-06  sigma(2 1)=  6.54974370E-14


--- !ResultsGS
iteration_state: {dtset: 1, }
comment   : Summary of ground state results
lattice_vectors:
- [  0.0000000,  10.7789218,  10.7646411, ]
- [ 10.7789218,   0.0000000,  10.7646411, ]
- [ 10.7789218,  10.7789218,   0.0000000, ]
lattice_lengths: [  15.23360,   15.23360,   15.24370, ]
lattice_angles: [ 59.978,  59.978,  60.044, ] # degrees, (23, 13, 12)
lattice_volume:   2.5013830E+03
convergence: {deltae: -6.188E-10, res2:  1.651E-08, residm:  1.393E-04, diffor: null, }
etotal    :  -1.68621445E+02
entropy   :   0.00000000E+00
fermie    :  -5.64399941E-02
cartesian_stress_tensor: # hartree/bohr^3
- [  3.07304675E-06,   6.54974370E-14,  -3.27913305E-14, ]
- [  6.54974370E-14,   3.07304675E-06,  -3.27930129E-14, ]
- [ -3.27913305E-14,  -3.27930129E-14,   3.03852985E-06, ]
pressure_GPa:  -9.0074E-02
xred      :
- [  2.4771E-01,   2.4771E-01,   2.5229E-01, Cs]
- [  7.4771E-01,   7.4771E-01,   7.5229E-01, Cs]
- [  2.5082E-01,   2.5082E-01,   7.4918E-01,  I]
- [  7.6342E-01,   7.6342E-01,   2.3658E-01, Br]
- [  2.3051E-01,   7.6719E-01,   7.6949E-01, Br]
- [  7.6719E-01,   2.3051E-01,   7.6949E-01, Br]
- [  2.3051E-01,   7.6719E-01,   2.3281E-01, Br]
- [  7.6719E-01,   2.3051E-01,   2.3281E-01, Br]
- [ -5.0561E-03,  -5.0561E-03,   5.0561E-03, Zr]
cartesian_forces: # hartree/bohr
- [ -2.82814477E-21,   2.97993814E-21,  -2.80640324E-05, ]
- [ -1.95464801E-21,   2.10644139E-21,  -2.80640324E-05, ]
- [  1.01615237E-21,  -8.64358997E-22,  -8.43049280E-06, ]
- [  1.14007684E-21,  -9.88283467E-22,   1.57764674E-05, ]
- [  3.74921472E-06,   3.01453897E-17,   1.31561221E-05, ]
- [  3.01467651E-17,   3.74921472E-06,   1.31561221E-05, ]
- [ -3.01457640E-17,  -3.74921472E-06,   1.31561221E-05, ]
- [ -3.74921472E-06,  -3.01462923E-17,   1.31561221E-05, ]
- [  1.09119697E-21,  -9.39403598E-22,  -3.84239814E-06, ]
force_length_stats: {min:   3.84239814E-06, max:   2.80640324E-05, mean:   1.54330106E-05, }
...

 Integrated electronic density in atomic spheres:
 ------------------------------------------------
 Atom  Sphere_radius  Integrated_density
    1        2.20660          5.37172796
    2        2.20660          5.37172796
    3        2.30022          4.01458722
    4        2.20000          4.92686008
    5        2.20000          4.92534834
    6        2.20000          4.92534834
    7        2.20000          4.92534834
    8        2.20000          4.92534834
    9        2.21000          8.81138912

 PAW TEST:
 ==== Compensation charge inside spheres ============
 The following values must be close to each other ...
 Compensation charge over spherical meshes =     -4.936416297548141
 Compensation charge over fine fft grid    =     -4.936416649977968

 ==== Results concerning PAW augmentation regions ====

 Total pseudopotential strength Dij (hartree):
 Atom #  1
   0.42972  -0.14236   0.00000  -0.00000   0.00000   0.00000   0.00000   0.00000  -0.00000   0.00000   0.00000   0.00000 ...
  -0.14236   0.04282   0.00000   0.00000   0.00000   0.00000  -0.00000   0.00000   0.00000   0.00000  -0.00000   0.00000 ...
   0.00000   0.00000  -0.09231   0.00000  -0.00000  -0.16730   0.00000   0.00000   0.00000  -0.00000   0.00000  -0.00000 ...
  -0.00000   0.00000   0.00000  -0.09231   0.00000   0.00000  -0.16730   0.00000  -0.00000   0.00000  -0.00000   0.00000 ...
   0.00000   0.00000  -0.00000   0.00000  -0.09231   0.00000   0.00000  -0.16730   0.00000  -0.00000   0.00000  -0.00000 ...
   0.00000   0.00000  -0.16730   0.00000   0.00000   0.40078   0.00000  -0.00001   0.00000   0.00000   0.00000   0.00000 ...
   0.00000  -0.00000   0.00000  -0.16730   0.00000   0.00000   0.40078   0.00000   0.00000   0.00000   0.00000   0.00000 ...
   0.00000   0.00000   0.00000   0.00000  -0.16730  -0.00001   0.00000   0.40078   0.00000   0.00000   0.00000   0.00000 ...
  -0.00000   0.00000   0.00000  -0.00000   0.00000   0.00000   0.00000   0.00000   0.00540   0.00000   0.00000   0.00000 ...
   0.00000   0.00000  -0.00000   0.00000  -0.00000   0.00000   0.00000   0.00000   0.00000   0.00540   0.00000  -0.00000 ...
   0.00000  -0.00000   0.00000  -0.00000   0.00000   0.00000   0.00000   0.00000   0.00000   0.00000   0.00540   0.00000 ...
   0.00000   0.00000  -0.00000   0.00000  -0.00000   0.00000   0.00000   0.00000   0.00000  -0.00000   0.00000   0.00540 ...
   ...  only 12  components have been written...
 Atom #  9
   3.07020  -0.89403   0.00000   0.00000   0.00000   0.00000   0.00000   0.00000   0.00000   0.00000  -0.00003   0.00000 ...
  -0.89403   0.26712   0.00000  -0.00001   0.00000   0.00000   0.00000   0.00000   0.00000   0.00000   0.00000   0.00000 ...
   0.00000   0.00000   0.27168   0.00000   0.00000  -0.05533   0.00000   0.00000   0.00000  -0.00006   0.00000   0.00000 ...
   0.00000  -0.00001   0.00000   0.27163   0.00000   0.00000  -0.05532   0.00000   0.00000   0.00000  -0.00006   0.00000 ...
   0.00000   0.00000   0.00000   0.00000   0.27168   0.00000   0.00000  -0.05533   0.00000   0.00000   0.00000  -0.00006 ...
   0.00000   0.00000  -0.05533   0.00000   0.00000   0.01513   0.00000   0.00000   0.00000   0.00001   0.00000   0.00000 ...
   0.00000   0.00000   0.00000  -0.05532   0.00000   0.00000   0.01513   0.00000   0.00000   0.00000   0.00001   0.00000 ...
   0.00000   0.00000   0.00000   0.00000  -0.05533   0.00000   0.00000   0.01513   0.00000   0.00000   0.00000   0.00001 ...
   0.00000   0.00000   0.00000   0.00000   0.00000   0.00000   0.00000   0.00000  -0.01140   0.00000   0.00000   0.00000 ...
   0.00000   0.00000  -0.00006   0.00000   0.00000   0.00001   0.00000   0.00000   0.00000  -0.01143   0.00000   0.00000 ...
  -0.00003   0.00000   0.00000  -0.00006   0.00000   0.00000   0.00001   0.00000   0.00000   0.00000  -0.01134   0.00000 ...
   0.00000   0.00000   0.00000   0.00000  -0.00006   0.00000   0.00000   0.00001   0.00000   0.00000   0.00000  -0.01143 ...
   ...  only 12  components have been written...


 Augmentation waves occupancies Rhoij:
 Atom #  1
   1.99711  -0.01623   0.00000  -0.00000   0.00000   0.00000  -0.00000   0.00000  -0.00251   0.00000   0.00127   0.00000 ...
  -0.01623   0.11458   0.00000  -0.00036   0.00000   0.00000   0.00002   0.00000   0.01579   0.00000  -0.00962   0.00000 ...
   0.00000   0.00000   2.00976   0.00000   0.00168  -0.00505   0.00000  -0.00026   0.00000  -0.00053   0.00000   0.00098 ...
  -0.00000  -0.00036   0.00000   2.00831   0.00000   0.00000  -0.00482   0.00000   0.00095   0.00000   0.00061   0.00000 ...
   0.00000   0.00000   0.00168   0.00000   2.00976  -0.00026   0.00000  -0.00505   0.00000   0.00098   0.00000  -0.00053 ...
   0.00000   0.00000  -0.00505   0.00000  -0.00026   0.00009   0.00000   0.00001   0.00000   0.00003   0.00000  -0.00006 ...
  -0.00000   0.00002   0.00000  -0.00482   0.00000   0.00000   0.00007   0.00000  -0.00006   0.00000  -0.00004   0.00000 ...
   0.00000   0.00000  -0.00026   0.00000  -0.00505   0.00001   0.00000   0.00009   0.00000  -0.00006   0.00000   0.00003 ...
  -0.00251   0.01579   0.00000   0.00095   0.00000   0.00000  -0.00006   0.00000   0.04425   0.00000  -0.00949   0.00000 ...
   0.00000   0.00000  -0.00053   0.00000   0.00098   0.00003   0.00000  -0.00006   0.00000   0.03013   0.00000   0.00039 ...
   0.00127  -0.00962   0.00000   0.00061   0.00000   0.00000  -0.00004   0.00000  -0.00949   0.00000   0.02421   0.00000 ...
   0.00000   0.00000   0.00098   0.00000  -0.00053  -0.00006   0.00000   0.00003   0.00000   0.00039   0.00000   0.03013 ...
   ...  only 12  components have been written...
 Atom #  9
   1.99242  -0.06846   0.00000   0.00017   0.00000   0.00000   0.00077   0.00000   0.00000   0.00000   0.00133   0.00000 ...
  -0.06846   1.05404   0.00000   0.00235   0.00000   0.00000  -0.03317   0.00000   0.00000   0.00000  -0.02445   0.00000 ...
   0.00000   0.00000   1.96533   0.00000   0.00000  -0.20949   0.00000   0.00000   0.00000  -0.00137   0.00000   0.00000 ...
   0.00017   0.00235   0.00000   1.96625   0.00000   0.00000  -0.20416   0.00000   0.00000   0.00000   0.00038   0.00000 ...
   0.00000   0.00000   0.00000   0.00000   1.96533   0.00000   0.00000  -0.20949   0.00000   0.00000   0.00000  -0.00137 ...
   0.00000   0.00000  -0.20949   0.00000   0.00000   1.64768   0.00000   0.00000   0.00000   0.02635   0.00000   0.00000 ...
   0.00077  -0.03317   0.00000  -0.20416   0.00000   0.00000   1.52447   0.00000   0.00000   0.00000  -0.10397   0.00000 ...
   0.00000   0.00000   0.00000   0.00000  -0.20949   0.00000   0.00000   1.64768   0.00000   0.00000   0.00000   0.02635 ...
   0.00000   0.00000   0.00000   0.00000   0.00000   0.00000   0.00000   0.00000   0.47323   0.00000   0.00000   0.00000 ...
   0.00000   0.00000  -0.00137   0.00000   0.00000   0.02635   0.00000   0.00000   0.00000   0.45966   0.00000   0.00000 ...
   0.00133  -0.02445   0.00000   0.00038   0.00000   0.00000  -0.10397   0.00000   0.00000   0.00000   1.34675   0.00000 ...
   0.00000   0.00000   0.00000   0.00000  -0.00137   0.00000   0.00000   0.02635   0.00000   0.00000   0.00000   0.45966 ...
   ...  only 12  components have been written...


================================================================================

 ----iterations are completed or convergence reached----

 Mean square residual over all n,k,spin=   19.105E-08; max=  13.928E-05
 reduced coordinates (array xred) for    9 atoms
       0.247709929910      0.247709929910      0.252290070090
       0.747709929910      0.747709929910      0.752290070090
       0.250818776870      0.250818776870      0.749181223130
       0.763423313650      0.763423313650      0.236576686350
       0.230506418120      0.767190641850      0.769493581880
       0.767190641850      0.230506418120      0.769493581880
       0.230506418120      0.767190641850      0.232809358150
       0.767190641850      0.230506418120      0.232809358150
      -0.005056070265     -0.005056070265      0.005056070265
 rms dE/dt=  1.5638E-04; max dE/dt=  3.5160E-04; dE/dt below (all hartree)
    1       0.000351597154      0.000351597154      0.000000000000
    2       0.000351597154      0.000351597154      0.000000000000
    3       0.000140249147      0.000140249147      0.000000000000
    4      -0.000120330091     -0.000120330091      0.000000000000
    5      -0.000092123014     -0.000132535506     -0.000040412492
    6      -0.000132535506     -0.000092123014     -0.000040412492
    7      -0.000051710522     -0.000092123014      0.000040412492
    8      -0.000092123014     -0.000051710522      0.000040412492
    9       0.000090859955      0.000090859955      0.000000000000

 cartesian coordinates (angstrom) at end:
    1      2.85197986380546     2.85197986380546     2.82211103656720
    2      8.55593959141680     8.55593959141680     8.51851375565188
    3      5.70395972758848     5.70395972758848     2.85752952511952
    4      5.70395972763550     5.70395972763550     8.69753327937699
    5      8.76518492621151     5.70395972758662     5.68328424523590
    6      5.70395972758662     8.76518492621151     5.68328424523590
    7      5.70395972763585     2.64273452901096     5.68328424523590
    8      2.64273452901096     5.70395972763585     5.68328424523590
    9     -0.00000000000046    -0.00000000000046    -0.05760282480630

 cartesian forces (hartree/bohr) at end:
    1     -0.00000000000000     0.00000000000000    -0.00002806403239
    2     -0.00000000000000     0.00000000000000    -0.00002806403239
    3      0.00000000000000    -0.00000000000000    -0.00000843049280
    4      0.00000000000000    -0.00000000000000     0.00001577646743
    5      0.00000374921472     0.00000000000000     0.00001315612207
    6      0.00000000000000     0.00000374921472     0.00001315612207
    7     -0.00000000000000    -0.00000374921472     0.00001315612207
    8     -0.00000374921472    -0.00000000000000     0.00001315612207
    9      0.00000000000000    -0.00000000000000    -0.00000384239814
 frms,max,avg= 9.9228032E-06 2.8064032E-05   0.000E+00  0.000E+00 -4.598E-06 h/b

 cartesian forces (eV/Angstrom) at end:
    1     -0.00000000000000     0.00000000000000    -0.00144311044724
    2     -0.00000000000000     0.00000000000000    -0.00144311044724
    3      0.00000000000000    -0.00000000000000    -0.00043351333355
    4      0.00000000000000    -0.00000000000000     0.00081125850539
    5      0.00019279235630     0.00000000000000     0.00067651494060
    6      0.00000000000000     0.00019279235630     0.00067651494060
    7     -0.00000000000000    -0.00019279235630     0.00067651494061
    8     -0.00019279235630    -0.00000000000000     0.00067651494061
    9      0.00000000000000    -0.00000000000000    -0.00019758403977
 frms,max,avg= 5.1025101E-04 1.4431104E-03   0.000E+00  0.000E+00 -2.364E-04 e/A
 length scales= 15.233602722000 15.233602722000 15.243697338000 bohr
              =  8.061275365197  8.061275365197  8.066617205914 angstroms
 prteigrs : about to open file Cs2TiI6o_DS1_EIG
 Fermi (or HOMO) energy (hartree) =  -0.05644   Average Vxc (hartree)=  -0.28348
 Eigenvalues (hartree) for nkpt= 163  k points:
 kpt#   1, nband= 42, wtk=  0.00058, kpt=  0.0000  0.0000  0.0000 (reduced coord)
  -1.86320   -1.05380   -1.05380   -1.05337   -0.79695   -0.79677   -0.55763   -0.54661
  -0.54522   -0.54424   -0.54424   -0.45202   -0.31439   -0.31439   -0.31416   -0.31217
  -0.31217   -0.31207   -0.18021   -0.14515   -0.14303   -0.14172   -0.14035   -0.14035
  -0.13524   -0.13524   -0.12815   -0.09617   -0.09255   -0.09255   -0.08053   -0.08053
  -0.07277   -0.06832   -0.05644   -0.05644    0.03178    0.03178    0.03497    0.10240
   0.12293    0.13079
 prteigrs : prtvol=0 or 1, do not print more k-points.


--- !EnergyTerms
iteration_state     : {dtset: 1, }
comment             : Components of total free energy in Hartree
kinetic             :  5.00816830176554E+01
hartree             :  4.18208441647932E+01
xc                  : -6.58213205041586E+01
Ewald energy        : -1.16820275857466E+02
psp_core            :  1.01802051257489E+01
local_psp           : -1.25913809059018E+02
spherical_terms     :  3.78512285131100E+01
total_energy        : -1.68621444599335E+02
total_energy_eV     : -4.58842285602023E+03
...


--- !EnergyTermsDC
iteration_state     : {dtset: 1, }
comment             : '"Double-counting" decomposition of free energy'
band_energy         : -2.74516085438176E+01
Ewald energy        : -1.16820275857466E+02
psp_core            :  1.01802051257489E+01
xc_dc               : -6.37742951769273E+01
spherical_terms     :  2.92445294924700E+01
total_energy_dc     : -1.68621444959992E+02
total_energy_dc_eV  : -4.58842286583420E+03
...


 Cartesian components of stress tensor (hartree/bohr^3)
  sigma(1 1)=  3.07304675E-06  sigma(3 2)= -3.27930129E-14
  sigma(2 2)=  3.07304675E-06  sigma(3 1)= -3.27913305E-14
  sigma(3 3)=  3.03852985E-06  sigma(2 1)=  6.54974370E-14

-Cartesian components of stress tensor (GPa)         [Pressure= -9.0074E-02 GPa]
- sigma(1 1)=  9.04121416E-02  sigma(3 2)= -9.64803586E-10
- sigma(2 2)=  9.04121416E-02  sigma(3 1)= -9.64754088E-10
- sigma(3 3)=  8.93966195E-02  sigma(2 1)=  1.92700080E-09

================================================================================
== DATASET  2 ==================================================================
-   mpi_nproc: 6, omp_nthreads: -1 (-1 if OMP is not activated)


--- !DatasetInfo
iteration_state: {dtset: 2, }
dimensions: {natom: 9, nkpt: 163, mband: 42, nsppol: 1, nspinor: 1, nspden: 1, mpw: 7684, }
cutoff_energies: {ecut:  16.0, pawecutdg:  40.0, }
electrons: {nelect:   7.20000000E+01, charge:   0.00000000E+00, occopt:   1.00000000E+00, tsmear:   1.00000000E-02, }
meta: {optdriver: 0, ionmov: 0, optcell: 0, iscf: 17, paral_kgb: 0, }
...

 Real(R)+Recip(G) space primitive vectors, cartesian coordinates (Bohr,Bohr^-1):
 R(1)=  0.0000000 10.7789218 10.7646411  G(1)= -0.0463868  0.0463868  0.0464484
 R(2)= 10.7789218  0.0000000 10.7646411  G(2)=  0.0463868 -0.0463868  0.0464484
 R(3)= 10.7789218 10.7789218  0.0000000  G(3)=  0.0463868  0.0463868 -0.0464484
 Unit cell volume ucvol=  2.5013830E+03 bohr^3
 Angles (23,13,12)=  5.99780771E+01  5.99780771E+01  6.00438458E+01 degrees

 Coarse grid specifications (used for wave-functions):

 getcut: wavevector=  0.0000  0.0000  0.0000  ngfft=  60  60  60
         ecut(hartree)=     16.000   => boxcut(ratio)=   2.18593

 Fine grid specifications (used for densities):

 getcut: wavevector=  0.0000  0.0000  0.0000  ngfft=  90  90  90
         ecut(hartree)=     40.000   => boxcut(ratio)=   2.07401
--------------------------------------------------------------------------------

_setup2: Arith. and geom. avg. npw (full set) are    7646.126    7646.122

================================================================================

--- !BeginCycle
iteration_state: {dtset: 2, }
solver: {iscf: 17, nstep: 2500, nline: 4, wfoptalg: 10, }
tolerances: {toldfe: 1.00E-08, }
...

     iter   Etot(hartree)      deltaE(h)  residm     nres2
 ETOT  1  -168.47973404205    -1.685E+02 2.156E-01 1.777E+01
 ETOT  2  -168.62404299848    -1.443E-01 2.050E-02 4.233E+00
 ETOT  3  -168.62104729688     2.996E-03 3.980E-03 9.462E-01
 ETOT  4  -168.62160452168    -5.572E-04 3.486E-03 4.995E-02
 ETOT  5  -168.62139213966     2.124E-04 1.232E-03 7.497E-03
 ETOT  6  -168.62144156531    -4.943E-05 1.615E-03 5.434E-04
 ETOT  7  -168.62144324913    -1.684E-06 3.671E-04 1.758E-04
 ETOT  8  -168.62144491246    -1.663E-06 4.558E-04 1.674E-05
 ETOT  9  -168.62144494520    -3.273E-08 9.721E-05 2.804E-06
 ETOT 10  -168.62144495662    -1.142E-08 1.911E-04 3.546E-07
 ETOT 11  -168.62144495931    -2.684E-09 4.932E-05 8.074E-08
 ETOT 12  -168.62144495998    -6.765E-10 1.113E-04 1.958E-08

 At SCF step   12, etot is converged : 
  for the second time, diff in etot=  6.765E-10 < toldfe=  1.000E-08

 Cartesian components of stress tensor (hartree/bohr^3)
  sigma(1 1)=  3.07194191E-06  sigma(3 2)=  2.74421833E-14
  sigma(2 2)=  3.07194191E-06  sigma(3 1)=  2.74412925E-14
  sigma(3 3)=  3.03711092E-06  sigma(2 1)= -5.48100337E-14


--- !ResultsGS
iteration_state: {dtset: 2, }
comment   : Summary of ground state results
lattice_vectors:
- [  0.0000000,  10.7789218,  10.7646411, ]
- [ 10.7789218,   0.0000000,  10.7646411, ]
- [ 10.7789218,  10.7789218,   0.0000000, ]
lattice_lengths: [  15.23360,   15.23360,   15.24370, ]
lattice_angles: [ 59.978,  59.978,  60.044, ] # degrees, (23, 13, 12)
lattice_volume:   2.5013830E+03
convergence: {deltae: -6.765E-10, res2:  1.958E-08, residm:  1.113E-04, diffor: null, }
etotal    :  -1.68621445E+02
entropy   :   0.00000000E+00
fermie    :  -5.64400736E-02
cartesian_stress_tensor: # hartree/bohr^3
- [  3.07194191E-06,  -5.48100337E-14,   2.74412925E-14, ]
- [ -5.48100337E-14,   3.07194191E-06,   2.74421833E-14, ]
- [  2.74412925E-14,   2.74421833E-14,   3.03711092E-06, ]
pressure_GPa:  -9.0038E-02
xred      :
- [  2.5229E-01,   2.5229E-01,   2.4771E-01, Cs]
- [  7.5229E-01,   7.5229E-01,   7.4771E-01, Cs]
- [  2.3658E-01,   2.3658E-01,   7.6342E-01, Br]
- [  7.4918E-01,   7.4918E-01,   2.5082E-01,  I]
- [  2.3281E-01,   7.6949E-01,   7.6719E-01, Br]
- [  7.6949E-01,   2.3281E-01,   7.6719E-01, Br]
- [  2.3281E-01,   7.6949E-01,   2.3051E-01, Br]
- [  7.6949E-01,   2.3281E-01,   2.3051E-01, Br]
- [  5.0561E-03,   5.0561E-03,  -5.0561E-03, Zr]
cartesian_forces: # hartree/bohr
- [  5.73513751E-22,  -5.01222912E-22,   2.80930176E-05, ]
- [ -1.94112129E-21,   2.01341212E-21,   2.80930176E-05, ]
- [  5.51250146E-22,  -4.78959308E-22,  -1.57401110E-05, ]
- [ -5.85643706E-22,   6.57934544E-22,   8.34656225E-06, ]
- [  3.82632597E-06,  -2.57468315E-17,  -1.31364715E-05, ]
- [ -2.57453597E-17,   3.82632597E-06,  -1.31364715E-05, ]
- [  2.57463711E-17,  -3.82632597E-06,  -1.31364715E-05, ]
- [ -3.82632597E-06,   2.57454320E-17,  -1.31364715E-05, ]
- [  1.63170835E-22,  -9.08799965E-23,   3.75339970E-06, ]
force_length_stats: {min:   3.75339970E-06, max:   2.80930176E-05, mean:   1.54172942E-05, }
...

 Integrated electronic density in atomic spheres:
 ------------------------------------------------
 Atom  Sphere_radius  Integrated_density
    1        2.20660          5.37172779
    2        2.20660          5.37172779
    3        2.20000          4.92686086
    4        2.30022          4.01458735
    5        2.20000          4.92534839
    6        2.20000          4.92534839
    7        2.20000          4.92534839
    8        2.20000          4.92534839
    9        2.21000          8.81138856

 PAW TEST:
 ==== Compensation charge inside spheres ============
 The following values must be close to each other ...
 Compensation charge over spherical meshes =     -4.936415102104500
 Compensation charge over fine fft grid    =     -4.936416820540058

 ==== Results concerning PAW augmentation regions ====

 Total pseudopotential strength Dij (hartree):
 Atom #  1
   0.42972  -0.14236   0.00000   0.00000   0.00000   0.00000  -0.00000   0.00000   0.00000   0.00000   0.00000   0.00000 ...
  -0.14236   0.04282   0.00000  -0.00000   0.00000   0.00000   0.00000   0.00000  -0.00000   0.00000  -0.00000   0.00000 ...
   0.00000   0.00000  -0.09231   0.00000   0.00000  -0.16730   0.00000  -0.00000   0.00000   0.00000   0.00000  -0.00000 ...
   0.00000  -0.00000   0.00000  -0.09231   0.00000   0.00000  -0.16730   0.00000  -0.00000   0.00000   0.00000   0.00000 ...
   0.00000   0.00000   0.00000   0.00000  -0.09231  -0.00000   0.00000  -0.16730   0.00000  -0.00000   0.00000   0.00000 ...
   0.00000   0.00000  -0.16730   0.00000  -0.00000   0.40078   0.00000   0.00001   0.00000  -0.00000   0.00000   0.00000 ...
  -0.00000   0.00000   0.00000  -0.16730   0.00000   0.00000   0.40078   0.00000   0.00000   0.00000  -0.00000   0.00000 ...
   0.00000   0.00000  -0.00000   0.00000  -0.16730   0.00001   0.00000   0.40078   0.00000   0.00000   0.00000  -0.00000 ...
   0.00000  -0.00000   0.00000  -0.00000   0.00000   0.00000   0.00000   0.00000   0.00540   0.00000  -0.00000   0.00000 ...
   0.00000   0.00000   0.00000   0.00000  -0.00000  -0.00000   0.00000   0.00000   0.00000   0.00540   0.00000   0.00000 ...
   0.00000  -0.00000   0.00000   0.00000   0.00000   0.00000  -0.00000   0.00000  -0.00000   0.00000   0.00540   0.00000 ...
   0.00000   0.00000  -0.00000   0.00000   0.00000   0.00000   0.00000  -0.00000   0.00000   0.00000   0.00000   0.00540 ...
   ...  only 12  components have been written...
 Atom #  9
   3.07020  -0.89403   0.00000  -0.00000   0.00000   0.00000  -0.00000   0.00000   0.00000   0.00000  -0.00003   0.00000 ...
  -0.89403   0.26712   0.00000   0.00001   0.00000   0.00000  -0.00000   0.00000   0.00000   0.00000   0.00000   0.00000 ...
   0.00000   0.00000   0.27168   0.00000   0.00000  -0.05533   0.00000   0.00000   0.00000   0.00006   0.00000   0.00000 ...
  -0.00000   0.00001   0.00000   0.27163   0.00000   0.00000  -0.05532   0.00000   0.00000   0.00000   0.00006   0.00000 ...
   0.00000   0.00000   0.00000   0.00000   0.27168   0.00000   0.00000  -0.05533   0.00000   0.00000   0.00000   0.00006 ...
   0.00000   0.00000  -0.05533   0.00000   0.00000   0.01513   0.00000   0.00000   0.00000  -0.00001   0.00000   0.00000 ...
  -0.00000  -0.00000   0.00000  -0.05532   0.00000   0.00000   0.01513   0.00000   0.00000   0.00000  -0.00001   0.00000 ...
   0.00000   0.00000   0.00000   0.00000  -0.05533   0.00000   0.00000   0.01513   0.00000   0.00000   0.00000  -0.00001 ...
   0.00000   0.00000   0.00000   0.00000   0.00000   0.00000   0.00000   0.00000  -0.01140   0.00000   0.00000   0.00000 ...
   0.00000   0.00000   0.00006   0.00000   0.00000  -0.00001   0.00000   0.00000   0.00000  -0.01143   0.00000   0.00000 ...
  -0.00003   0.00000   0.00000   0.00006   0.00000   0.00000  -0.00001   0.00000   0.00000   0.00000  -0.01134   0.00000 ...
   0.00000   0.00000   0.00000   0.00000   0.00006   0.00000   0.00000  -0.00001   0.00000   0.00000   0.00000  -0.01143 ...
   ...  only 12  components have been written...


 Augmentation waves occupancies Rhoij:
 Atom #  1
   1.99711  -0.01623   0.00000   0.00000   0.00000   0.00000   0.00000   0.00000   0.00251   0.00000   0.00127   0.00000 ...
  -0.01623   0.11458   0.00000   0.00036   0.00000   0.00000  -0.00002   0.00000  -0.01579   0.00000  -0.00962   0.00000 ...
   0.00000   0.00000   2.00976   0.00000  -0.00168  -0.00505   0.00000   0.00026   0.00000   0.00053   0.00000   0.00098 ...
   0.00000   0.00036   0.00000   2.00831   0.00000   0.00000  -0.00482   0.00000   0.00095   0.00000  -0.00061   0.00000 ...
   0.00000   0.00000  -0.00168   0.00000   2.00976   0.00026   0.00000  -0.00505   0.00000   0.00098   0.00000   0.00053 ...
   0.00000   0.00000  -0.00505   0.00000   0.00026   0.00009   0.00000  -0.00001   0.00000  -0.00003   0.00000  -0.00006 ...
   0.00000  -0.00002   0.00000  -0.00482   0.00000   0.00000   0.00007   0.00000  -0.00006   0.00000   0.00004   0.00000 ...
   0.00000   0.00000   0.00026   0.00000  -0.00505  -0.00001   0.00000   0.00009   0.00000  -0.00006   0.00000  -0.00003 ...
   0.00251  -0.01579   0.00000   0.00095   0.00000   0.00000  -0.00006   0.00000   0.04425   0.00000   0.00949   0.00000 ...
   0.00000   0.00000   0.00053   0.00000   0.00098  -0.00003   0.00000  -0.00006   0.00000   0.03013   0.00000  -0.00039 ...
   0.00127  -0.00962   0.00000  -0.00061   0.00000   0.00000   0.00004   0.00000   0.00949   0.00000   0.02421   0.00000 ...
   0.00000   0.00000   0.00098   0.00000   0.00053  -0.00006   0.00000  -0.00003   0.00000  -0.00039   0.00000   0.03013 ...
   ...  only 12  components have been written...
 Atom #  9
   1.99242  -0.06846   0.00000  -0.00017   0.00000   0.00000  -0.00077   0.00000   0.00000   0.00000   0.00133   0.00000 ...
  -0.06846   1.05404   0.00000  -0.00235   0.00000   0.00000   0.03317   0.00000   0.00000   0.00000  -0.02445   0.00000 ...
   0.00000   0.00000   1.96533   0.00000   0.00000  -0.20949   0.00000   0.00000   0.00000   0.00137   0.00000   0.00000 ...
  -0.00017  -0.00235   0.00000   1.96625   0.00000   0.00000  -0.20416   0.00000   0.00000   0.00000  -0.00038   0.00000 ...
   0.00000   0.00000   0.00000   0.00000   1.96533   0.00000   0.00000  -0.20949   0.00000   0.00000   0.00000   0.00137 ...
   0.00000   0.00000  -0.20949   0.00000   0.00000   1.64768   0.00000   0.00000   0.00000  -0.02635   0.00000   0.00000 ...
  -0.00077   0.03317   0.00000  -0.20416   0.00000   0.00000   1.52447   0.00000   0.00000   0.00000   0.10397   0.00000 ...
   0.00000   0.00000   0.00000   0.00000  -0.20949   0.00000   0.00000   1.64768   0.00000   0.00000   0.00000  -0.02635 ...
   0.00000   0.00000   0.00000   0.00000   0.00000   0.00000   0.00000   0.00000   0.47323   0.00000   0.00000   0.00000 ...
   0.00000   0.00000   0.00137   0.00000   0.00000  -0.02635   0.00000   0.00000   0.00000   0.45966   0.00000   0.00000 ...
   0.00133  -0.02445   0.00000  -0.00038   0.00000   0.00000   0.10397   0.00000   0.00000   0.00000   1.34676   0.00000 ...
   0.00000   0.00000   0.00000   0.00000   0.00137   0.00000   0.00000  -0.02635   0.00000   0.00000   0.00000   0.45966 ...
   ...  only 12  components have been written...


================================================================================

 ----iterations are completed or convergence reached----

 Mean square residual over all n,k,spin=   13.651E-08; max=  11.130E-05
 reduced coordinates (array xred) for    9 atoms
       0.252290070220      0.252290070220      0.247709929780
       0.752290070220      0.752290070220      0.747709929780
       0.236576686490      0.236576686490      0.763423313510
       0.749181222830      0.749181222830      0.250818777170
       0.232809358220      0.769493581820      0.767190641780
       0.769493581820      0.232809358220      0.767190641780
       0.232809358220      0.769493581820      0.230506418180
       0.769493581820      0.232809358220      0.230506418180
       0.005056070151      0.005056070151     -0.005056070151
 rms dE/dt=  1.5633E-04; max dE/dt=  1.3340E-04; dE/dt below (all hartree)
    1      -0.000351668562     -0.000351668562      0.000000000000
    2      -0.000351668562     -0.000351668562      0.000000000000
    3       0.000120179335      0.000120179335      0.000000000000
    4      -0.000139105057     -0.000139105057      0.000000000000
    5       0.000092152090      0.000050908422     -0.000041243668
    6       0.000050908422      0.000092152090     -0.000041243668
    7       0.000133395759      0.000092152090      0.000041243668
    8       0.000092152090      0.000133395759      0.000041243668
    9      -0.000089661311     -0.000089661311      0.000000000000

 cartesian coordinates (angstrom) at end:
    1      2.85197986395046     2.85197986395046     2.87429168015931
    2      8.55593959185174     8.55593959185174     8.57069439163521
    3      5.70395972792150     5.70395972792150     2.69527215678724
    4      5.70395972788215     5.70395972788215     8.53527589823129
    5      8.76518492591555     5.70395972792179     5.70952118536412
    6      5.70395972792179     8.76518492591556     5.70952118536412
    7      5.70395972788059     2.64273452988683     5.70952118536412
    8      2.64273452988683     5.70395972788059     5.70952118536412
    9     -0.00000000000039    -0.00000000000039     0.05760282343400

 cartesian forces (hartree/bohr) at end:
    1      0.00000000000000    -0.00000000000000     0.00002809301761
    2     -0.00000000000000     0.00000000000000     0.00002809301761
    3      0.00000000000000    -0.00000000000000    -0.00001574011101
    4     -0.00000000000000     0.00000000000000     0.00000834656225
    5      0.00000382632597    -0.00000000000000    -0.00001313647154
    6     -0.00000000000000     0.00000382632597    -0.00001313647154
    7      0.00000000000000    -0.00000382632597    -0.00001313647154
    8     -0.00000382632597     0.00000000000000    -0.00001313647154
    9      0.00000000000000    -0.00000000000000     0.00000375339970
 frms,max,avg= 9.9233546E-06 2.8093018E-05   0.000E+00  0.000E+00  4.576E-06 h/b

 cartesian forces (eV/Angstrom) at end:
    1      0.00000000000000    -0.00000000000000     0.00144460092675
    2     -0.00000000000000     0.00000000000000     0.00144460092675
    3      0.00000000000000    -0.00000000000000    -0.00080938898290
    4     -0.00000000000000     0.00000000000000     0.00042919745129
    5      0.00019675757576    -0.00000000000000    -0.00067550446960
    6     -0.00000000000000     0.00019675757576    -0.00067550446960
    7      0.00000000000000    -0.00019675757576    -0.00067550446961
    8     -0.00019675757576     0.00000000000000    -0.00067550446961
    9      0.00000000000000    -0.00000000000000     0.00019300755653
 frms,max,avg= 5.1027937E-04 1.4446009E-03   0.000E+00  0.000E+00  2.353E-04 e/A
 length scales= 15.233602712000 15.233602712000 15.243697339000 bohr
              =  8.061275359905  8.061275359905  8.066617206443 angstroms
 prteigrs : about to open file Cs2TiI6o_DS2_EIG
 Fermi (or HOMO) energy (hartree) =  -0.05644   Average Vxc (hartree)=  -0.28348
 Eigenvalues (hartree) for nkpt= 163  k points:
 kpt#   1, nband= 42, wtk=  0.00058, kpt=  0.0000  0.0000  0.0000 (reduced coord)
  -1.86319   -1.05380   -1.05380   -1.05337   -0.79695   -0.79677   -0.55763   -0.54661
  -0.54522   -0.54424   -0.54424   -0.45202   -0.31439   -0.31439   -0.31416   -0.31217
  -0.31217   -0.31207   -0.18021   -0.14515   -0.14303   -0.14172   -0.14035   -0.14035
  -0.13524   -0.13524   -0.12815   -0.09617   -0.09255   -0.09255   -0.08053   -0.08053
  -0.07277   -0.06832   -0.05644   -0.05644    0.03178    0.03178    0.03497    0.10240
   0.12298    0.13155
 prteigrs : prtvol=0 or 1, do not print more k-points.


--- !EnergyTerms
iteration_state     : {dtset: 2, }
comment             : Components of total free energy in Hartree
kinetic             :  5.00816833506898E+01
hartree             :  4.18208464827544E+01
xc                  : -6.58213199510859E+01
Ewald energy        : -1.16820275954248E+02
psp_core            :  1.01802051383118E+01
local_psp           : -1.25913811954080E+02
spherical_terms     :  3.78512291157117E+01
total_energy        : -1.68621443771947E+02
total_energy_eV     : -4.58842283350585E+03
...


--- !EnergyTermsDC
iteration_state     : {dtset: 2, }
comment             : '"Double-counting" decomposition of free energy'
band_energy         : -2.74516064692933E+01
Ewald energy        : -1.16820275954248E+02
psp_core            :  1.01802051383118E+01
xc_dc               : -6.37742974569763E+01
spherical_terms     :  2.92445297822244E+01
total_energy_dc     : -1.68621444959982E+02
total_energy_dc_eV  : -4.58842286583393E+03
...


 Cartesian components of stress tensor (hartree/bohr^3)
  sigma(1 1)=  3.07194191E-06  sigma(3 2)=  2.74421833E-14
  sigma(2 2)=  3.07194191E-06  sigma(3 1)=  2.74412925E-14
  sigma(3 3)=  3.03711092E-06  sigma(2 1)= -5.48100337E-14

-Cartesian components of stress tensor (GPa)         [Pressure= -9.0038E-02 GPa]
- sigma(1 1)=  9.03796361E-02  sigma(3 2)=  8.07376771E-10
- sigma(2 2)=  9.03796361E-02  sigma(3 1)=  8.07350564E-10
- sigma(3 3)=  8.93548731E-02  sigma(2 1)= -1.61256659E-09

== END DATASET(S) ==============================================================
================================================================================
  
 -outvars: echo values of variables after computation  --------
            acell1     1.5233602722E+01  1.5233602722E+01  1.5243697338E+01 Bohr
            acell2     1.5233602712E+01  1.5233602712E+01  1.5243697339E+01 Bohr
              amu      1.32905430E+02  1.26904470E+02  9.12240000E+01
                       7.99040000E+01
           diemac      1.20000000E+01
             ecut      1.60000000E+01 Hartree
           etotal1    -1.6862144496E+02
           etotal2    -1.6862144496E+02
            fcart1    -2.8281447656E-21  2.9799381376E-21 -2.8064032395E-05
                      -1.9546480134E-21  2.1064413854E-21 -2.8064032395E-05
                       1.0161523692E-21 -8.6435899727E-22 -8.4304928008E-06
                       1.1400768392E-21 -9.8828346723E-22  1.5776467435E-05
                       3.7492147209E-06  3.0145389712E-17  1.3156122073E-05
                       3.0146765065E-17  3.7492147209E-06  1.3156122073E-05
                      -3.0145764006E-17 -3.7492147209E-06  1.3156122073E-05
                      -3.7492147209E-06 -3.0146292326E-17  1.3156122073E-05
                       1.0911969699E-21 -9.3940359792E-22 -3.8423981362E-06
            fcart2     5.7351375052E-22 -5.0122291233E-22  2.8093017609E-05
                      -1.9411212862E-21  2.0134121244E-21  2.8093017609E-05
                       5.5125014589E-22 -4.7895930770E-22 -1.5740111008E-05
                      -5.8564370588E-22  6.5793454407E-22  8.3465622468E-06
                       3.8263259688E-06 -2.5746831522E-17 -1.3136471539E-05
                      -2.5745359727E-17  3.8263259688E-06 -1.3136471539E-05
                       2.5746371110E-17 -3.8263259688E-06 -1.3136471539E-05
                      -3.8263259688E-06  2.5745432018E-17 -1.3136471539E-05
                       1.6317083470E-22 -9.0879996514E-23  3.7533996994E-06
-          fftalg         112
           istwfk        2    0    0    0    0    0    3    0    0    0
                         0    0    0    0    0    0    0    0    0    0
                         0    0    0    0    0    0    0    0    0    0
                         0    0    0    0    0    0    0    0    0    0
                         0    0    7    0    0    0    0    0    0    0
                       outvar_i_n : Printing only first  50 k-points.
              ixc     -101130
           jdtset        1    2
              kpt      0.00000000E+00  0.00000000E+00  0.00000000E+00
                       8.33333333E-02  0.00000000E+00  0.00000000E+00
                       1.66666667E-01  0.00000000E+00  0.00000000E+00
                       2.50000000E-01  0.00000000E+00  0.00000000E+00
                       3.33333333E-01  0.00000000E+00  0.00000000E+00
                       4.16666667E-01  0.00000000E+00  0.00000000E+00
                       5.00000000E-01  0.00000000E+00  0.00000000E+00
                       8.33333333E-02  8.33333333E-02  0.00000000E+00
                       1.66666667E-01  8.33333333E-02  0.00000000E+00
                       2.50000000E-01  8.33333333E-02  0.00000000E+00
                       3.33333333E-01  8.33333333E-02  0.00000000E+00
                       4.16666667E-01  8.33333333E-02  0.00000000E+00
                       5.00000000E-01  8.33333333E-02  0.00000000E+00
                      -4.16666667E-01  8.33333333E-02  0.00000000E+00
                      -3.33333333E-01  8.33333333E-02  0.00000000E+00
                      -2.50000000E-01  8.33333333E-02  0.00000000E+00
                      -1.66666667E-01  8.33333333E-02  0.00000000E+00
                      -8.33333333E-02  8.33333333E-02  0.00000000E+00
                       1.66666667E-01  1.66666667E-01  0.00000000E+00
                       2.50000000E-01  1.66666667E-01  0.00000000E+00
                       3.33333333E-01  1.66666667E-01  0.00000000E+00
                       4.16666667E-01  1.66666667E-01  0.00000000E+00
                       5.00000000E-01  1.66666667E-01  0.00000000E+00
                      -4.16666667E-01  1.66666667E-01  0.00000000E+00
                      -3.33333333E-01  1.66666667E-01  0.00000000E+00
                      -2.50000000E-01  1.66666667E-01  0.00000000E+00
                      -1.66666667E-01  1.66666667E-01  0.00000000E+00
                       2.50000000E-01  2.50000000E-01  0.00000000E+00
                       3.33333333E-01  2.50000000E-01  0.00000000E+00
                       4.16666667E-01  2.50000000E-01  0.00000000E+00
                       5.00000000E-01  2.50000000E-01  0.00000000E+00
                      -4.16666667E-01  2.50000000E-01  0.00000000E+00
                      -3.33333333E-01  2.50000000E-01  0.00000000E+00
                      -2.50000000E-01  2.50000000E-01  0.00000000E+00
                       3.33333333E-01  3.33333333E-01  0.00000000E+00
                       4.16666667E-01  3.33333333E-01  0.00000000E+00
                       5.00000000E-01  3.33333333E-01  0.00000000E+00
                      -4.16666667E-01  3.33333333E-01  0.00000000E+00
                      -3.33333333E-01  3.33333333E-01  0.00000000E+00
                       4.16666667E-01  4.16666667E-01  0.00000000E+00
                       5.00000000E-01  4.16666667E-01  0.00000000E+00
                      -4.16666667E-01  4.16666667E-01  0.00000000E+00
                       5.00000000E-01  5.00000000E-01  0.00000000E+00
                       8.33333333E-02  0.00000000E+00  8.33333333E-02
                       1.66666667E-01  0.00000000E+00  8.33333333E-02
                       2.50000000E-01  0.00000000E+00  8.33333333E-02
                       3.33333333E-01  0.00000000E+00  8.33333333E-02
                       4.16666667E-01  0.00000000E+00  8.33333333E-02
                       5.00000000E-01  0.00000000E+00  8.33333333E-02
                      -4.16666667E-01  0.00000000E+00  8.33333333E-02
                       outvar_i_n : Printing only first  50 k-points.
         kptrlatt       12    0    0      0   12    0      0    0   12
          kptrlen1     1.82803233E+02
          kptrlen2     1.82803233E+02
P           mkmem          28
            natom           9
            nband          42
           ndtset           2
            ngfft          60      60      60
          ngfftdg          90      90      90
             nkpt         163
            nstep        2500
             nsym           8
           ntypat           4
              occ      2.000000  2.000000  2.000000  2.000000  2.000000  2.000000
                       2.000000  2.000000  2.000000  2.000000  2.000000  2.000000
                       2.000000  2.000000  2.000000  2.000000  2.000000  2.000000
                       2.000000  2.000000  2.000000  2.000000  2.000000  2.000000
                       2.000000  2.000000  2.000000  2.000000  2.000000  2.000000
                       2.000000  2.000000  2.000000  2.000000  2.000000  2.000000
                       0.000000  0.000000  0.000000  0.000000  0.000000  0.000000
        pawecutdg      4.00000000E+01 Hartree
            prtwf           0
            rprim1     0.0000000000E+00  7.0757534872E-01  7.0663790294E-01
                       7.0757534872E-01  0.0000000000E+00  7.0663790294E-01
                       7.0710678119E-01  7.0710678119E-01  0.0000000000E+00
            rprim2     0.0000000000E+00  7.0757534921E-01  7.0663790246E-01
                       7.0757534921E-01  0.0000000000E+00  7.0663790246E-01
                       7.0710678119E-01  7.0710678119E-01  0.0000000000E+00
          spgroup         107
           strten1     3.0730467479E-06  3.0730467479E-06  3.0385298478E-06
                      -3.2793012883E-14 -3.2791330464E-14  6.5497437023E-14
           strten2     3.0719419077E-06  3.0719419077E-06  3.0371109162E-06
                       2.7442183305E-14  2.7441292542E-14 -5.4810033679E-14
           symrel      1  0  0   0  1  0   0  0  1       1  0 -1   0  1 -1   0  0 -1
                       0  1 -1   1  0 -1   0  0 -1       0  1  0   1  0  0   0  0  1
                       1  0  0   1  0 -1   1 -1  0       0  1  0   0  1 -1  -1  1  0
                       0  1 -1   0  1  0  -1  1  0       1  0 -1   1  0  0   1 -1  0
           toldfe      1.00000000E-08 Hartree
            typat1     1  1  2  4  4  4  4  4  3
            typat2     1  1  4  2  4  4  4  4  3
           useylm           1
              wtk        0.00058    0.00463    0.00463    0.00463    0.00463    0.00463
                         0.00231    0.00116    0.00463    0.00463    0.00463    0.00463
                         0.00463    0.00463    0.00463    0.00463    0.00463    0.00231
                         0.00116    0.00463    0.00463    0.00463    0.00463    0.00463
                         0.00463    0.00463    0.00231    0.00116    0.00463    0.00463
                         0.00463    0.00463    0.00463    0.00231    0.00116    0.00463
                         0.00463    0.00463    0.00231    0.00116    0.00463    0.00231
                         0.00058    0.00231    0.00926    0.00926    0.00926    0.00926
                         0.00926    0.00926
                       outvars : Printing only first  50 k-points.
           xangst1     2.8519798638E+00  2.8519798638E+00  2.8221110366E+00
                       8.5559395914E+00  8.5559395914E+00  8.5185137557E+00
                       5.7039597276E+00  5.7039597276E+00  2.8575295251E+00
                       5.7039597276E+00  5.7039597276E+00  8.6975332794E+00
                       8.7651849262E+00  5.7039597276E+00  5.6832842452E+00
                       5.7039597276E+00  8.7651849262E+00  5.6832842452E+00
                       5.7039597276E+00  2.6427345290E+00  5.6832842452E+00
                       2.6427345290E+00  5.7039597276E+00  5.6832842452E+00
                      -4.6378268575E-13 -4.6378268575E-13 -5.7602824806E-02
           xangst2     2.8519798640E+00  2.8519798640E+00  2.8742916802E+00
                       8.5559395919E+00  8.5559395919E+00  8.5706943916E+00
                       5.7039597279E+00  5.7039597279E+00  2.6952721568E+00
                       5.7039597279E+00  5.7039597279E+00  8.5352758982E+00
                       8.7651849259E+00  5.7039597279E+00  5.7095211854E+00
                       5.7039597279E+00  8.7651849259E+00  5.7095211854E+00
                       5.7039597279E+00  2.6427345299E+00  5.7095211854E+00
                       2.6427345299E+00  5.7039597279E+00  5.7095211854E+00
                      -3.8811018971E-13 -3.8811018971E-13  5.7602823434E-02
            xcart1     5.3894608791E+00  5.3894608791E+00  5.3330169757E+00
                       1.6168382637E+01  1.6168382637E+01  1.6097658057E+01
                       1.0778921758E+01  1.0778921758E+01  5.3999482191E+00
                       1.0778921758E+01  1.0778921758E+01  1.6435955930E+01
                       1.6563799015E+01  1.0778921758E+01  1.0739850759E+01
                       1.0778921758E+01  1.6563799015E+01  1.0739850759E+01
                       1.0778921758E+01  4.9940445018E+00  1.0739850759E+01
                       4.9940445018E+00  1.0778921758E+01  1.0739850759E+01
                      -8.7642226124E-13 -8.7642226124E-13 -1.0885356336E-01
            xcart2     5.3894608794E+00  5.3894608794E+00  5.4316241015E+00
                       1.6168382638E+01  1.6168382638E+01  1.6196265169E+01
                       1.0778921759E+01  1.0778921759E+01  5.0933262299E+00
                       1.0778921759E+01  1.0778921759E+01  1.6129333916E+01
                       1.6563799014E+01  1.0778921759E+01  1.0789431390E+01
                       1.0778921759E+01  1.6563799014E+01  1.0789431390E+01
                       1.0778921759E+01  4.9940445034E+00  1.0789431390E+01
                       4.9940445034E+00  1.0778921759E+01  1.0789431390E+01
                      -7.3342196793E-13 -7.3342196793E-13  1.0885356077E-01
             xred1     2.4770992991E-01  2.4770992991E-01  2.5229007009E-01
                       7.4770992991E-01  7.4770992991E-01  7.5229007009E-01
                       2.5081877687E-01  2.5081877687E-01  7.4918122313E-01
                       7.6342331365E-01  7.6342331365E-01  2.3657668635E-01
                       2.3050641812E-01  7.6719064185E-01  7.6949358188E-01
                       7.6719064185E-01  2.3050641812E-01  7.6949358188E-01
                       2.3050641812E-01  7.6719064185E-01  2.3280935815E-01
                       7.6719064185E-01  2.3050641812E-01  2.3280935815E-01
                      -5.0560702646E-03 -5.0560702646E-03  5.0560702646E-03
             xred2     2.5229007022E-01  2.5229007022E-01  2.4770992978E-01
                       7.5229007022E-01  7.5229007022E-01  7.4770992978E-01
                       2.3657668649E-01  2.3657668649E-01  7.6342331351E-01
                       7.4918122283E-01  7.4918122283E-01  2.5081877717E-01
                       2.3280935822E-01  7.6949358182E-01  7.6719064178E-01
                       7.6949358182E-01  2.3280935822E-01  7.6719064178E-01
                       2.3280935822E-01  7.6949358182E-01  2.3050641818E-01
                       7.6949358182E-01  2.3280935822E-01  2.3050641818E-01
                       5.0560701509E-03  5.0560701509E-03 -5.0560701509E-03
            znucl       55.00000   53.00000   40.00000   35.00000

================================================================================


- Timing analysis has been suppressed with timopt=0



================================================================================

 Suggested references for the acknowledgment of ABINIT usage.

 The users of ABINIT have little formal obligations with respect to the ABINIT group
 (those specified in the GNU General Public License, http://www.gnu.org/copyleft/gpl.txt).
 However, it is common practice in the scientific literature,
 to acknowledge the efforts of people that have made the research possible.
 In this spirit, please find below suggested citations of work written by ABINIT developers,
 corresponding to implementations inside of ABINIT that you have used in the present run.
 Note also that it will be of great value to readers of publications presenting these results,
 to read papers enabling them to understand the theoretical formalism and details
 of the ABINIT implementation.
 For information on why they are suggested, see also https://docs.abinit.org/theory/acknowledgments.
-
- [1] Implementation of the Projector Augmented-Wave Method in the ABINIT code.
- M. Torrent, F. Jollet, F. Bottin, G. Zerah, and X. Gonze Comput. Mat. Science 42, 337, (2008).
- Comment: PAW calculations. Strong suggestion to cite this paper.
- DOI and bibtex: see https://docs.abinit.org/theory/bibliography/#torrent2008
-
- [2] Libxc: A library of exchange and correlation functionals for density functional theory.
- M.A.L. Marques, M.J.T. Oliveira, T. Burnus, Computer Physics Communications 183, 2227 (2012).
- Comment: to be cited when LibXC is used (negative value of ixc)
- Strong suggestion to cite this paper.
- DOI and bibtex: see https://docs.abinit.org/theory/bibliography/#marques2012
-
- [3] The Abinit project: Impact, environment and recent developments.
- Computer Phys. Comm. 248, 107042 (2020).
- X.Gonze, B. Amadon, G. Antonius, F.Arnardi, L.Baguet, J.-M.Beuken,
- J.Bieder, F.Bottin, J.Bouchet, E.Bousquet, N.Brouwer, F.Bruneval,
- G.Brunin, T.Cavignac, J.-B. Charraud, Wei Chen, M.Cote, S.Cottenier,
- J.Denier, G.Geneste, Ph.Ghosez, M.Giantomassi, Y.Gillet, O.Gingras,
- D.R.Hamann, G.Hautier, Xu He, N.Helbig, N.Holzwarth, Y.Jia, F.Jollet,
- W.Lafargue-Dit-Hauret, K.Lejaeghere, M.A.L.Marques, A.Martin, C.Martins,
- H.P.C. Miranda, F.Naccarato, K. Persson, G.Petretto, V.Planes, Y.Pouillon,
- S.Prokhorenko, F.Ricci, G.-M.Rignanese, A.H.Romero, M.M.Schmitt, M.Torrent,
- M.J.van Setten, B.Van Troeye, M.J.Verstraete, G.Zerah and J.W.Zwanzig
- Comment: the fifth generic paper describing the ABINIT project.
- Note that a version of this paper, that is not formatted for Computer Phys. Comm. 
- is available at https://www.abinit.org/sites/default/files/ABINIT20.pdf .
- The licence allows the authors to put it on the Web.
- DOI and bibtex: see https://docs.abinit.org/theory/bibliography/#gonze2020
-
- [4] ABINIT: Overview, and focus on selected capabilities
- J. Chem. Phys. 152, 124102 (2020).
- A. Romero, D.C. Allan, B. Amadon, G. Antonius, T. Applencourt, L.Baguet,
- J.Bieder, F.Bottin, J.Bouchet, E.Bousquet, F.Bruneval,
- G.Brunin, D.Caliste, M.Cote,
- J.Denier, C. Dreyer, Ph.Ghosez, M.Giantomassi, Y.Gillet, O.Gingras,
- D.R.Hamann, G.Hautier, F.Jollet, G. Jomard,
- A.Martin, 
- H.P.C. Miranda, F.Naccarato, G.Petretto, N.A. Pike, V.Planes,
- S.Prokhorenko, T. Rangel, F.Ricci, G.-M.Rignanese, M.Royo, M.Stengel, M.Torrent,
- M.J.van Setten, B.Van Troeye, M.J.Verstraete, J.Wiktor, J.W.Zwanziger, and X.Gonze.
- Comment: a global overview of ABINIT, with focus on selected capabilities .
- Note that a version of this paper, that is not formatted for J. Chem. Phys 
- is available at https://www.abinit.org/sites/default/files/ABINIT20_JPC.pdf .
- The licence allows the authors to put it on the Web.
- DOI and bibtex: see https://docs.abinit.org/theory/bibliography/#romero2020
-
- [5] Recent developments in the ABINIT software package.
- Computer Phys. Comm. 205, 106 (2016).
- X.Gonze, F.Jollet, F.Abreu Araujo, D.Adams, B.Amadon, T.Applencourt,
- C.Audouze, J.-M.Beuken, J.Bieder, A.Bokhanchuk, E.Bousquet, F.Bruneval
- D.Caliste, M.Cote, F.Dahm, F.Da Pieve, M.Delaveau, M.Di Gennaro,
- B.Dorado, C.Espejo, G.Geneste, L.Genovese, A.Gerossier, M.Giantomassi,
- Y.Gillet, D.R.Hamann, L.He, G.Jomard, J.Laflamme Janssen, S.Le Roux,
- A.Levitt, A.Lherbier, F.Liu, I.Lukacevic, A.Martin, C.Martins,
- M.J.T.Oliveira, S.Ponce, Y.Pouillon, T.Rangel, G.-M.Rignanese,
- A.H.Romero, B.Rousseau, O.Rubel, A.A.Shukri, M.Stankovski, M.Torrent,
- M.J.Van Setten, B.Van Troeye, M.J.Verstraete, D.Waroquier, J.Wiktor,
- B.Xu, A.Zhou, J.W.Zwanziger.
- Comment: the fourth generic paper describing the ABINIT project.
- Note that a version of this paper, that is not formatted for Computer Phys. Comm. 
- is available at https://www.abinit.org/sites/default/files/ABINIT16.pdf .
- The licence allows the authors to put it on the Web.
- DOI and bibtex: see https://docs.abinit.org/theory/bibliography/#gonze2016
-
- Proc.   0 individual time (sec): cpu=       1520.0  wall=       1520.1

================================================================================

 Calculation completed.
.Delivered   0 WARNINGs and   0 COMMENTs to log file.
+Overall time at end (sec) : cpu=       9120.1  wall=       9120.3
