
.Version 9.2.2 of ABINIT 
.(MPI version, prepared for a x86_64_linux_gnu9.3 computer) 

.Copyright (C) 1998-2020 ABINIT group . 
 ABINIT comes with ABSOLUTELY NO WARRANTY.
 It is free software, and you are welcome to redistribute it
 under certain conditions (GNU General Public License,
 see ~abinit/COPYING or http://www.gnu.org/copyleft/gpl.txt).

 ABINIT is a project of the Universite Catholique de Louvain,
 Corning Inc. and other collaborators, see ~abinit/doc/developers/contributors.txt .
 Please read https://docs.abinit.org/theory/acknowledgments for suggested
 acknowledgments of the ABINIT effort.
 For more information, see https://www.abinit.org .

.Starting date : Mon  7 Nov 2022.
- ( at 14h50 )
  
- input  file    -> Cs2TiI6.in
- output file    -> Cs2TiI6.out
- root for input  files -> Cs2TiI6i
- root for output files -> Cs2TiI6o

- inpspheads : Reading pseudopotential header in XML form from 
-   ../../../Psps_for_tests/ATOMICDATA/Cs.GGA_PBE-JTH.xml
- inpspheads : Reading pseudopotential header in XML form from 
-   ../../../Psps_for_tests/ATOMICDATA/Cl.GGA_PBE-JTH.xml
- inpspheads : Reading pseudopotential header in XML form from 
-   ../../../Psps_for_tests/ATOMICDATA/Hf.GGA_PBE-JTH.xml

 DATASET    1 : space group Fm -3 m (#225); Bravais cF (face-center cubic)
================================================================================
 Values of the parameters that define the memory need for DATASET  1.
     intxc =       0    ionmov =       2      iscf =      17    lmnmax =      18
     lnmax =       6     mgfft =      60  mpssoang =       3    mqgrid =    3613
     natom =       9  nloc_mem =       2    nspden =       1   nspinor =       1
    nsppol =       1      nsym =      48    n1xccc =       1    ntypat =       3
    occopt =       1   xclevel =       2
-    mband =          42        mffmem =           1         mkmem =           2
       mpw =        8129          nfft =      216000          nkpt =          10
Pmy_natom=         2
 PAW method is used; the additional fine FFT grid is defined by:
   mgfftf=        90    nfftf =    729000
================================================================================
P This job should need less than                     239.977 Mbytes of memory.
  Rough estimation (10% accuracy) of disk space for files :
_ WF disk file :     52.098 Mbytes ; DEN or POT disk file :      5.564 Mbytes.
================================================================================


 DATASET    2 : space group Fm -3 m (#225); Bravais cF (face-center cubic)
================================================================================
 Values of the parameters that define the memory need for DATASET  2.
     intxc =       0    ionmov =       2      iscf =      17    lmnmax =      18
     lnmax =       6     mgfft =      60  mpssoang =       3    mqgrid =    3609
     natom =       9  nloc_mem =       2    nspden =       1   nspinor =       1
    nsppol =       1      nsym =      48    n1xccc =       1    ntypat =       3
    occopt =       1   xclevel =       2
-    mband =          42        mffmem =           1         mkmem =           2
       mpw =        8102          nfft =      216000          nkpt =          10
Pmy_natom=         2
 PAW method is used; the additional fine FFT grid is defined by:
   mgfftf=        90    nfftf =    729000
================================================================================
P This job should need less than                     240.004 Mbytes of memory.
  Rough estimation (10% accuracy) of disk space for files :
_ WF disk file :     51.925 Mbytes ; DEN or POT disk file :      5.564 Mbytes.
================================================================================


 DATASET    3 : space group Fm -3 m (#225); Bravais cF (face-center cubic)
================================================================================
 Values of the parameters that define the memory need for DATASET  3.
     intxc =       0    ionmov =       2      iscf =      17    lmnmax =      18
     lnmax =       6     mgfft =      60  mpssoang =       3    mqgrid =    3606
     natom =       9  nloc_mem =       2    nspden =       1   nspinor =       1
    nsppol =       1      nsym =      48    n1xccc =       1    ntypat =       3
    occopt =       1   xclevel =       2
-    mband =          42        mffmem =           1         mkmem =           2
       mpw =        8084          nfft =      216000          nkpt =          10
Pmy_natom=         2
 PAW method is used; the additional fine FFT grid is defined by:
   mgfftf=        90    nfftf =    729000
================================================================================
P This job should need less than                     240.045 Mbytes of memory.
  Rough estimation (10% accuracy) of disk space for files :
_ WF disk file :     51.810 Mbytes ; DEN or POT disk file :      5.564 Mbytes.
================================================================================


 DATASET    4 : space group Fm -3 m (#225); Bravais cF (face-center cubic)
================================================================================
 Values of the parameters that define the memory need for DATASET  4.
     intxc =       0    ionmov =       2      iscf =      17    lmnmax =      18
     lnmax =       6     mgfft =      60  mpssoang =       3    mqgrid =    3602
     natom =       9  nloc_mem =       2    nspden =       1   nspinor =       1
    nsppol =       1      nsym =      48    n1xccc =       1    ntypat =       3
    occopt =       1   xclevel =       2
-    mband =          42        mffmem =           1         mkmem =           2
       mpw =        8050          nfft =      216000          nkpt =          10
Pmy_natom=         2
 PAW method is used; the additional fine FFT grid is defined by:
   mgfftf=        90    nfftf =    729000
================================================================================
P This job should need less than                     240.062 Mbytes of memory.
  Rough estimation (10% accuracy) of disk space for files :
_ WF disk file :     51.592 Mbytes ; DEN or POT disk file :      5.564 Mbytes.
================================================================================


 DATASET    5 : space group Fm -3 m (#225); Bravais cF (face-center cubic)
================================================================================
 Values of the parameters that define the memory need for DATASET  5.
     intxc =       0    ionmov =       2      iscf =      17    lmnmax =      18
     lnmax =       6     mgfft =      60  mpssoang =       3    mqgrid =    3599
     natom =       9  nloc_mem =       2    nspden =       1   nspinor =       1
    nsppol =       1      nsym =      48    n1xccc =       1    ntypat =       3
    occopt =       1   xclevel =       2
-    mband =          42        mffmem =           1         mkmem =           2
       mpw =        8029          nfft =      216000          nkpt =          10
Pmy_natom=         2
 PAW method is used; the additional fine FFT grid is defined by:
   mgfftf=        90    nfftf =    729000
================================================================================
P This job should need less than                     240.099 Mbytes of memory.
  Rough estimation (10% accuracy) of disk space for files :
_ WF disk file :     51.457 Mbytes ; DEN or POT disk file :      5.564 Mbytes.
================================================================================


 DATASET    6 : space group Fm -3 m (#225); Bravais cF (face-center cubic)
================================================================================
 Values of the parameters that define the memory need for DATASET  6.
     intxc =       0    ionmov =       2      iscf =      17    lmnmax =      18
     lnmax =       6     mgfft =      60  mpssoang =       3    mqgrid =    3595
     natom =       9  nloc_mem =       2    nspden =       1   nspinor =       1
    nsppol =       1      nsym =      48    n1xccc =       1    ntypat =       3
    occopt =       1   xclevel =       2
-    mband =          42        mffmem =           1         mkmem =           2
       mpw =        8013          nfft =      216000          nkpt =          10
Pmy_natom=         2
 PAW method is used; the additional fine FFT grid is defined by:
   mgfftf=        90    nfftf =    729000
================================================================================
P This job should need less than                     240.143 Mbytes of memory.
  Rough estimation (10% accuracy) of disk space for files :
_ WF disk file :     51.355 Mbytes ; DEN or POT disk file :      5.564 Mbytes.
================================================================================


 DATASET    7 : space group Fm -3 m (#225); Bravais cF (face-center cubic)
================================================================================
 Values of the parameters that define the memory need for DATASET  7.
     intxc =       0    ionmov =       2      iscf =      17    lmnmax =      18
     lnmax =       6     mgfft =      60  mpssoang =       3    mqgrid =    3591
     natom =       9  nloc_mem =       2    nspden =       1   nspinor =       1
    nsppol =       1      nsym =      48    n1xccc =       1    ntypat =       3
    occopt =       1   xclevel =       2
-    mband =          42        mffmem =           1         mkmem =           2
       mpw =        7991          nfft =      216000          nkpt =          10
Pmy_natom=         2
 PAW method is used; the additional fine FFT grid is defined by:
   mgfftf=        90    nfftf =    729000
================================================================================
P This job should need less than                     240.181 Mbytes of memory.
  Rough estimation (10% accuracy) of disk space for files :
_ WF disk file :     51.214 Mbytes ; DEN or POT disk file :      5.564 Mbytes.
================================================================================


 DATASET    8 : space group Fm -3 m (#225); Bravais cF (face-center cubic)
================================================================================
 Values of the parameters that define the memory need for DATASET  8.
     intxc =       0    ionmov =       2      iscf =      17    lmnmax =      18
     lnmax =       6     mgfft =      60  mpssoang =       3    mqgrid =    3588
     natom =       9  nloc_mem =       2    nspden =       1   nspinor =       1
    nsppol =       1      nsym =      48    n1xccc =       1    ntypat =       3
    occopt =       1   xclevel =       2
-    mband =          42        mffmem =           1         mkmem =           2
       mpw =        7959          nfft =      216000          nkpt =          10
Pmy_natom=         2
 PAW method is used; the additional fine FFT grid is defined by:
   mgfftf=        90    nfftf =    729000
================================================================================
P This job should need less than                     240.202 Mbytes of memory.
  Rough estimation (10% accuracy) of disk space for files :
_ WF disk file :     51.009 Mbytes ; DEN or POT disk file :      5.564 Mbytes.
================================================================================


 DATASET    9 : space group Fm -3 m (#225); Bravais cF (face-center cubic)
================================================================================
 Values of the parameters that define the memory need for DATASET  9.
     intxc =       0    ionmov =       2      iscf =      17    lmnmax =      18
     lnmax =       6     mgfft =      60  mpssoang =       3    mqgrid =    3584
     natom =       9  nloc_mem =       2    nspden =       1   nspinor =       1
    nsppol =       1      nsym =      48    n1xccc =       1    ntypat =       3
    occopt =       1   xclevel =       2
-    mband =          42        mffmem =           1         mkmem =           2
       mpw =        7939          nfft =      216000          nkpt =          10
Pmy_natom=         2
 PAW method is used; the additional fine FFT grid is defined by:
   mgfftf=        90    nfftf =    729000
================================================================================
P This job should need less than                     240.242 Mbytes of memory.
  Rough estimation (10% accuracy) of disk space for files :
_ WF disk file :     50.881 Mbytes ; DEN or POT disk file :      5.564 Mbytes.
================================================================================


 DATASET   10 : space group Fm -3 m (#225); Bravais cF (face-center cubic)
================================================================================
 Values of the parameters that define the memory need for DATASET 10.
     intxc =       0    ionmov =       2      iscf =      17    lmnmax =      18
     lnmax =       6     mgfft =      60  mpssoang =       3    mqgrid =    3580
     natom =       9  nloc_mem =       2    nspden =       1   nspinor =       1
    nsppol =       1      nsym =      48    n1xccc =       1    ntypat =       3
    occopt =       1   xclevel =       2
-    mband =          42        mffmem =           1         mkmem =           2
       mpw =        7912          nfft =      216000          nkpt =          10
Pmy_natom=         2
 PAW method is used; the additional fine FFT grid is defined by:
   mgfftf=        90    nfftf =    729000
================================================================================
P This job should need less than                     240.270 Mbytes of memory.
  Rough estimation (10% accuracy) of disk space for files :
_ WF disk file :     50.708 Mbytes ; DEN or POT disk file :      5.564 Mbytes.
================================================================================


 DATASET   11 : space group Fm -3 m (#225); Bravais cF (face-center cubic)
================================================================================
 Values of the parameters that define the memory need for DATASET 11.
     intxc =       0    ionmov =       2      iscf =      17    lmnmax =      18
     lnmax =       6     mgfft =      60  mpssoang =       3    mqgrid =    3577
     natom =       9  nloc_mem =       2    nspden =       1   nspinor =       1
    nsppol =       1      nsym =      48    n1xccc =       1    ntypat =       3
    occopt =       1   xclevel =       2
-    mband =          42        mffmem =           1         mkmem =           2
       mpw =        7888          nfft =      216000          nkpt =          10
Pmy_natom=         2
 PAW method is used; the additional fine FFT grid is defined by:
   mgfftf=        90    nfftf =    729000
================================================================================
P This job should need less than                     240.305 Mbytes of memory.
  Rough estimation (10% accuracy) of disk space for files :
_ WF disk file :     50.554 Mbytes ; DEN or POT disk file :      5.564 Mbytes.
================================================================================


 DATASET   12 : space group Fm -3 m (#225); Bravais cF (face-center cubic)
================================================================================
 Values of the parameters that define the memory need for DATASET 12.
     intxc =       0    ionmov =       2      iscf =      17    lmnmax =      18
     lnmax =       6     mgfft =      60  mpssoang =       3    mqgrid =    3573
     natom =       9  nloc_mem =       2    nspden =       1   nspinor =       1
    nsppol =       1      nsym =      48    n1xccc =       1    ntypat =       3
    occopt =       1   xclevel =       2
-    mband =          42        mffmem =           1         mkmem =           2
       mpw =        7867          nfft =      216000          nkpt =          10
Pmy_natom=         2
 PAW method is used; the additional fine FFT grid is defined by:
   mgfftf=        90    nfftf =    729000
================================================================================
P This job should need less than                     240.344 Mbytes of memory.
  Rough estimation (10% accuracy) of disk space for files :
_ WF disk file :     50.419 Mbytes ; DEN or POT disk file :      5.564 Mbytes.
================================================================================


 DATASET   13 : space group Fm -3 m (#225); Bravais cF (face-center cubic)
================================================================================
 Values of the parameters that define the memory need for DATASET 13.
     intxc =       0    ionmov =       2      iscf =      17    lmnmax =      18
     lnmax =       6     mgfft =      60  mpssoang =       3    mqgrid =    3570
     natom =       9  nloc_mem =       2    nspden =       1   nspinor =       1
    nsppol =       1      nsym =      48    n1xccc =       1    ntypat =       3
    occopt =       1   xclevel =       2
-    mband =          42        mffmem =           1         mkmem =           2
       mpw =        7845          nfft =      216000          nkpt =          10
Pmy_natom=         2
 PAW method is used; the additional fine FFT grid is defined by:
   mgfftf=        90    nfftf =    729000
================================================================================
P This job should need less than                     240.382 Mbytes of memory.
  Rough estimation (10% accuracy) of disk space for files :
_ WF disk file :     50.278 Mbytes ; DEN or POT disk file :      5.564 Mbytes.
================================================================================

--------------------------------------------------------------------------------
------------- Echo of variables that govern the present computation ------------
--------------------------------------------------------------------------------
-
- outvars: echo of selected default values                                      
-   iomode0 =  0 , fftalg0 =112 , wfoptalg0 = 10
-
- outvars: echo of global parameters not present in the input file              
-  max_nthreads =    0
-
 -outvars: echo values of preprocessed input variables --------
            acell1     1.3513275032E+01  1.3513275032E+01  1.3513275032E+01 Bohr
            acell2     1.3499748230E+01  1.3499748230E+01  1.3499748230E+01 Bohr
            acell3     1.3486221428E+01  1.3486221428E+01  1.3486221428E+01 Bohr
            acell4     1.3472694627E+01  1.3472694627E+01  1.3472694627E+01 Bohr
            acell5     1.3459167825E+01  1.3459167825E+01  1.3459167825E+01 Bohr
            acell6     1.3445641023E+01  1.3445641023E+01  1.3445641023E+01 Bohr
            acell7     1.3432114221E+01  1.3432114221E+01  1.3432114221E+01 Bohr
            acell8     1.3418587419E+01  1.3418587419E+01  1.3418587419E+01 Bohr
            acell9     1.3405060617E+01  1.3405060617E+01  1.3405060617E+01 Bohr
            acell10    1.3391533816E+01  1.3391533816E+01  1.3391533816E+01 Bohr
            acell11    1.3378007014E+01  1.3378007014E+01  1.3378007014E+01 Bohr
            acell12    1.3364480212E+01  1.3364480212E+01  1.3364480212E+01 Bohr
            acell13    1.3350953410E+01  1.3350953410E+01  1.3350953410E+01 Bohr
              amu      1.32905430E+02  3.54527000E+01  1.78490000E+02
           diemac      1.20000000E+01
          dilatmx      1.15000000E+00
             ecut      1.60000000E+01 Hartree
           ecutsm      5.00000000E-01 Hartree
-          fftalg         112
          getxred1          0
          getxred2         -1
          getxred3         -1
          getxred4         -1
          getxred5         -1
          getxred6         -1
          getxred7         -1
          getxred8         -1
          getxred9         -1
          getxred10        -1
          getxred11        -1
          getxred12        -1
          getxred13        -1
           ionmov           2
              ixc     -101130
           jdtset        1    2    3    4    5    6    7    8    9   10
                        11   12   13
              kpt     -1.25000000E-01 -2.50000000E-01  0.00000000E+00
                      -1.25000000E-01  5.00000000E-01  0.00000000E+00
                      -2.50000000E-01 -3.75000000E-01  0.00000000E+00
                      -1.25000000E-01 -3.75000000E-01  1.25000000E-01
                      -1.25000000E-01  2.50000000E-01  0.00000000E+00
                      -2.50000000E-01  3.75000000E-01  0.00000000E+00
                      -3.75000000E-01  5.00000000E-01  0.00000000E+00
                      -2.50000000E-01  5.00000000E-01  1.25000000E-01
                      -1.25000000E-01  0.00000000E+00  0.00000000E+00
                      -3.75000000E-01  0.00000000E+00  0.00000000E+00
         kptrlatt        4   -4    4     -4    4    4     -4   -4    4
          kptrlen1     7.64426273E+01
          kptrlen2     7.63661081E+01
          kptrlen3     7.62895890E+01
          kptrlen4     7.62130699E+01
          kptrlen5     7.61365507E+01
          kptrlen6     7.60600316E+01
          kptrlen7     7.59835124E+01
          kptrlen8     7.59069933E+01
          kptrlen9     7.58304741E+01
          kptrlen10    7.57539550E+01
          kptrlen11    7.56774358E+01
          kptrlen12    7.56009167E+01
          kptrlen13    7.55243975E+01
P           mkmem           2
            natom           9
            nband          42
           ndtset          13
            ngfft          60      60      60
          ngfftdg          90      90      90
             nkpt          10
            nstep        2500
             nsym          48
            ntime        1000
           ntypat           3
              occ      2.000000  2.000000  2.000000  2.000000  2.000000  2.000000
                       2.000000  2.000000  2.000000  2.000000  2.000000  2.000000
                       2.000000  2.000000  2.000000  2.000000  2.000000  2.000000
                       2.000000  2.000000  2.000000  2.000000  2.000000  2.000000
                       2.000000  2.000000  2.000000  2.000000  2.000000  2.000000
                       2.000000  2.000000  2.000000  2.000000  2.000000  2.000000
                       0.000000  0.000000  0.000000  0.000000  0.000000  0.000000
          optcell           3
        optforces           1
        pawecutdg      4.00000000E+01 Hartree
            prtwf           0
            rprim      0.0000000000E+00  7.0710678119E-01  7.0710678119E-01
                       7.0710678119E-01  0.0000000000E+00  7.0710678119E-01
                       7.0710678119E-01  7.0710678119E-01  0.0000000000E+00
           shiftk      5.00000000E-01  5.00000000E-01  5.00000000E-01
          spgroup         225
           symrel      1  0  0   0  1  0   0  0  1      -1  0  0   0 -1  0   0  0 -1
                       0 -1  1   0 -1  0   1 -1  0       0  1 -1   0  1  0  -1  1  0
                      -1  0  0  -1  0  1  -1  1  0       1  0  0   1  0 -1   1 -1  0
                       0  1 -1   1  0 -1   0  0 -1       0 -1  1  -1  0  1   0  0  1
                      -1  0  0  -1  1  0  -1  0  1       1  0  0   1 -1  0   1  0 -1
                       0 -1  1   1 -1  0   0 -1  0       0  1 -1  -1  1  0   0  1  0
                       1  0  0   0  0  1   0  1  0      -1  0  0   0  0 -1   0 -1  0
                       0  1 -1   0  0 -1   1  0 -1       0 -1  1   0  0  1  -1  0  1
                      -1  0  1  -1  1  0  -1  0  0       1  0 -1   1 -1  0   1  0  0
                       0 -1  0   1 -1  0   0 -1  1       0  1  0  -1  1  0   0  1 -1
                       1  0 -1   0  0 -1   0  1 -1      -1  0  1   0  0  1   0 -1  1
                       0  1  0   0  0  1   1  0  0       0 -1  0   0  0 -1  -1  0  0
                       1  0 -1   0  1 -1   0  0 -1      -1  0  1   0 -1  1   0  0  1
                       0 -1  0   0 -1  1   1 -1  0       0  1  0   0  1 -1  -1  1  0
                      -1  0  1  -1  0  0  -1  1  0       1  0 -1   1  0  0   1 -1  0
                       0  1  0   1  0  0   0  0  1       0 -1  0  -1  0  0   0  0 -1
                       0  0 -1   0  1 -1   1  0 -1       0  0  1   0 -1  1  -1  0  1
                       1 -1  0   0 -1  1   0 -1  0      -1  1  0   0  1 -1   0  1  0
                       0  0  1   1  0  0   0  1  0       0  0 -1  -1  0  0   0 -1  0
                      -1  1  0  -1  0  0  -1  0  1       1 -1  0   1  0  0   1  0 -1
                       0  0  1   0  1  0   1  0  0       0  0 -1   0 -1  0  -1  0  0
                       1 -1  0   0 -1  0   0 -1  1      -1  1  0   0  1  0   0  1 -1
                       0  0 -1   1  0 -1   0  1 -1       0  0  1  -1  0  1   0 -1  1
                      -1  1  0  -1  0  1  -1  0  0       1 -1  0   1  0 -1   1  0  0
           toldff      1.00000000E-08
           tolmxf      1.00000000E-05
            typat      1  1  2  2  2  2  2  2  3
           useylm           1
              wtk        0.09375    0.09375    0.09375    0.18750    0.09375    0.09375
                         0.09375    0.18750    0.03125    0.03125
           xangst1     2.5282310079E+00  2.5282310079E+00  2.5282310079E+00
                       7.5846930238E+00  7.5846930238E+00  7.5846930238E+00
                       5.0564620159E+00  7.6641851567E+00  5.0564620159E+00
                       5.0564620159E+00  5.0564620159E+00  2.4487388750E+00
                       5.0564620159E+00  5.0564620159E+00  7.6641851567E+00
                       5.0564620159E+00  2.4487388750E+00  5.0564620159E+00
                       7.6641851567E+00  5.0564620159E+00  5.0564620159E+00
                       2.4487388750E+00  5.0564620159E+00  5.0564620159E+00
                       8.6553636066E-20 -6.9552455886E-19  1.6345614709E-19
           xangst2     2.5257002462E+00  2.5257002462E+00  2.5257002462E+00
                       7.5771007385E+00  7.5771007385E+00  7.5771007385E+00
                       5.0514004923E+00  7.6565132997E+00  5.0514004923E+00
                       5.0514004923E+00  5.0514004923E+00  2.4462876850E+00
                       5.0514004923E+00  5.0514004923E+00  7.6565132997E+00
                       5.0514004923E+00  2.4462876850E+00  5.0514004923E+00
                       7.6565132997E+00  5.0514004923E+00  5.0514004923E+00
                       2.4462876850E+00  5.0514004923E+00  5.0514004923E+00
                       8.6466995789E-20 -6.9482833808E-19  1.6329252733E-19
           xangst3     2.5231694844E+00  2.5231694844E+00  2.5231694844E+00
                       7.5695084532E+00  7.5695084532E+00  7.5695084532E+00
                       5.0463389688E+00  7.6488414427E+00  5.0463389688E+00
                       5.0463389688E+00  5.0463389688E+00  2.4438364949E+00
                       5.0463389688E+00  5.0463389688E+00  7.6488414427E+00
                       5.0463389688E+00  2.4438364949E+00  5.0463389688E+00
                       7.6488414427E+00  5.0463389688E+00  5.0463389688E+00
                       2.4438364949E+00  5.0463389688E+00  5.0463389688E+00
                       8.6380355513E-20 -6.9413211730E-19  1.6312890756E-19
           xangst4     2.5206387226E+00  2.5206387226E+00  2.5206387226E+00
                       7.5619161679E+00  7.5619161679E+00  7.5619161679E+00
                       5.0412774453E+00  7.6411695857E+00  5.0412774453E+00
                       5.0412774453E+00  5.0412774453E+00  2.4413853048E+00
                       5.0412774453E+00  5.0412774453E+00  7.6411695857E+00
                       5.0412774453E+00  2.4413853048E+00  5.0412774453E+00
                       7.6411695857E+00  5.0412774453E+00  5.0412774453E+00
                       2.4413853048E+00  5.0412774453E+00  5.0412774453E+00
                       8.6293715237E-20 -6.9343589652E-19  1.6296528779E-19
           xangst5     2.5181079609E+00  2.5181079609E+00  2.5181079609E+00
                       7.5543238826E+00  7.5543238826E+00  7.5543238826E+00
                       5.0362159217E+00  7.6334977286E+00  5.0362159217E+00
                       5.0362159217E+00  5.0362159217E+00  2.4389341148E+00
                       5.0362159217E+00  5.0362159217E+00  7.6334977286E+00
                       5.0362159217E+00  2.4389341148E+00  5.0362159217E+00
                       7.6334977286E+00  5.0362159217E+00  5.0362159217E+00
                       2.4389341148E+00  5.0362159217E+00  5.0362159217E+00
                       8.6207074960E-20 -6.9273967574E-19  1.6280166803E-19
           xangst6     2.5155771991E+00  2.5155771991E+00  2.5155771991E+00
                       7.5467315973E+00  7.5467315973E+00  7.5467315973E+00
                       5.0311543982E+00  7.6258258716E+00  5.0311543982E+00
                       5.0311543982E+00  5.0311543982E+00  2.4364829247E+00
                       5.0311543982E+00  5.0311543982E+00  7.6258258716E+00
                       5.0311543982E+00  2.4364829247E+00  5.0311543982E+00
                       7.6258258716E+00  5.0311543982E+00  5.0311543982E+00
                       2.4364829247E+00  5.0311543982E+00  5.0311543982E+00
                       8.6120434684E-20 -6.9204345496E-19  1.6263804826E-19
           xangst7     2.5130464373E+00  2.5130464373E+00  2.5130464373E+00
                       7.5391393119E+00  7.5391393119E+00  7.5391393119E+00
                       5.0260928746E+00  7.6181540146E+00  5.0260928746E+00
                       5.0260928746E+00  5.0260928746E+00  2.4340317346E+00
                       5.0260928746E+00  5.0260928746E+00  7.6181540146E+00
                       5.0260928746E+00  2.4340317346E+00  5.0260928746E+00
                       7.6181540146E+00  5.0260928746E+00  5.0260928746E+00
                       2.4340317346E+00  5.0260928746E+00  5.0260928746E+00
                       8.6033794408E-20 -6.9134723418E-19  1.6247442849E-19
           xangst8     2.5105156755E+00  2.5105156755E+00  2.5105156755E+00
                       7.5315470266E+00  7.5315470266E+00  7.5315470266E+00
                       5.0210313511E+00  7.6104821576E+00  5.0210313511E+00
                       5.0210313511E+00  5.0210313511E+00  2.4315805446E+00
                       5.0210313511E+00  5.0210313511E+00  7.6104821576E+00
                       5.0210313511E+00  2.4315805446E+00  5.0210313511E+00
                       7.6104821576E+00  5.0210313511E+00  5.0210313511E+00
                       2.4315805446E+00  5.0210313511E+00  5.0210313511E+00
                       8.5947154131E-20 -6.9065101340E-19  1.6231080873E-19
           xangst9     2.5079849138E+00  2.5079849138E+00  2.5079849138E+00
                       7.5239547413E+00  7.5239547413E+00  7.5239547413E+00
                       5.0159698276E+00  7.6028103006E+00  5.0159698276E+00
                       5.0159698276E+00  5.0159698276E+00  2.4291293545E+00
                       5.0159698276E+00  5.0159698276E+00  7.6028103006E+00
                       5.0159698276E+00  2.4291293545E+00  5.0159698276E+00
                       7.6028103006E+00  5.0159698276E+00  5.0159698276E+00
                       2.4291293545E+00  5.0159698276E+00  5.0159698276E+00
                       8.5860513855E-20 -6.8995479263E-19  1.6214718896E-19
           xangst10    2.5054541520E+00  2.5054541520E+00  2.5054541520E+00
                       7.5163624560E+00  7.5163624560E+00  7.5163624560E+00
                       5.0109083040E+00  7.5951384436E+00  5.0109083040E+00
                       5.0109083040E+00  5.0109083040E+00  2.4266781645E+00
                       5.0109083040E+00  5.0109083040E+00  7.5951384436E+00
                       5.0109083040E+00  2.4266781645E+00  5.0109083040E+00
                       7.5951384436E+00  5.0109083040E+00  5.0109083040E+00
                       2.4266781645E+00  5.0109083040E+00  5.0109083040E+00
                       8.5773873579E-20 -6.8925857185E-19  1.6198356919E-19
           xangst11    2.5029233902E+00  2.5029233902E+00  2.5029233902E+00
                       7.5087701707E+00  7.5087701707E+00  7.5087701707E+00
                       5.0058467805E+00  7.5874665866E+00  5.0058467805E+00
                       5.0058467805E+00  5.0058467805E+00  2.4242269744E+00
                       5.0058467805E+00  5.0058467805E+00  7.5874665866E+00
                       5.0058467805E+00  2.4242269744E+00  5.0058467805E+00
                       7.5874665866E+00  5.0058467805E+00  5.0058467805E+00
                       2.4242269744E+00  5.0058467805E+00  5.0058467805E+00
                       8.5687233302E-20 -6.8856235107E-19  1.6181994943E-19
           xangst12    2.5003926285E+00  2.5003926285E+00  2.5003926285E+00
                       7.5011778854E+00  7.5011778854E+00  7.5011778854E+00
                       5.0007852569E+00  7.5797947295E+00  5.0007852569E+00
                       5.0007852569E+00  5.0007852569E+00  2.4217757843E+00
                       5.0007852569E+00  5.0007852569E+00  7.5797947295E+00
                       5.0007852569E+00  2.4217757843E+00  5.0007852569E+00
                       7.5797947295E+00  5.0007852569E+00  5.0007852569E+00
                       2.4217757843E+00  5.0007852569E+00  5.0007852569E+00
                       8.5600593026E-20 -6.8786613029E-19  1.6165632966E-19
           xangst13    2.4978618667E+00  2.4978618667E+00  2.4978618667E+00
                       7.4935856001E+00  7.4935856001E+00  7.4935856001E+00
                       4.9957237334E+00  7.5721228725E+00  4.9957237334E+00
                       4.9957237334E+00  4.9957237334E+00  2.4193245943E+00
                       4.9957237334E+00  4.9957237334E+00  7.5721228725E+00
                       4.9957237334E+00  2.4193245943E+00  4.9957237334E+00
                       7.5721228725E+00  4.9957237334E+00  4.9957237334E+00
                       2.4193245943E+00  4.9957237334E+00  4.9957237334E+00
                       8.5513952749E-20 -6.8716990951E-19  1.6149270989E-19
            xcart1     4.7776642057E+00  4.7776642057E+00  4.7776642057E+00
                       1.4332992617E+01  1.4332992617E+01  1.4332992617E+01
                       9.5553284113E+00  1.4483210978E+01  9.5553284113E+00
                       9.5553284113E+00  9.5553284113E+00  4.6274458448E+00
                       9.5553284113E+00  9.5553284113E+00  1.4483210978E+01
                       9.5553284113E+00  4.6274458448E+00  9.5553284113E+00
                       1.4483210978E+01  9.5553284113E+00  9.5553284113E+00
                       4.6274458448E+00  9.5553284113E+00  9.5553284113E+00
                       1.6356266797E-19 -1.3143509349E-18  3.0888735275E-19
            xcart2     4.7728817590E+00  4.7728817590E+00  4.7728817590E+00
                       1.4318645277E+01  1.4318645277E+01  1.4318645277E+01
                       9.5457635180E+00  1.4468713269E+01  9.5457635180E+00
                       9.5457635180E+00  9.5457635180E+00  4.6228137668E+00
                       9.5457635180E+00  9.5457635180E+00  1.4468713269E+01
                       9.5457635180E+00  4.6228137668E+00  9.5457635180E+00
                       1.4468713269E+01  9.5457635180E+00  9.5457635180E+00
                       4.6228137668E+00  9.5457635180E+00  9.5457635180E+00
                       1.6339894158E-19 -1.3130352683E-18  3.0857815620E-19
            xcart3     4.7680993124E+00  4.7680993124E+00  4.7680993124E+00
                       1.4304297937E+01  1.4304297937E+01  1.4304297937E+01
                       9.5361986247E+00  1.4454215561E+01  9.5361986247E+00
                       9.5361986247E+00  9.5361986247E+00  4.6181816889E+00
                       9.5361986247E+00  9.5361986247E+00  1.4454215561E+01
                       9.5361986247E+00  4.6181816889E+00  9.5361986247E+00
                       1.4454215561E+01  9.5361986247E+00  9.5361986247E+00
                       4.6181816889E+00  9.5361986247E+00  9.5361986247E+00
                       1.6323521518E-19 -1.3117196017E-18  3.0826895965E-19
            xcart4     4.7633168657E+00  4.7633168657E+00  4.7633168657E+00
                       1.4289950597E+01  1.4289950597E+01  1.4289950597E+01
                       9.5266337314E+00  1.4439717852E+01  9.5266337314E+00
                       9.5266337314E+00  9.5266337314E+00  4.6135496110E+00
                       9.5266337314E+00  9.5266337314E+00  1.4439717852E+01
                       9.5266337314E+00  4.6135496110E+00  9.5266337314E+00
                       1.4439717852E+01  9.5266337314E+00  9.5266337314E+00
                       4.6135496110E+00  9.5266337314E+00  9.5266337314E+00
                       1.6307148879E-19 -1.3104039351E-18  3.0795976310E-19
            xcart5     4.7585344191E+00  4.7585344191E+00  4.7585344191E+00
                       1.4275603257E+01  1.4275603257E+01  1.4275603257E+01
                       9.5170688381E+00  1.4425220143E+01  9.5170688381E+00
                       9.5170688381E+00  9.5170688381E+00  4.6089175331E+00
                       9.5170688381E+00  9.5170688381E+00  1.4425220143E+01
                       9.5170688381E+00  4.6089175331E+00  9.5170688381E+00
                       1.4425220143E+01  9.5170688381E+00  9.5170688381E+00
                       4.6089175331E+00  9.5170688381E+00  9.5170688381E+00
                       1.6290776239E-19 -1.3090882685E-18  3.0765056655E-19
            xcart6     4.7537519724E+00  4.7537519724E+00  4.7537519724E+00
                       1.4261255917E+01  1.4261255917E+01  1.4261255917E+01
                       9.5075039448E+00  1.4410722434E+01  9.5075039448E+00
                       9.5075039448E+00  9.5075039448E+00  4.6042854552E+00
                       9.5075039448E+00  9.5075039448E+00  1.4410722434E+01
                       9.5075039448E+00  4.6042854552E+00  9.5075039448E+00
                       1.4410722434E+01  9.5075039448E+00  9.5075039448E+00
                       4.6042854552E+00  9.5075039448E+00  9.5075039448E+00
                       1.6274403600E-19 -1.3077726019E-18  3.0734137000E-19
            xcart7     4.7489695258E+00  4.7489695258E+00  4.7489695258E+00
                       1.4246908577E+01  1.4246908577E+01  1.4246908577E+01
                       9.4979390515E+00  1.4396224726E+01  9.4979390515E+00
                       9.4979390515E+00  9.4979390515E+00  4.5996533772E+00
                       9.4979390515E+00  9.4979390515E+00  1.4396224726E+01
                       9.4979390515E+00  4.5996533772E+00  9.4979390515E+00
                       1.4396224726E+01  9.4979390515E+00  9.4979390515E+00
                       4.5996533772E+00  9.4979390515E+00  9.4979390515E+00
                       1.6258030960E-19 -1.3064569353E-18  3.0703217345E-19
            xcart8     4.7441870791E+00  4.7441870791E+00  4.7441870791E+00
                       1.4232561237E+01  1.4232561237E+01  1.4232561237E+01
                       9.4883741582E+00  1.4381727017E+01  9.4883741582E+00
                       9.4883741582E+00  9.4883741582E+00  4.5950212993E+00
                       9.4883741582E+00  9.4883741582E+00  1.4381727017E+01
                       9.4883741582E+00  4.5950212993E+00  9.4883741582E+00
                       1.4381727017E+01  9.4883741582E+00  9.4883741582E+00
                       4.5950212993E+00  9.4883741582E+00  9.4883741582E+00
                       1.6241658321E-19 -1.3051412687E-18  3.0672297690E-19
            xcart9     4.7394046324E+00  4.7394046324E+00  4.7394046324E+00
                       1.4218213897E+01  1.4218213897E+01  1.4218213897E+01
                       9.4788092649E+00  1.4367229308E+01  9.4788092649E+00
                       9.4788092649E+00  9.4788092649E+00  4.5903892214E+00
                       9.4788092649E+00  9.4788092649E+00  1.4367229308E+01
                       9.4788092649E+00  4.5903892214E+00  9.4788092649E+00
                       1.4367229308E+01  9.4788092649E+00  9.4788092649E+00
                       4.5903892214E+00  9.4788092649E+00  9.4788092649E+00
                       1.6225285681E-19 -1.3038256021E-18  3.0641378035E-19
            xcart10    4.7346221858E+00  4.7346221858E+00  4.7346221858E+00
                       1.4203866557E+01  1.4203866557E+01  1.4203866557E+01
                       9.4692443716E+00  1.4352731600E+01  9.4692443716E+00
                       9.4692443716E+00  9.4692443716E+00  4.5857571435E+00
                       9.4692443716E+00  9.4692443716E+00  1.4352731600E+01
                       9.4692443716E+00  4.5857571435E+00  9.4692443716E+00
                       1.4352731600E+01  9.4692443716E+00  9.4692443716E+00
                       4.5857571435E+00  9.4692443716E+00  9.4692443716E+00
                       1.6208913042E-19 -1.3025099355E-18  3.0610458380E-19
            xcart11    4.7298397391E+00  4.7298397391E+00  4.7298397391E+00
                       1.4189519217E+01  1.4189519217E+01  1.4189519217E+01
                       9.4596794783E+00  1.4338233891E+01  9.4596794783E+00
                       9.4596794783E+00  9.4596794783E+00  4.5811250655E+00
                       9.4596794783E+00  9.4596794783E+00  1.4338233891E+01
                       9.4596794783E+00  4.5811250655E+00  9.4596794783E+00
                       1.4338233891E+01  9.4596794783E+00  9.4596794783E+00
                       4.5811250655E+00  9.4596794783E+00  9.4596794783E+00
                       1.6192540403E-19 -1.3011942689E-18  3.0579538725E-19
            xcart12    4.7250572925E+00  4.7250572925E+00  4.7250572925E+00
                       1.4175171877E+01  1.4175171877E+01  1.4175171877E+01
                       9.4501145850E+00  1.4323736182E+01  9.4501145850E+00
                       9.4501145850E+00  9.4501145850E+00  4.5764929876E+00
                       9.4501145850E+00  9.4501145850E+00  1.4323736182E+01
                       9.4501145850E+00  4.5764929876E+00  9.4501145850E+00
                       1.4323736182E+01  9.4501145850E+00  9.4501145850E+00
                       4.5764929876E+00  9.4501145850E+00  9.4501145850E+00
                       1.6176167763E-19 -1.2998786023E-18  3.0548619070E-19
            xcart13    4.7202748458E+00  4.7202748458E+00  4.7202748458E+00
                       1.4160824538E+01  1.4160824538E+01  1.4160824538E+01
                       9.4405496917E+00  1.4309238474E+01  9.4405496917E+00
                       9.4405496917E+00  9.4405496917E+00  4.5718609097E+00
                       9.4405496917E+00  9.4405496917E+00  1.4309238474E+01
                       9.4405496917E+00  4.5718609097E+00  9.4405496917E+00
                       1.4309238474E+01  9.4405496917E+00  9.4405496917E+00
                       4.5718609097E+00  9.4405496917E+00  9.4405496917E+00
                       1.6159795124E-19 -1.2985629357E-18  3.0517699415E-19
             xred      2.5000000000E-01  2.5000000000E-01  2.5000000000E-01
                       7.5000000000E-01  7.5000000000E-01  7.5000000000E-01
                       7.5786044992E-01  2.4213955008E-01  7.5786044992E-01
                       2.4213955008E-01  2.4213955008E-01  7.5786044992E-01
                       7.5786044992E-01  7.5786044992E-01  2.4213955008E-01
                       2.4213955008E-01  7.5786044992E-01  2.4213955008E-01
                       2.4213955008E-01  7.5786044992E-01  7.5786044992E-01
                       7.5786044992E-01  2.4213955008E-01  2.4213955008E-01
                      -6.1171432307E-20  9.3497621366E-20 -7.6380191077E-20
            znucl       55.00000   17.00000   72.00000

================================================================================

 chkinp: Checking input parameters for consistency, jdtset=   1.

 chkinp: Checking input parameters for consistency, jdtset=   2.

 chkinp: Checking input parameters for consistency, jdtset=   3.

 chkinp: Checking input parameters for consistency, jdtset=   4.

 chkinp: Checking input parameters for consistency, jdtset=   5.

 chkinp: Checking input parameters for consistency, jdtset=   6.

 chkinp: Checking input parameters for consistency, jdtset=   7.

 chkinp: Checking input parameters for consistency, jdtset=   8.

 chkinp: Checking input parameters for consistency, jdtset=   9.

 chkinp: Checking input parameters for consistency, jdtset=  10.

 chkinp: Checking input parameters for consistency, jdtset=  11.

 chkinp: Checking input parameters for consistency, jdtset=  12.

 chkinp: Checking input parameters for consistency, jdtset=  13.

================================================================================
== DATASET  1 ==================================================================
-   mpi_nproc: 6, omp_nthreads: -1 (-1 if OMP is not activated)


--- !DatasetInfo
iteration_state: {dtset: 1, }
dimensions: {natom: 9, nkpt: 10, mband: 42, nsppol: 1, nspinor: 1, nspden: 1, mpw: 8129, }
cutoff_energies: {ecut:  16.0, pawecutdg:  40.0, }
electrons: {nelect:   7.20000000E+01, charge:   0.00000000E+00, occopt:   1.00000000E+00, tsmear:   1.00000000E-02, }
meta: {optdriver: 0, ionmov: 2, optcell: 3, iscf: 17, paral_kgb: 0, }
...

 Real(R)+Recip(G) space primitive vectors, cartesian coordinates (Bohr,Bohr^-1):
 R(1)=  0.0000000  9.5553284  9.5553284  G(1)= -0.0523268  0.0523268  0.0523268
 R(2)=  9.5553284  0.0000000  9.5553284  G(2)=  0.0523268 -0.0523268  0.0523268
 R(3)=  9.5553284  9.5553284  0.0000000  G(3)=  0.0523268  0.0523268 -0.0523268
 Unit cell volume ucvol=  1.7448852E+03 bohr^3
 Angles (23,13,12)=  6.00000000E+01  6.00000000E+01  6.00000000E+01 degrees

 Coarse grid specifications (used for wave-functions):

 getcut: wavevector=  0.0000  0.0000  0.0000  ngfft=  60  60  60
         ecut(hartree)=     21.160   => boxcut(ratio)=   2.14421

 Fine grid specifications (used for densities):

 getcut: wavevector=  0.0000  0.0000  0.0000  ngfft=  90  90  90
         ecut(hartree)=     52.900   => boxcut(ratio)=   2.03443

--- Pseudopotential description ------------------------------------------------
- pspini: atom type   1  psp file is ../../../Psps_for_tests/ATOMICDATA/Cs.GGA_PBE-JTH.xml
- pspatm: opening atomic psp file    ../../../Psps_for_tests/ATOMICDATA/Cs.GGA_PBE-JTH.xml
- pspatm : Reading pseudopotential header in XML form from ../../../Psps_for_tests/ATOMICDATA/Cs.GGA_PBE-JTH.xml
 Pseudopotential format is: paw10
 basis_size (lnmax)=  6 (lmn_size= 18), orbitals=   0   0   1   1   2   2
 Spheres core radius: rc_sph= 2.20660278
 1 radial meshes are used:
  - mesh 1: r(i)=AA*[exp(BB*(i-1))-1], size=1500 , AA= 0.15922E-03 BB= 0.87573E-02
 Shapefunction is SIN type: shapef(r)=[sin(pi*r/rshp)/(pi*r/rshp)]**2
 Radius for shape functions =  2.00394208
 mmax= 1500
 Radial grid used for partial waves is grid 1
 Radial grid used for projectors is grid 1
 Radial grid used for (t)core density is grid 1
 Radial grid used for Vloc is grid 1
 Radial grid used for pseudo valence density is grid 1
 Mesh size for Vloc has been set to 1341 to avoid numerical noise.
 Compensation charge density is not taken into account in XC energy/potential
 pspatm: atomic psp has been read  and splines computed

- pspini: atom type   2  psp file is ../../../Psps_for_tests/ATOMICDATA/Cl.GGA_PBE-JTH.xml
- pspatm: opening atomic psp file    ../../../Psps_for_tests/ATOMICDATA/Cl.GGA_PBE-JTH.xml
- pspatm : Reading pseudopotential header in XML form from ../../../Psps_for_tests/ATOMICDATA/Cl.GGA_PBE-JTH.xml
 Pseudopotential format is: paw10
 basis_size (lnmax)=  4 (lmn_size=  8), orbitals=   0   0   1   1
 Spheres core radius: rc_sph= 1.80315674
 1 radial meshes are used:
  - mesh 1: r(i)=AA*[exp(BB*(i-1))-1], size=1400 , AA= 0.50355E-03 BB= 0.85603E-02
 Shapefunction is SIN type: shapef(r)=[sin(pi*r/rshp)/(pi*r/rshp)]**2
 Radius for shape functions =  1.61320365
 mmax= 1400
 Radial grid used for partial waves is grid 1
 Radial grid used for projectors is grid 1
 Radial grid used for (t)core density is grid 1
 Radial grid used for Vloc is grid 1
 Radial grid used for pseudo valence density is grid 1
 Mesh size for Vloc has been set to 1238 to avoid numerical noise.
 Compensation charge density is not taken into account in XC energy/potential
 pspatm: atomic psp has been read  and splines computed

- pspini: atom type   3  psp file is ../../../Psps_for_tests/ATOMICDATA/Hf.GGA_PBE-JTH.xml
- pspatm: opening atomic psp file    ../../../Psps_for_tests/ATOMICDATA/Hf.GGA_PBE-JTH.xml
- pspatm : Reading pseudopotential header in XML form from ../../../Psps_for_tests/ATOMICDATA/Hf.GGA_PBE-JTH.xml
 Pseudopotential format is: paw10
 basis_size (lnmax)=  6 (lmn_size= 18), orbitals=   0   0   1   1   2   2
 Spheres core radius: rc_sph= 2.41000000
 1 radial meshes are used:
  - mesh 1: r(i)=AA*[exp(BB*(i-1))-1], size= 972 , AA= 0.19796E-03 BB= 0.14253E-01
 Shapefunction is SIN type: shapef(r)=[sin(pi*r/rshp)/(pi*r/rshp)]**2
 Radius for shape functions =  2.41000000
 mmax=  972
 Radial grid used for partial waves is grid 1
 Radial grid used for projectors is grid 1
 Radial grid used for (t)core density is grid 1
 Radial grid used for Vloc is grid 1
 Radial grid used for pseudo valence density is grid 1
 Mesh size for Vloc has been set to  809 to avoid numerical noise.
 Compensation charge density is not taken into account in XC energy/potential
 pspatm: atomic psp has been read  and splines computed

   1.56818020E+04                                ecore*ucvol(ha*bohr**3)
--------------------------------------------------------------------------------

_setup2: Arith. and geom. avg. npw (full set) are    8110.906    8110.895

================================================================================

=== [ionmov= 2] Broyden-Fletcher-Goldfard-Shanno method (forces)            
================================================================================

--- Iteration: (   1/1000) Internal Cycle: (1/1)
--------------------------------------------------------------------------------

---SELF-CONSISTENT-FIELD CONVERGENCE--------------------------------------------

--- !BeginCycle
iteration_state: {dtset: 1, itime: 1, icycle: 1, }
solver: {iscf: 17, nstep: 2500, nline: 4, wfoptalg: 10, }
tolerances: {toldff: 1.00E-08, }
...

     iter   Etot(hartree)      deltaE(h)  residm     nres2    diffor    maxfor
 ETOT  1  -180.75364169756    -1.808E+02 3.486E+00 1.201E+01 8.159E-03 8.159E-03
 ETOT  2  -182.36068950755    -1.607E+00 2.585E-02 5.048E+00 4.515E-02 3.699E-02
 ETOT  3  -182.34171200550     1.898E-02 1.673E-02 7.131E-01 6.254E-02 2.555E-02
 ETOT  4  -182.34354839962    -1.836E-03 3.774E-03 1.692E-01 2.748E-02 1.926E-03
 ETOT  5  -182.34376081377    -2.124E-04 4.167E-03 5.882E-03 3.994E-03 2.068E-03
 ETOT  6  -182.34381062725    -4.981E-05 2.828E-03 1.480E-03 2.049E-03 1.912E-05
 ETOT  7  -182.34382239729    -1.177E-05 1.999E-03 1.020E-04 1.262E-04 1.071E-04
 ETOT  8  -182.34382288953    -4.922E-07 1.849E-03 2.427E-05 4.290E-04 5.362E-04
 ETOT  9  -182.34382317959    -2.901E-07 8.992E-04 2.237E-06 7.138E-05 6.075E-04
 ETOT 10  -182.34382319029    -1.071E-08 9.845E-04 1.700E-07 2.549E-05 5.820E-04
 ETOT 11  -182.34382319193    -1.639E-09 4.214E-04 2.164E-08 8.968E-06 5.910E-04
 ETOT 12  -182.34382319159     3.420E-10 4.595E-04 2.644E-09 6.089E-06 5.849E-04
 ETOT 13  -182.34382319154     4.994E-11 3.133E-04 7.566E-10 2.685E-06 5.876E-04
 ETOT 14  -182.34382319150     3.701E-11 2.748E-04 2.690E-10 9.126E-07 5.867E-04
 ETOT 15  -182.34382319150     7.248E-12 2.990E-04 6.917E-11 1.037E-07 5.866E-04
 ETOT 16  -182.34382319150     7.390E-13 2.515E-04 7.408E-12 9.543E-09 5.866E-04
 ETOT 17  -182.34382319150    -6.537E-13 2.552E-04 4.681E-13 4.102E-08 5.865E-04
 ETOT 18  -182.34382319149     6.111E-12 2.102E-04 8.604E-14 1.093E-08 5.866E-04
 ETOT 19  -182.34382319148     9.123E-12 2.022E-04 1.374E-14 2.945E-09 5.865E-04
 ETOT 20  -182.34382319149    -4.974E-12 1.654E-04 8.856E-16 1.650E-09 5.865E-04

 At SCF step   20, forces are converged : 
  for the second time, max diff in force=  1.650E-09 < toldff=  1.000E-08

 Cartesian components of stress tensor (hartree/bohr^3)
  sigma(1 1)= -9.71471701E-05  sigma(3 2)=  0.00000000E+00
  sigma(2 2)= -9.71471701E-05  sigma(3 1)=  0.00000000E+00
  sigma(3 3)= -9.71471701E-05  sigma(2 1)=  0.00000000E+00


--- !ResultsGS
iteration_state: {dtset: 1, itime: 1, icycle: 1, }
comment   : Summary of ground state results
lattice_vectors:
- [  0.0000000,   9.5553284,   9.5553284, ]
- [  9.5553284,   0.0000000,   9.5553284, ]
- [  9.5553284,   9.5553284,   0.0000000, ]
lattice_lengths: [  13.51328,   13.51328,   13.51328, ]
lattice_angles: [ 60.000,  60.000,  60.000, ] # degrees, (23, 13, 12)
lattice_volume:   1.7448852E+03
convergence: {deltae: -4.974E-12, res2:  8.856E-16, residm:  1.654E-04, diffor:  1.650E-09, }
etotal    :  -1.82343823E+02
entropy   :   0.00000000E+00
fermie    :  -9.96263497E-03
cartesian_stress_tensor: # hartree/bohr^3
- [ -9.71471701E-05,   0.00000000E+00,   0.00000000E+00, ]
- [  0.00000000E+00,  -9.71471701E-05,   0.00000000E+00, ]
- [  0.00000000E+00,   0.00000000E+00,  -9.71471701E-05, ]
pressure_GPa:   2.8582E+00
xred      :
- [  2.5000E-01,   2.5000E-01,   2.5000E-01, Cs]
- [  7.5000E-01,   7.5000E-01,   7.5000E-01, Cs]
- [  7.5786E-01,   2.4214E-01,   7.5786E-01, Cl]
- [  2.4214E-01,   2.4214E-01,   7.5786E-01, Cl]
- [  7.5786E-01,   7.5786E-01,   2.4214E-01, Cl]
- [  2.4214E-01,   7.5786E-01,   2.4214E-01, Cl]
- [  2.4214E-01,   7.5786E-01,   7.5786E-01, Cl]
- [  7.5786E-01,   2.4214E-01,   2.4214E-01, Cl]
- [ -6.1171E-20,   9.3498E-20,  -7.6380E-20, Hf]
cartesian_forces: # hartree/bohr
- [  1.20466908E-20,  -1.90504609E-20,  -3.71307804E-21, ]
- [  1.20466908E-20,  -1.90504609E-20,  -3.71307804E-21, ]
- [  4.54643931E-20,  -5.86548089E-04,  -3.71307804E-20, ]
- [ -8.97489175E-20,   8.46362426E-20,   5.86548089E-04, ]
- [ -8.53504903E-20,   7.64556249E-20,  -5.86548089E-04, ]
- [  2.40152746E-20,   5.86548089E-04,  -1.56816618E-20, ]
- [ -5.86548089E-04,  -3.98428672E-20,   1.70793283E-20, ]
- [  5.86548089E-04,  -4.36443407E-20,   2.08808018E-20, ]
- [  1.20466908E-20,  -1.90504609E-20,  -3.71307804E-21, ]
force_length_stats: {min:   2.28435936E-20, max:   5.86548089E-04, mean:   3.91032060E-04, }
...

 Integrated electronic density in atomic spheres:
 ------------------------------------------------
 Atom  Sphere_radius  Integrated_density
    1        2.20660          5.37288358
    2        2.20660          5.37288358
    3        1.80316          4.37439429
    4        1.80316          4.37439429
    5        1.80316          4.37439429
    6        1.80316          4.37439429
    7        1.80316          4.37439429
    8        1.80316          4.37439429
    9        2.41000          9.36691128

 PAW TEST:
 ==== Compensation charge inside spheres ============
 The following values must be close to each other ...
 Compensation charge over spherical meshes =     -1.455134335640623
 Compensation charge over fine fft grid    =     -1.455152812542724

 ==== Results concerning PAW augmentation regions ====

 Total pseudopotential strength Dij (hartree):
 Atom #  1
   0.40362  -0.13387   0.00000   0.00000   0.00000   0.00000   0.00000   0.00000   0.00000   0.00000   0.00000   0.00000 ...
  -0.13387   0.04007   0.00000   0.00000   0.00000   0.00000   0.00000   0.00000   0.00000   0.00000   0.00000   0.00000 ...
   0.00000   0.00000  -0.08907   0.00000   0.00000  -0.16928   0.00000   0.00000   0.00000   0.00000   0.00000  -0.00000 ...
   0.00000   0.00000   0.00000  -0.08907   0.00000   0.00000  -0.16928   0.00000  -0.00000   0.00000   0.00000   0.00000 ...
   0.00000   0.00000   0.00000   0.00000  -0.08907   0.00000   0.00000  -0.16928   0.00000  -0.00000   0.00000   0.00000 ...
   0.00000   0.00000  -0.16928   0.00000   0.00000   0.39295   0.00000   0.00000   0.00000   0.00000   0.00000   0.00000 ...
   0.00000   0.00000   0.00000  -0.16928   0.00000   0.00000   0.39295   0.00000   0.00000   0.00000   0.00000   0.00000 ...
   0.00000   0.00000   0.00000   0.00000  -0.16928   0.00000   0.00000   0.39295   0.00000   0.00000   0.00000   0.00000 ...
   0.00000   0.00000   0.00000  -0.00000   0.00000   0.00000   0.00000   0.00000   0.00586   0.00000   0.00000   0.00000 ...
   0.00000   0.00000   0.00000   0.00000  -0.00000   0.00000   0.00000   0.00000   0.00000   0.00586   0.00000   0.00000 ...
   0.00000   0.00000   0.00000   0.00000   0.00000   0.00000   0.00000   0.00000   0.00000   0.00000   0.00586   0.00000 ...
   0.00000   0.00000  -0.00000   0.00000   0.00000   0.00000   0.00000   0.00000   0.00000   0.00000   0.00000   0.00586 ...
   ...  only 12  components have been written...
 Atom #  9
  -3.46635   0.40959   0.00000   0.00000   0.00000   0.00000   0.00000   0.00000   0.00000   0.00000   0.00000   0.00000 ...
   0.40959   0.00649   0.00000   0.00000   0.00000   0.00000   0.00000   0.00000   0.00000   0.00000   0.00000   0.00000 ...
   0.00000   0.00000  -1.37071   0.00000   0.00000   0.10622   0.00000   0.00000   0.00000   0.00000   0.00000   0.00000 ...
   0.00000   0.00000   0.00000  -1.37071   0.00000   0.00000   0.10622   0.00000   0.00000   0.00000   0.00000   0.00000 ...
   0.00000   0.00000   0.00000   0.00000  -1.37071   0.00000   0.00000   0.10622   0.00000   0.00000   0.00000   0.00000 ...
   0.00000   0.00000   0.10622   0.00000   0.00000   0.01621   0.00000   0.00000   0.00000   0.00000   0.00000   0.00000 ...
   0.00000   0.00000   0.00000   0.10622   0.00000   0.00000   0.01621   0.00000   0.00000   0.00000   0.00000   0.00000 ...
   0.00000   0.00000   0.00000   0.00000   0.10622   0.00000   0.00000   0.01621   0.00000   0.00000   0.00000   0.00000 ...
   0.00000   0.00000   0.00000   0.00000   0.00000   0.00000   0.00000   0.00000  -0.37764   0.00000   0.00000   0.00000 ...
   0.00000   0.00000   0.00000   0.00000   0.00000   0.00000   0.00000   0.00000   0.00000  -0.37764   0.00000   0.00000 ...
   0.00000   0.00000   0.00000   0.00000   0.00000   0.00000   0.00000   0.00000   0.00000   0.00000  -0.37702   0.00000 ...
   0.00000   0.00000   0.00000   0.00000   0.00000   0.00000   0.00000   0.00000   0.00000   0.00000   0.00000  -0.37764 ...
   ...  only 12  components have been written...


 Augmentation waves occupancies Rhoij:
 Atom #  1
   1.99991  -0.01007   0.00000   0.00000   0.00000   0.00000   0.00000   0.00000   0.00000   0.00000   0.00000   0.00000 ...
  -0.01007   0.16926   0.00000   0.00000   0.00000   0.00000   0.00000   0.00000   0.00000   0.00000   0.00000   0.00000 ...
   0.00000   0.00000   2.01260   0.00000   0.00000  -0.00487   0.00000   0.00000   0.00000   0.00000   0.00000  -0.00101 ...
   0.00000   0.00000   0.00000   2.01260   0.00000   0.00000  -0.00487   0.00000  -0.00101   0.00000   0.00000   0.00000 ...
   0.00000   0.00000   0.00000   0.00000   2.01260   0.00000   0.00000  -0.00487   0.00000  -0.00101   0.00000   0.00000 ...
   0.00000   0.00000  -0.00487   0.00000   0.00000   0.00014   0.00000   0.00000   0.00000   0.00000   0.00000  -0.00016 ...
   0.00000   0.00000   0.00000  -0.00487   0.00000   0.00000   0.00014   0.00000  -0.00016   0.00000   0.00000   0.00000 ...
   0.00000   0.00000   0.00000   0.00000  -0.00487   0.00000   0.00000   0.00014   0.00000  -0.00016   0.00000   0.00000 ...
   0.00000   0.00000   0.00000  -0.00101   0.00000   0.00000  -0.00016   0.00000   0.06225   0.00000   0.00000   0.00000 ...
   0.00000   0.00000   0.00000   0.00000  -0.00101   0.00000   0.00000  -0.00016   0.00000   0.06225   0.00000   0.00000 ...
   0.00000   0.00000   0.00000   0.00000   0.00000   0.00000   0.00000   0.00000   0.00000   0.00000   0.03911   0.00000 ...
   0.00000   0.00000  -0.00101   0.00000   0.00000  -0.00016   0.00000   0.00000   0.00000   0.00000   0.00000   0.06225 ...
   ...  only 12  components have been written...
 Atom #  9
   1.99786  -0.02330   0.00000   0.00000   0.00000   0.00000   0.00000   0.00000   0.00000   0.00000   0.00000   0.00000 ...
  -0.02330   1.01177   0.00000   0.00000   0.00000   0.00000   0.00000   0.00000   0.00000   0.00000   0.00000   0.00000 ...
   0.00000   0.00000   1.99229   0.00000   0.00000  -0.07067   0.00000   0.00000   0.00000   0.00000   0.00000   0.00000 ...
   0.00000   0.00000   0.00000   1.99229   0.00000   0.00000  -0.07067   0.00000   0.00000   0.00000   0.00000   0.00000 ...
   0.00000   0.00000   0.00000   0.00000   1.99229   0.00000   0.00000  -0.07067   0.00000   0.00000   0.00000   0.00000 ...
   0.00000   0.00000  -0.07067   0.00000   0.00000   1.49252   0.00000   0.00000   0.00000   0.00000   0.00000   0.00000 ...
   0.00000   0.00000   0.00000  -0.07067   0.00000   0.00000   1.49252   0.00000   0.00000   0.00000   0.00000   0.00000 ...
   0.00000   0.00000   0.00000   0.00000  -0.07067   0.00000   0.00000   1.49252   0.00000   0.00000   0.00000   0.00000 ...
   0.00000   0.00000   0.00000   0.00000   0.00000   0.00000   0.00000   0.00000   0.56169   0.00000   0.00000   0.00000 ...
   0.00000   0.00000   0.00000   0.00000   0.00000   0.00000   0.00000   0.00000   0.00000   0.56169   0.00000   0.00000 ...
   0.00000   0.00000   0.00000   0.00000   0.00000   0.00000   0.00000   0.00000   0.00000   0.00000   1.72815   0.00000 ...
   0.00000   0.00000   0.00000   0.00000   0.00000   0.00000   0.00000   0.00000   0.00000   0.00000   0.00000   0.56169 ...
   ...  only 12  components have been written...



---OUTPUT-----------------------------------------------------------------------

 Cartesian coordinates (xcart) [bohr]
  4.77766420566505E+00  4.77766420566505E+00  4.77766420566505E+00
  1.43329926169951E+01  1.43329926169951E+01  1.43329926169951E+01
  9.55532841133009E+00  1.44832109778880E+01  9.55532841133009E+00
  9.55532841133009E+00  9.55532841133009E+00  4.62744584477222E+00
  9.55532841133009E+00  9.55532841133009E+00  1.44832109778880E+01
  9.55532841133009E+00  4.62744584477222E+00  9.55532841133009E+00
  1.44832109778880E+01  9.55532841133009E+00  9.55532841133009E+00
  4.62744584477222E+00  9.55532841133009E+00  9.55532841133009E+00
  1.63562667969444E-19 -1.31435093494571E-18  3.08887352745491E-19
 Reduced coordinates (xred)
  2.50000000000000E-01  2.50000000000000E-01  2.50000000000000E-01
  7.50000000000000E-01  7.50000000000000E-01  7.50000000000000E-01
  7.57860449920000E-01  2.42139550080000E-01  7.57860449920000E-01
  2.42139550080000E-01  2.42139550080000E-01  7.57860449920000E-01
  7.57860449920000E-01  7.57860449920000E-01  2.42139550080000E-01
  2.42139550080000E-01  7.57860449920000E-01  2.42139550080000E-01
  2.42139550080000E-01  7.57860449920000E-01  7.57860449920000E-01
  7.57860449920000E-01  2.42139550080000E-01  2.42139550080000E-01
 -6.11714323070000E-20  9.34976213660000E-20 -7.63801910770000E-20
 Cartesian forces (fcart) [Ha/bohr]; max,rms= 5.86548E-04 2.76501E-04 (free atoms)
  1.20466908052294E-20 -1.90504609335657E-20 -3.71307803636315E-21
  1.20466908056164E-20 -1.90504609337497E-20 -3.71307803596240E-21
  4.54643931301861E-20 -5.86548089261888E-04 -3.71307803608796E-20
 -8.97489175234362E-20  8.46362426489967E-20  5.86548089261888E-04
 -8.53504903013724E-20  7.64556249191393E-20 -5.86548089261888E-04
  2.40152745741265E-20  5.86548089261888E-04 -1.56816618048199E-20
 -5.86548089261888E-04 -3.98428672332144E-20  1.70793282633957E-20
  5.86548089261888E-04 -4.36443407277708E-20  2.08808017579520E-20
  1.20466908053945E-20 -1.90504609337308E-20 -3.71307803608796E-21
 Reduced forces (fred)
  2.17513090661781E-19 -7.96304068593708E-20  6.69233236937170E-20
  2.17513090659710E-19 -7.96304068668978E-20  6.69233236917778E-20
  5.60465962193550E-03 -7.96304068635781E-20  5.60465962193550E-03
 -5.60465962193550E-03 -5.60465962193550E-03  4.88532874856253E-20
  5.60465962193550E-03  5.60465962193550E-03  8.49933599018086E-20
 -5.60465962193550E-03 -7.96304068635780E-20 -5.60465962193550E-03
  2.17513090660729E-19  5.60465962193550E-03  5.60465962193550E-03
  2.17513090660729E-19 -5.60465962193550E-03 -5.60465962193550E-03
  2.17513090660729E-19 -7.96304068635780E-20  6.69233236937171E-20
 Scale of Primitive Cell (acell) [bohr]
  1.35132750321660E+01  1.35132750321660E+01  1.35132750321660E+01
 Real space primitive translations (rprimd) [bohr]
  0.00000000000000E+00  9.55532841133009E+00  9.55532841133009E+00
  9.55532841133009E+00  0.00000000000000E+00  9.55532841133009E+00
  9.55532841133009E+00  9.55532841133009E+00  0.00000000000000E+00
 Unitary Cell Volume (ucvol) [Bohr^3]=  1.74488516376829E+03
 Angles (23,13,12)= [degrees]
  6.00000000000000E+01  6.00000000000000E+01  6.00000000000000E+01
 Lengths [Bohr]
  1.35132750322320E+01  1.35132750322320E+01  1.35132750322320E+01
 Stress tensor in cartesian coordinates (strten) [Ha/bohr^3]
 -9.71471701262556E-05  0.00000000000000E+00  0.00000000000000E+00
  0.00000000000000E+00 -9.71471701262548E-05  0.00000000000000E+00
  0.00000000000000E+00  0.00000000000000E+00 -9.71471701262530E-05
 Total energy (etotal) [Ha]= -1.82343823191487E+02

--- Iteration: (   2/1000) Internal Cycle: (1/1)
--------------------------------------------------------------------------------

---SELF-CONSISTENT-FIELD CONVERGENCE--------------------------------------------

--- !BeginCycle
iteration_state: {dtset: 1, itime: 2, icycle: 1, }
solver: {iscf: 17, nstep: 2500, nline: 4, wfoptalg: 10, }
tolerances: {toldff: 1.00E-08, }
...

     iter   Etot(hartree)      deltaE(h)  residm     nres2    diffor    maxfor
 ETOT  1  -182.34383314142    -1.823E+02 1.225E-04 1.584E-03 4.441E-03 5.028E-03
 ETOT  2  -182.34382551134     7.630E-06 9.432E-05 1.662E-04 4.775E-03 2.531E-04
 ETOT  3  -182.34382507517     4.362E-07 8.259E-05 1.738E-05 5.309E-04 7.840E-04
 ETOT  4  -182.34382506719     7.983E-09 6.731E-05 3.005E-06 2.419E-04 5.421E-04
 ETOT  5  -182.34382507283    -5.647E-09 5.802E-05 9.819E-07 1.087E-05 5.529E-04
 ETOT  6  -182.34382508456    -1.172E-08 4.744E-05 7.653E-08 4.755E-05 5.054E-04
 ETOT  7  -182.34382508631    -1.756E-09 4.041E-05 2.633E-08 2.609E-07 5.056E-04
 ETOT  8  -182.34382508758    -1.263E-09 3.316E-05 2.564E-09 4.777E-06 5.009E-04
 ETOT  9  -182.34382508754     3.635E-11 2.797E-05 5.241E-10 9.615E-07 4.999E-04
 ETOT 10  -182.34382508757    -2.726E-11 2.301E-05 5.642E-11 2.209E-07 4.997E-04
 ETOT 11  -182.34382508752     4.613E-11 1.926E-05 7.251E-12 5.349E-08 4.997E-04
 ETOT 12  -182.34382508752    -1.222E-12 1.588E-05 1.720E-12 2.289E-08 4.997E-04
 ETOT 13  -182.34382508753    -5.798E-12 1.609E-05 1.051E-13 1.709E-08 4.997E-04
 ETOT 14  -182.34382508752     5.059E-12 1.237E-05 2.521E-14 4.726E-09 4.997E-04
 ETOT 15  -182.34382508754    -1.526E-11 1.445E-05 3.504E-15 4.160E-10 4.997E-04

 At SCF step   15, forces are converged : 
  for the second time, max diff in force=  4.160E-10 < toldff=  1.000E-08

 Cartesian components of stress tensor (hartree/bohr^3)
  sigma(1 1)= -9.67553789E-05  sigma(3 2)=  0.00000000E+00
  sigma(2 2)= -9.67553789E-05  sigma(3 1)=  0.00000000E+00
  sigma(3 3)= -9.67553789E-05  sigma(2 1)=  0.00000000E+00


--- !ResultsGS
iteration_state: {dtset: 1, itime: 2, icycle: 1, }
comment   : Summary of ground state results
lattice_vectors:
- [  0.0000000,   9.5553284,   9.5553284, ]
- [  9.5553284,   0.0000000,   9.5553284, ]
- [  9.5553284,   9.5553284,   0.0000000, ]
lattice_lengths: [  13.51328,   13.51328,   13.51328, ]
lattice_angles: [ 60.000,  60.000,  60.000, ] # degrees, (23, 13, 12)
lattice_volume:   1.7448852E+03
convergence: {deltae: -1.526E-11, res2:  3.504E-15, residm:  1.445E-05, diffor:  4.160E-10, }
etotal    :  -1.82343825E+02
entropy   :   0.00000000E+00
fermie    :  -9.95883443E-03
cartesian_stress_tensor: # hartree/bohr^3
- [ -9.67553789E-05,   0.00000000E+00,   0.00000000E+00, ]
- [  0.00000000E+00,  -9.67553789E-05,   0.00000000E+00, ]
- [  0.00000000E+00,   0.00000000E+00,  -9.67553789E-05, ]
pressure_GPa:   2.8466E+00
xred      :
- [  2.5000E-01,   2.5000E-01,   2.5000E-01, Cs]
- [  7.5000E-01,   7.5000E-01,   7.5000E-01, Cs]
- [  7.5783E-01,   2.4217E-01,   7.5783E-01, Cl]
- [  2.4217E-01,   2.4217E-01,   7.5783E-01, Cl]
- [  7.5783E-01,   7.5783E-01,   2.4217E-01, Cl]
- [  2.4217E-01,   7.5783E-01,   2.4217E-01, Cl]
- [  2.4217E-01,   7.5783E-01,   7.5783E-01, Cl]
- [  7.5783E-01,   2.4217E-01,   2.4217E-01, Cl]
- [ -6.3713E-20,   9.6486E-20,  -7.6929E-20, Hf]
cartesian_forces: # hartree/bohr
- [  1.20467052E-20,  -1.44279118E-26,  -1.08305873E-20, ]
- [  1.20466764E-20,   1.44279118E-26,  -1.08306161E-20, ]
- [ -5.31082197E-20,  -4.99726686E-04,   5.43243088E-20, ]
- [  2.75733565E-20,  -1.55266657E-20,   4.99726686E-04, ]
- [ -3.47997493E-21,   1.55266657E-20,  -4.99726686E-04, ]
- [  2.29914927E-20,   4.99726686E-04,  -2.17754036E-20, ]
- [ -4.99726686E-04,  -1.97686244E-20,   8.93802267E-21, ]
- [  4.99726686E-04,   1.97686244E-20,  -3.05992261E-20, ]
- [  1.20466908E-20,  -0.00000000E+00,  -1.08306017E-20, ]
force_length_stats: {min:   1.61995265E-20, max:   4.99726686E-04, mean:   3.33151124E-04, }
...

 Integrated electronic density in atomic spheres:
 ------------------------------------------------
 Atom  Sphere_radius  Integrated_density
    1        2.20660          5.37288581
    2        2.20660          5.37288581
    3        1.80316          4.37617144
    4        1.80316          4.37617144
    5        1.80316          4.37617144
    6        1.80316          4.37617144
    7        1.80316          4.37617144
    8        1.80316          4.37617144
    9        2.41000          9.36629050

 PAW TEST:
 ==== Compensation charge inside spheres ============
 The following values must be close to each other ...
 Compensation charge over spherical meshes =     -1.455177524699710
 Compensation charge over fine fft grid    =     -1.455196285733326

 ==== Results concerning PAW augmentation regions ====

 Total pseudopotential strength Dij (hartree):
 Atom #  1
   0.40362  -0.13387   0.00000   0.00000   0.00000   0.00000   0.00000   0.00000   0.00000   0.00000   0.00000   0.00000 ...
  -0.13387   0.04007   0.00000   0.00000   0.00000   0.00000   0.00000   0.00000   0.00000   0.00000   0.00000   0.00000 ...
   0.00000   0.00000  -0.08907   0.00000   0.00000  -0.16928   0.00000   0.00000   0.00000   0.00000   0.00000  -0.00000 ...
   0.00000   0.00000   0.00000  -0.08907   0.00000   0.00000  -0.16928   0.00000  -0.00000   0.00000   0.00000   0.00000 ...
   0.00000   0.00000   0.00000   0.00000  -0.08907   0.00000   0.00000  -0.16928   0.00000  -0.00000   0.00000   0.00000 ...
   0.00000   0.00000  -0.16928   0.00000   0.00000   0.39295   0.00000   0.00000   0.00000   0.00000   0.00000   0.00000 ...
   0.00000   0.00000   0.00000  -0.16928   0.00000   0.00000   0.39295   0.00000   0.00000   0.00000   0.00000   0.00000 ...
   0.00000   0.00000   0.00000   0.00000  -0.16928   0.00000   0.00000   0.39295   0.00000   0.00000   0.00000   0.00000 ...
   0.00000   0.00000   0.00000  -0.00000   0.00000   0.00000   0.00000   0.00000   0.00586   0.00000   0.00000   0.00000 ...
   0.00000   0.00000   0.00000   0.00000  -0.00000   0.00000   0.00000   0.00000   0.00000   0.00586   0.00000   0.00000 ...
   0.00000   0.00000   0.00000   0.00000   0.00000   0.00000   0.00000   0.00000   0.00000   0.00000   0.00586   0.00000 ...
   0.00000   0.00000  -0.00000   0.00000   0.00000   0.00000   0.00000   0.00000   0.00000   0.00000   0.00000   0.00586 ...
   ...  only 12  components have been written...
 Atom #  9
  -3.46639   0.40960   0.00000   0.00000   0.00000   0.00000   0.00000   0.00000   0.00000   0.00000   0.00000   0.00000 ...
   0.40960   0.00649   0.00000   0.00000   0.00000   0.00000   0.00000   0.00000   0.00000   0.00000   0.00000   0.00000 ...
   0.00000   0.00000  -1.37076   0.00000   0.00000   0.10623   0.00000   0.00000   0.00000   0.00000   0.00000   0.00000 ...
   0.00000   0.00000   0.00000  -1.37076   0.00000   0.00000   0.10623   0.00000   0.00000   0.00000   0.00000   0.00000 ...
   0.00000   0.00000   0.00000   0.00000  -1.37076   0.00000   0.00000   0.10623   0.00000   0.00000   0.00000   0.00000 ...
   0.00000   0.00000   0.10623   0.00000   0.00000   0.01621   0.00000   0.00000   0.00000   0.00000   0.00000   0.00000 ...
   0.00000   0.00000   0.00000   0.10623   0.00000   0.00000   0.01621   0.00000   0.00000   0.00000   0.00000   0.00000 ...
   0.00000   0.00000   0.00000   0.00000   0.10623   0.00000   0.00000   0.01621   0.00000   0.00000   0.00000   0.00000 ...
   0.00000   0.00000   0.00000   0.00000   0.00000   0.00000   0.00000   0.00000  -0.37765   0.00000   0.00000   0.00000 ...
   0.00000   0.00000   0.00000   0.00000   0.00000   0.00000   0.00000   0.00000   0.00000  -0.37765   0.00000   0.00000 ...
   0.00000   0.00000   0.00000   0.00000   0.00000   0.00000   0.00000   0.00000   0.00000   0.00000  -0.37703   0.00000 ...
   0.00000   0.00000   0.00000   0.00000   0.00000   0.00000   0.00000   0.00000   0.00000   0.00000   0.00000  -0.37765 ...
   ...  only 12  components have been written...


 Augmentation waves occupancies Rhoij:
 Atom #  1
   1.99991  -0.01006   0.00000   0.00000   0.00000   0.00000   0.00000   0.00000   0.00000   0.00000   0.00000   0.00000 ...
  -0.01006   0.16928   0.00000   0.00000   0.00000   0.00000   0.00000   0.00000   0.00000   0.00000   0.00000   0.00000 ...
   0.00000   0.00000   2.01260   0.00000   0.00000  -0.00487   0.00000   0.00000   0.00000   0.00000   0.00000  -0.00101 ...
   0.00000   0.00000   0.00000   2.01260   0.00000   0.00000  -0.00487   0.00000  -0.00101   0.00000   0.00000   0.00000 ...
   0.00000   0.00000   0.00000   0.00000   2.01260   0.00000   0.00000  -0.00487   0.00000  -0.00101   0.00000   0.00000 ...
   0.00000   0.00000  -0.00487   0.00000   0.00000   0.00014   0.00000   0.00000   0.00000   0.00000   0.00000  -0.00016 ...
   0.00000   0.00000   0.00000  -0.00487   0.00000   0.00000   0.00014   0.00000  -0.00016   0.00000   0.00000   0.00000 ...
   0.00000   0.00000   0.00000   0.00000  -0.00487   0.00000   0.00000   0.00014   0.00000  -0.00016   0.00000   0.00000 ...
   0.00000   0.00000   0.00000  -0.00101   0.00000   0.00000  -0.00016   0.00000   0.06225   0.00000   0.00000   0.00000 ...
   0.00000   0.00000   0.00000   0.00000  -0.00101   0.00000   0.00000  -0.00016   0.00000   0.06225   0.00000   0.00000 ...
   0.00000   0.00000   0.00000   0.00000   0.00000   0.00000   0.00000   0.00000   0.00000   0.00000   0.03911   0.00000 ...
   0.00000   0.00000  -0.00101   0.00000   0.00000  -0.00016   0.00000   0.00000   0.00000   0.00000   0.00000   0.06225 ...
   ...  only 12  components have been written...
 Atom #  9
   1.99785  -0.02332   0.00000   0.00000   0.00000   0.00000   0.00000   0.00000   0.00000   0.00000   0.00000   0.00000 ...
  -0.02332   1.01150   0.00000   0.00000   0.00000   0.00000   0.00000   0.00000   0.00000   0.00000   0.00000   0.00000 ...
   0.00000   0.00000   1.99228   0.00000   0.00000  -0.07075   0.00000   0.00000   0.00000   0.00000   0.00000   0.00000 ...
   0.00000   0.00000   0.00000   1.99228   0.00000   0.00000  -0.07075   0.00000   0.00000   0.00000   0.00000   0.00000 ...
   0.00000   0.00000   0.00000   0.00000   1.99228   0.00000   0.00000  -0.07075   0.00000   0.00000   0.00000   0.00000 ...
   0.00000   0.00000  -0.07075   0.00000   0.00000   1.49158   0.00000   0.00000   0.00000   0.00000   0.00000   0.00000 ...
   0.00000   0.00000   0.00000  -0.07075   0.00000   0.00000   1.49158   0.00000   0.00000   0.00000   0.00000   0.00000 ...
   0.00000   0.00000   0.00000   0.00000  -0.07075   0.00000   0.00000   1.49158   0.00000   0.00000   0.00000   0.00000 ...
   0.00000   0.00000   0.00000   0.00000   0.00000   0.00000   0.00000   0.00000   0.56128   0.00000   0.00000   0.00000 ...
   0.00000   0.00000   0.00000   0.00000   0.00000   0.00000   0.00000   0.00000   0.00000   0.56128   0.00000   0.00000 ...
   0.00000   0.00000   0.00000   0.00000   0.00000   0.00000   0.00000   0.00000   0.00000   0.00000   1.72690   0.00000 ...
   0.00000   0.00000   0.00000   0.00000   0.00000   0.00000   0.00000   0.00000   0.00000   0.00000   0.00000   0.56128 ...
   ...  only 12  components have been written...



---OUTPUT-----------------------------------------------------------------------

 Cartesian coordinates (xcart) [bohr]
  4.77766420566505E+00  4.77766420566505E+00  4.77766420566505E+00
  1.43329926169951E+01  1.43329926169951E+01  1.43329926169951E+01
  9.55532841133009E+00  1.44826244297987E+01  9.55532841133009E+00
  9.55532841133009E+00  9.55532841133009E+00  4.62803239286148E+00
  9.55532841133009E+00  9.55532841133009E+00  1.44826244297987E+01
  9.55532841133009E+00  4.62803239286148E+00  9.55532841133009E+00
  1.44826244297987E+01  9.55532841133009E+00  9.55532841133009E+00
  4.62803239286148E+00  9.55532841133009E+00  9.55532841133009E+00
  1.86870317497656E-19 -1.34388415792133E-18  3.13159041720451E-19
 Reduced coordinates (xred)
  2.50000000000000E-01  2.50000000000000E-01  2.50000000000000E-01
  7.50000000000000E-01  7.50000000000000E-01  7.50000000000000E-01
  7.57829757720632E-01  2.42170242279368E-01  7.57829757720632E-01
  2.42170242279368E-01  2.42170242279368E-01  7.57829757720632E-01
  7.57829757720632E-01  7.57829757720632E-01  2.42170242279368E-01
  2.42170242279368E-01  7.57829757720632E-01  2.42170242279368E-01
  2.42170242279368E-01  7.57829757720632E-01  7.57829757720632E-01
  7.57829757720632E-01  2.42170242279368E-01  2.42170242279368E-01
 -6.37129034861216E-20  9.64861403901642E-20 -7.69294794933941E-20
 Cartesian forces (fcart) [Ha/bohr]; max,rms= 4.99727E-04 2.35573E-04 (free atoms)
  1.20467052333063E-20 -1.44279117881532E-26 -1.08305872828189E-20
  1.20466763774827E-20  1.44279117881532E-26 -1.08306161386425E-20
 -5.31082196708547E-20 -4.99726686136321E-04  5.43243087655185E-20
  2.75733565456754E-20 -1.55266657402810E-20  4.99726686136321E-04
 -3.47997493488646E-21  1.55266657402810E-20 -4.99726686136321E-04
  2.29914926573685E-20  4.99726686136321E-04 -2.17754035627047E-20
 -4.99726686136321E-04 -1.97686243827256E-20  8.93802267199493E-21
  4.99726686136321E-04  1.97686243827256E-20 -3.05992260934564E-20
  1.20466908053945E-20 -0.00000000000000E+00 -1.08306017107307E-20
 Reduced forces (fred)
  1.03489956238346E-19 -1.16204064038203E-20 -1.15110086915295E-19
  1.03489956238346E-19 -1.16198549500786E-20 -1.15110086915295E-19
  4.77505260193822E-03 -1.16201306769496E-20  4.77505260193823E-03
 -4.77505260193823E-03 -4.77505260193823E-03 -1.15110086915295E-19
  4.77505260193823E-03  4.77505260193823E-03 -1.15110086915295E-19
 -4.77505260193823E-03 -1.16201306769495E-20 -4.77505260193823E-03
  1.03489956238346E-19  4.77505260193822E-03  4.77505260193822E-03
  1.03489956238346E-19 -4.77505260193822E-03 -4.77505260193822E-03
  1.03489956238346E-19 -1.16201306769495E-20 -1.15110086915295E-19
 Scale of Primitive Cell (acell) [bohr]
  1.35132750321660E+01  1.35132750321660E+01  1.35132750321660E+01
 Real space primitive translations (rprimd) [bohr]
  0.00000000000000E+00  9.55532841133009E+00  9.55532841133009E+00
  9.55532841133009E+00  0.00000000000000E+00  9.55532841133009E+00
  9.55532841133009E+00  9.55532841133009E+00  0.00000000000000E+00
 Unitary Cell Volume (ucvol) [Bohr^3]=  1.74488516376829E+03
 Angles (23,13,12)= [degrees]
  6.00000000000000E+01  6.00000000000000E+01  6.00000000000000E+01
 Lengths [Bohr]
  1.35132750322320E+01  1.35132750322320E+01  1.35132750322320E+01
 Stress tensor in cartesian coordinates (strten) [Ha/bohr^3]
 -9.67553789436226E-05  0.00000000000000E+00  0.00000000000000E+00
  0.00000000000000E+00 -9.67553789436226E-05  0.00000000000000E+00
  0.00000000000000E+00  0.00000000000000E+00 -9.67553789436226E-05
 Total energy (etotal) [Ha]= -1.82343825087538E+02

 Difference of energy with previous step (new-old):
           Absolute (Ha)=-1.89605E-06
           Relative     =-1.03982E-08

--- Iteration: (   3/1000) Internal Cycle: (1/1)
--------------------------------------------------------------------------------

[...]
                       1.4405547554E+01  9.5170688381E+00  9.5170688381E+00
                       4.6285901227E+00  9.5170688381E+00  9.5170688381E+00
                       1.6290776239E-19 -1.3090882685E-18  3.0765056655E-19
            xcart6     4.7537519724E+00  4.7537519724E+00  4.7537519724E+00
                       1.4261255917E+01  1.4261255917E+01  1.4261255917E+01
                       9.5075039448E+00  1.4387150547E+01  9.5075039448E+00
                       9.5075039448E+00  9.5075039448E+00  4.6278573423E+00
                       9.5075039448E+00  9.5075039448E+00  1.4387150547E+01
                       9.5075039448E+00  4.6278573423E+00  9.5075039448E+00
                       1.4387150547E+01  9.5075039448E+00  9.5075039448E+00
                       4.6278573423E+00  9.5075039448E+00  9.5075039448E+00
                       2.9343756200E-19 -1.4741736274E-18  3.5619314694E-19
            xcart7     4.7489695258E+00  4.7489695258E+00  4.7489695258E+00
                       1.4246908577E+01  1.4246908577E+01  1.4246908577E+01
                       9.4979390515E+00  1.4368733631E+01  9.4979390515E+00
                       9.4979390515E+00  9.4979390515E+00  4.6271444724E+00
                       9.4979390515E+00  9.4979390515E+00  1.4368733631E+01
                       9.4979390515E+00  4.6271444724E+00  9.4979390515E+00
                       1.4368733631E+01  9.4979390515E+00  9.4979390515E+00
                       4.6271444724E+00  9.4979390515E+00  9.4979390515E+00
                       1.9051889071E-19 -1.5037194551E-18  4.0356222089E-19
            xcart8     4.7441870791E+00  4.7441870791E+00  4.7441870791E+00
                       1.4232561237E+01  1.4232561237E+01  1.4232561237E+01
                       9.4883741582E+00  1.4350391066E+01  9.4883741582E+00
                       9.4883741582E+00  9.4883741582E+00  4.6263572509E+00
                       9.4883741582E+00  9.4883741582E+00  1.4350391066E+01
                       9.4883741582E+00  4.6263572509E+00  9.4883741582E+00
                       1.4350391066E+01  9.4883741582E+00  9.4883741582E+00
                       4.6263572509E+00  9.4883741582E+00  9.4883741582E+00
                       3.0758076158E-19 -1.6811668563E-18  4.9846489406E-19
            xcart9     4.7394046324E+00  4.7394046324E+00  4.7394046324E+00
                       1.4218213897E+01  1.4218213897E+01  1.4218213897E+01
                       9.4788092649E+00  1.4332115531E+01  9.4788092649E+00
                       9.4788092649E+00  9.4788092649E+00  4.6255029990E+00
                       9.4788092649E+00  9.4788092649E+00  1.4332115531E+01
                       9.4788092649E+00  4.6255029990E+00  9.4788092649E+00
                       1.4332115531E+01  9.4788092649E+00  9.4788092649E+00
                       4.6255029990E+00  9.4788092649E+00  9.4788092649E+00
                       3.3782852739E-19 -1.7599785813E-18  4.4473163438E-19
            xcart10    4.7346221858E+00  4.7346221858E+00  4.7346221858E+00
                       1.4203866557E+01  1.4203866557E+01  1.4203866557E+01
                       9.4692443716E+00  1.4313757745E+01  9.4692443716E+00
                       9.4692443716E+00  9.4692443716E+00  4.6247309985E+00
                       9.4692443716E+00  9.4692443716E+00  1.4313757745E+01
                       9.4692443716E+00  4.6247309985E+00  9.4692443716E+00
                       1.4313757745E+01  9.4692443716E+00  9.4692443716E+00
                       4.6247309985E+00  9.4692443716E+00  9.4692443716E+00
                       1.8479792785E-19 -1.8813171650E-18  5.7016161237E-19
            xcart11    4.7298397391E+00  4.7298397391E+00  4.7298397391E+00
                       1.4189519217E+01  1.4189519217E+01  1.4189519217E+01
                       9.4596794783E+00  1.4295591421E+01  9.4596794783E+00
                       9.4596794783E+00  9.4596794783E+00  4.6237675354E+00
                       9.4596794783E+00  9.4596794783E+00  1.4295591421E+01
                       9.4596794783E+00  4.6237675354E+00  9.4596794783E+00
                       1.4295591421E+01  9.4596794783E+00  9.4596794783E+00
                       4.6237675354E+00  9.4596794783E+00  9.4596794783E+00
                       9.3855750354E-20 -1.9352552593E-18  6.2322987467E-19
            xcart12    4.7250572925E+00  4.7250572925E+00  4.7250572925E+00
                       1.4175171877E+01  1.4175171877E+01  1.4175171877E+01
                       9.4501145850E+00  1.4277360512E+01  9.4501145850E+00
                       9.4501145850E+00  9.4501145850E+00  4.6228686578E+00
                       9.4501145850E+00  9.4501145850E+00  1.4277360512E+01
                       9.4501145850E+00  4.6228686578E+00  9.4501145850E+00
                       1.4277360512E+01  9.4501145850E+00  9.4501145850E+00
                       4.6228686578E+00  9.4501145850E+00  9.4501145850E+00
                       1.4287461390E-19 -1.9783897756E-18  6.3033802678E-19
            xcart13    4.7202748458E+00  4.7202748458E+00  4.7202748458E+00
                       1.4160824538E+01  1.4160824538E+01  1.4160824538E+01
                       9.4405496917E+00  1.4259155376E+01  9.4405496917E+00
                       9.4405496917E+00  9.4405496917E+00  4.6219440076E+00
                       9.4405496917E+00  9.4405496917E+00  1.4259155376E+01
                       9.4405496917E+00  4.6219440076E+00  9.4405496917E+00
                       1.4259155376E+01  9.4405496917E+00  9.4405496917E+00
                       4.6219440076E+00  9.4405496917E+00  9.4405496917E+00
                       1.6159795124E-19 -1.2985629357E-18  3.0517699415E-19
             xred1     2.5000000000E-01  2.5000000000E-01  2.5000000000E-01
                       7.5000000000E-01  7.5000000000E-01  7.5000000000E-01
                       7.5765309954E-01  2.4234690046E-01  7.5765309954E-01
                       2.4234690046E-01  2.4234690046E-01  7.5765309954E-01
                       7.5765309954E-01  7.5765309954E-01  2.4234690046E-01
                       2.4234690046E-01  7.5765309954E-01  2.4234690046E-01
                       2.4234690046E-01  7.5765309954E-01  7.5765309954E-01
                       7.5765309954E-01  2.4234690046E-01  2.4234690046E-01
                      -6.1171432307E-20  9.3497621366E-20 -7.6380191077E-20
             xred2     2.5000000000E-01  2.5000000000E-01  2.5000000000E-01
                       7.5000000000E-01  7.5000000000E-01  7.5000000000E-01
                       7.5744495222E-01  2.4255504778E-01  7.5744495222E-01
                       2.4255504778E-01  2.4255504778E-01  7.5744495222E-01
                       7.5744495222E-01  7.5744495222E-01  2.4255504778E-01
                       2.4255504778E-01  7.5744495222E-01  2.4255504778E-01
                       2.4255504778E-01  7.5744495222E-01  7.5744495222E-01
                       7.5744495222E-01  2.4255504778E-01  2.4255504778E-01
                      -5.9875024369E-20  8.1223081359E-20 -7.0923192786E-20
             xred3     2.5000000000E-01  2.5000000000E-01  2.5000000000E-01
                       7.5000000000E-01  7.5000000000E-01  7.5000000000E-01
                       7.5723724332E-01  2.4276275668E-01  7.5723724332E-01
                       2.4276275668E-01  2.4276275668E-01  7.5723724332E-01
                       7.5723724332E-01  7.5723724332E-01  2.4276275668E-01
                       2.4276275668E-01  7.5723724332E-01  2.4276275668E-01
                       2.4276275668E-01  7.5723724332E-01  7.5723724332E-01
                       7.5723724332E-01  2.4276275668E-01  2.4276275668E-01
                      -4.8079104632E-20  8.8008840453E-20 -8.3235943575E-20
             xred4     2.5000000000E-01  2.5000000000E-01  2.5000000000E-01
                       7.5000000000E-01  7.5000000000E-01  7.5000000000E-01
                       7.5703301882E-01  2.4296698118E-01  7.5703301882E-01
                       2.4296698118E-01  2.4296698118E-01  7.5703301882E-01
                       7.5703301882E-01  7.5703301882E-01  2.4296698118E-01
                       2.4296698118E-01  7.5703301882E-01  2.4296698118E-01
                       2.4296698118E-01  7.5703301882E-01  7.5703301882E-01
                       7.5703301882E-01  2.4296698118E-01  2.4296698118E-01
                      -5.4641692120E-20  8.0103040065E-20 -7.3905898814E-20
             xred5     2.5000000000E-01  2.5000000000E-01  2.5000000000E-01
                       7.5000000000E-01  7.5000000000E-01  7.5000000000E-01
                       7.5682690745E-01  2.4317309255E-01  7.5682690745E-01
                       2.4317309255E-01  2.4317309255E-01  7.5682690745E-01
                       7.5682690745E-01  7.5682690745E-01  2.4317309255E-01
                       2.4317309255E-01  7.5682690745E-01  2.4317309255E-01
                       2.4317309255E-01  7.5682690745E-01  7.5682690745E-01
                       7.5682690745E-01  2.4317309255E-01  2.4317309255E-01
                      -6.1171432307E-20  9.3497621366E-20 -7.6380191077E-20
             xred6     2.5000000000E-01  2.5000000000E-01  2.5000000000E-01
                       7.5000000000E-01  7.5000000000E-01  7.5000000000E-01
                       7.5662080347E-01  2.4337919653E-01  7.5662080347E-01
                       2.4337919653E-01  2.4337919653E-01  7.5662080347E-01
                       7.5662080347E-01  7.5662080347E-01  2.4337919653E-01
                       2.4337919653E-01  7.5662080347E-01  2.4337919653E-01
                       2.4337919653E-01  7.5662080347E-01  7.5662080347E-01
                       7.5662080347E-01  2.4337919653E-01  2.4337919653E-01
                      -7.4226529415E-20  1.1169095215E-19 -8.0827166690E-20
             xred7     2.5000000000E-01  2.5000000000E-01  2.5000000000E-01
                       7.5000000000E-01  7.5000000000E-01  7.5000000000E-01
                       7.5641323621E-01  2.4358676379E-01  7.5641323621E-01
                       2.4358676379E-01  2.4358676379E-01  7.5641323621E-01
                       7.5641323621E-01  7.5641323621E-01  2.4358676379E-01
                       2.4358676379E-01  7.5641323621E-01  2.4358676379E-01
                       2.4358676379E-01  7.5641323621E-01  7.5641323621E-01
                       7.5641323621E-01  2.4358676379E-01  2.4358676379E-01
                      -6.7945062497E-20  1.1043451402E-19 -9.0375542313E-20
             xred8     2.5000000000E-01  2.5000000000E-01  2.5000000000E-01
                       7.5000000000E-01  7.5000000000E-01  7.5000000000E-01
                       7.5620916852E-01  2.4379083148E-01  7.5620916852E-01
                       2.4379083148E-01  2.4379083148E-01  7.5620916852E-01
                       7.5620916852E-01  7.5620916852E-01  2.4379083148E-01
                       2.4379083148E-01  7.5620916852E-01  2.4379083148E-01
                       2.4379083148E-01  7.5620916852E-01  7.5620916852E-01
                       7.5620916852E-01  2.4379083148E-01  2.4379083148E-01
                      -7.8532038208E-20  1.3106631708E-19 -9.8649724262E-20
             xred9     2.5000000000E-01  2.5000000000E-01  2.5000000000E-01
                       7.5000000000E-01  7.5000000000E-01  7.5000000000E-01
                       7.5600822478E-01  2.4399177522E-01  7.5600822478E-01
                       2.4399177522E-01  2.4399177522E-01  7.5600822478E-01
                       7.5600822478E-01  7.5600822478E-01  2.4399177522E-01
                       2.4399177522E-01  7.5600822478E-01  2.4399177522E-01
                       2.4399177522E-01  7.5600822478E-01  7.5600822478E-01
                       7.5600822478E-01  2.4399177522E-01  2.4399177522E-01
                      -8.7198477580E-20  1.3411699044E-19 -9.8476593218E-20
             xred10    2.5000000000E-01  2.5000000000E-01  2.5000000000E-01
                       7.5000000000E-01  7.5000000000E-01  7.5000000000E-01
                       7.5580253202E-01  2.4419746798E-01  7.5580253202E-01
                       2.4419746798E-01  2.4419746798E-01  7.5580253202E-01
                       7.5580253202E-01  7.5580253202E-01  2.4419746798E-01
                       2.4419746798E-01  7.5580253202E-01  2.4419746798E-01
                       2.4419746798E-01  7.5580253202E-01  7.5580253202E-01
                       7.5580253202E-01  2.4419746798E-01  2.4419746798E-01
                      -7.8990119054E-20  1.3920206311E-19 -1.1968646919E-19
             xred11    2.5000000000E-01  2.5000000000E-01  2.5000000000E-01
                       7.5000000000E-01  7.5000000000E-01  7.5000000000E-01
                       7.5560654322E-01  2.4439345678E-01  7.5560654322E-01
                       2.4439345678E-01  2.4439345678E-01  7.5560654322E-01
                       7.5560654322E-01  7.5560654322E-01  2.4439345678E-01
                       2.4439345678E-01  7.5560654322E-01  2.4439345678E-01
                       2.4439345678E-01  7.5560654322E-01  7.5560654322E-01
                       7.5560654322E-01  2.4439345678E-01  2.4439345678E-01
                      -7.4309131626E-20  1.4019190029E-19 -1.3027023745E-19
             xred12    2.5000000000E-01  2.5000000000E-01  2.5000000000E-01
                       7.5000000000E-01  7.5000000000E-01  7.5000000000E-01
                       7.5540674051E-01  2.4459325949E-01  7.5540674051E-01
                       2.4459325949E-01  2.4459325949E-01  7.5540674051E-01
                       7.5540674051E-01  7.5540674051E-01  2.4459325949E-01
                       2.4459325949E-01  7.5540674051E-01  2.4459325949E-01
                       2.4459325949E-01  7.5540674051E-01  7.5540674051E-01
                       7.5540674051E-01  2.4459325949E-01  2.4459325949E-01
                      -7.8884036234E-20  1.4558566415E-19 -1.3046684071E-19
             xred13    2.5000000000E-01  2.5000000000E-01  2.5000000000E-01
                       7.5000000000E-01  7.5000000000E-01  7.5000000000E-01
                       7.5520789792E-01  2.4479210208E-01  7.5520789792E-01
                       2.4479210208E-01  2.4479210208E-01  7.5520789792E-01
                       7.5520789792E-01  7.5520789792E-01  2.4479210208E-01
                       2.4479210208E-01  7.5520789792E-01  2.4479210208E-01
                       2.4479210208E-01  7.5520789792E-01  7.5520789792E-01
                       7.5520789792E-01  2.4479210208E-01  2.4479210208E-01
                      -6.1171432307E-20  9.3497621366E-20 -7.6380191077E-20
            znucl       55.00000   17.00000   72.00000

================================================================================


- Timing analysis has been suppressed with timopt=0



================================================================================

 Suggested references for the acknowledgment of ABINIT usage.

 The users of ABINIT have little formal obligations with respect to the ABINIT group
 (those specified in the GNU General Public License, http://www.gnu.org/copyleft/gpl.txt).
 However, it is common practice in the scientific literature,
 to acknowledge the efforts of people that have made the research possible.
 In this spirit, please find below suggested citations of work written by ABINIT developers,
 corresponding to implementations inside of ABINIT that you have used in the present run.
 Note also that it will be of great value to readers of publications presenting these results,
 to read papers enabling them to understand the theoretical formalism and details
 of the ABINIT implementation.
 For information on why they are suggested, see also https://docs.abinit.org/theory/acknowledgments.
-
- [1] Implementation of the Projector Augmented-Wave Method in the ABINIT code.
- M. Torrent, F. Jollet, F. Bottin, G. Zerah, and X. Gonze Comput. Mat. Science 42, 337, (2008).
- Comment: PAW calculations. Strong suggestion to cite this paper.
- DOI and bibtex: see https://docs.abinit.org/theory/bibliography/#torrent2008
-
- [2] Libxc: A library of exchange and correlation functionals for density functional theory.
- M.A.L. Marques, M.J.T. Oliveira, T. Burnus, Computer Physics Communications 183, 2227 (2012).
- Comment: to be cited when LibXC is used (negative value of ixc)
- Strong suggestion to cite this paper.
- DOI and bibtex: see https://docs.abinit.org/theory/bibliography/#marques2012
-
- [3] The Abinit project: Impact, environment and recent developments.
- Computer Phys. Comm. 248, 107042 (2020).
- X.Gonze, B. Amadon, G. Antonius, F.Arnardi, L.Baguet, J.-M.Beuken,
- J.Bieder, F.Bottin, J.Bouchet, E.Bousquet, N.Brouwer, F.Bruneval,
- G.Brunin, T.Cavignac, J.-B. Charraud, Wei Chen, M.Cote, S.Cottenier,
- J.Denier, G.Geneste, Ph.Ghosez, M.Giantomassi, Y.Gillet, O.Gingras,
- D.R.Hamann, G.Hautier, Xu He, N.Helbig, N.Holzwarth, Y.Jia, F.Jollet,
- W.Lafargue-Dit-Hauret, K.Lejaeghere, M.A.L.Marques, A.Martin, C.Martins,
- H.P.C. Miranda, F.Naccarato, K. Persson, G.Petretto, V.Planes, Y.Pouillon,
- S.Prokhorenko, F.Ricci, G.-M.Rignanese, A.H.Romero, M.M.Schmitt, M.Torrent,
- M.J.van Setten, B.Van Troeye, M.J.Verstraete, G.Zerah and J.W.Zwanzig
- Comment: the fifth generic paper describing the ABINIT project.
- Note that a version of this paper, that is not formatted for Computer Phys. Comm. 
- is available at https://www.abinit.org/sites/default/files/ABINIT20.pdf .
- The licence allows the authors to put it on the Web.
- DOI and bibtex: see https://docs.abinit.org/theory/bibliography/#gonze2020
-
- [4] ABINIT: Overview, and focus on selected capabilities
- J. Chem. Phys. 152, 124102 (2020).
- A. Romero, D.C. Allan, B. Amadon, G. Antonius, T. Applencourt, L.Baguet,
- J.Bieder, F.Bottin, J.Bouchet, E.Bousquet, F.Bruneval,
- G.Brunin, D.Caliste, M.Cote,
- J.Denier, C. Dreyer, Ph.Ghosez, M.Giantomassi, Y.Gillet, O.Gingras,
- D.R.Hamann, G.Hautier, F.Jollet, G. Jomard,
- A.Martin, 
- H.P.C. Miranda, F.Naccarato, G.Petretto, N.A. Pike, V.Planes,
- S.Prokhorenko, T. Rangel, F.Ricci, G.-M.Rignanese, M.Royo, M.Stengel, M.Torrent,
- M.J.van Setten, B.Van Troeye, M.J.Verstraete, J.Wiktor, J.W.Zwanziger, and X.Gonze.
- Comment: a global overview of ABINIT, with focus on selected capabilities .
- Note that a version of this paper, that is not formatted for J. Chem. Phys 
- is available at https://www.abinit.org/sites/default/files/ABINIT20_JPC.pdf .
- The licence allows the authors to put it on the Web.
- DOI and bibtex: see https://docs.abinit.org/theory/bibliography/#romero2020
-
- [5] Recent developments in the ABINIT software package.
- Computer Phys. Comm. 205, 106 (2016).
- X.Gonze, F.Jollet, F.Abreu Araujo, D.Adams, B.Amadon, T.Applencourt,
- C.Audouze, J.-M.Beuken, J.Bieder, A.Bokhanchuk, E.Bousquet, F.Bruneval
- D.Caliste, M.Cote, F.Dahm, F.Da Pieve, M.Delaveau, M.Di Gennaro,
- B.Dorado, C.Espejo, G.Geneste, L.Genovese, A.Gerossier, M.Giantomassi,
- Y.Gillet, D.R.Hamann, L.He, G.Jomard, J.Laflamme Janssen, S.Le Roux,
- A.Levitt, A.Lherbier, F.Liu, I.Lukacevic, A.Martin, C.Martins,
- M.J.T.Oliveira, S.Ponce, Y.Pouillon, T.Rangel, G.-M.Rignanese,
- A.H.Romero, B.Rousseau, O.Rubel, A.A.Shukri, M.Stankovski, M.Torrent,
- M.J.Van Setten, B.Van Troeye, M.J.Verstraete, D.Waroquier, J.Wiktor,
- B.Xu, A.Zhou, J.W.Zwanziger.
- Comment: the fourth generic paper describing the ABINIT project.
- Note that a version of this paper, that is not formatted for Computer Phys. Comm. 
- is available at https://www.abinit.org/sites/default/files/ABINIT16.pdf .
- The licence allows the authors to put it on the Web.
- DOI and bibtex: see https://docs.abinit.org/theory/bibliography/#gonze2016
-
- Proc.   0 individual time (sec): cpu=       3684.2  wall=       3684.3

================================================================================

 Calculation completed.
.Delivered   0 WARNINGs and  39 COMMENTs to log file.
+Overall time at end (sec) : cpu=      22105.5  wall=      22106.0
