
.Version 9.2.2 of ABINIT 
.(MPI version, prepared for a x86_64_linux_gnu9.3 computer) 

.Copyright (C) 1998-2020 ABINIT group . 
 ABINIT comes with ABSOLUTELY NO WARRANTY.
 It is free software, and you are welcome to redistribute it
 under certain conditions (GNU General Public License,
 see ~abinit/COPYING or http://www.gnu.org/copyleft/gpl.txt).

 ABINIT is a project of the Universite Catholique de Louvain,
 Corning Inc. and other collaborators, see ~abinit/doc/developers/contributors.txt .
 Please read https://docs.abinit.org/theory/acknowledgments for suggested
 acknowledgments of the ABINIT effort.
 For more information, see https://www.abinit.org .

.Starting date : Mon 12 Dec 2022.
- ( at 09h08 )
  
- The starting date is more than 2 years after the initial release
- of this version of ABINIT, namely Nov 2020.
- Note that the use beyond 3 years after the release will not be supported.
- Action: please, switch to a more recent version of ABINIT.

- input  file    -> Cs2TiI6.in
- output file    -> Cs2TiI6.out
- root for input  files -> Cs2TiI6i
- root for output files -> Cs2TiI6o

- inpspheads : Reading pseudopotential header in XML form from 
-   ../../../Psps_for_tests/ATOMICDATA/Cs.GGA_PBE-JTH.xml
- inpspheads : Reading pseudopotential header in XML form from 
-   ../../../Psps_for_tests/ATOMICDATA/I.GGA_PBE-JTH.xml
- inpspheads : Reading pseudopotential header in XML form from 
-   ../../../Psps_for_tests/ATOMICDATA/Zr.GGA_PBE-JTH.xml
- inpspheads : Reading pseudopotential header in XML form from 
-   ../../../Psps_for_tests/ATOMICDATA/Cl.GGA_PBE-JTH.xml

 DATASET    1 : space group Im m 2 (# 44); Bravais oI (body-center ortho.)
================================================================================
 Values of the parameters that define the memory need for DATASET  1.
     intxc =       0    ionmov =       0      iscf =      17    lmnmax =      18
     lnmax =       6     mgfft =      60  mpssoang =       3    mqgrid =    3532
     natom =       9  nloc_mem =       2    nspden =       1   nspinor =       1
    nsppol =       1      nsym =       4    n1xccc =       1    ntypat =       4
    occopt =       1   xclevel =       2
-    mband =          42        mffmem =           1         mkmem =          47
       mpw =        7367          nfft =      216000          nkpt =         280
Pmy_natom=         2
 PAW method is used; the additional fine FFT grid is defined by:
   mgfftf=        90    nfftf =    729000
================================================================================
P This job should need less than                     460.850 Mbytes of memory.
  Rough estimation (10% accuracy) of disk space for files :
_ WF disk file :   1321.961 Mbytes ; DEN or POT disk file :      5.564 Mbytes.
================================================================================


 DATASET    2 : space group Im m 2 (# 44); Bravais oI (body-center ortho.)
================================================================================
 Values of the parameters that define the memory need for DATASET  2.
     intxc =       0    ionmov =       0      iscf =      17    lmnmax =      18
     lnmax =       6     mgfft =      60  mpssoang =       3    mqgrid =    3496
     natom =       9  nloc_mem =       2    nspden =       1   nspinor =       1
    nsppol =       1      nsym =       4    n1xccc =       1    ntypat =       4
    occopt =       1   xclevel =       2
-    mband =          42        mffmem =           1         mkmem =          47
       mpw =        7160          nfft =      216000          nkpt =         280
Pmy_natom=         2
 PAW method is used; the additional fine FFT grid is defined by:
   mgfftf=        90    nfftf =    729000
================================================================================
P This job should need less than                     453.952 Mbytes of memory.
  Rough estimation (10% accuracy) of disk space for files :
_ WF disk file :   1284.816 Mbytes ; DEN or POT disk file :      5.564 Mbytes.
================================================================================


 DATASET    3 : space group Im m 2 (# 44); Bravais oI (body-center ortho.)
================================================================================
 Values of the parameters that define the memory need for DATASET  3.
     intxc =       0    ionmov =       0      iscf =      17    lmnmax =      18
     lnmax =       6     mgfft =      60  mpssoang =       3    mqgrid =    3461
     natom =       9  nloc_mem =       2    nspden =       1   nspinor =       1
    nsppol =       1      nsym =       4    n1xccc =       1    ntypat =       4
    occopt =       1   xclevel =       2
-    mband =          42        mffmem =           1         mkmem =          47
       mpw =        6935          nfft =      216000          nkpt =         280
Pmy_natom=         2
 PAW method is used; the additional fine FFT grid is defined by:
   mgfftf=        90    nfftf =    729000
================================================================================
P This job should need less than                     446.450 Mbytes of memory.
  Rough estimation (10% accuracy) of disk space for files :
_ WF disk file :   1244.442 Mbytes ; DEN or POT disk file :      5.564 Mbytes.
================================================================================


 DATASET    4 : space group Im m 2 (# 44); Bravais oI (body-center ortho.)
================================================================================
 Values of the parameters that define the memory need for DATASET  4.
     intxc =       0    ionmov =       0      iscf =      17    lmnmax =      18
     lnmax =       6     mgfft =      54  mpssoang =       3    mqgrid =    3424
     natom =       9  nloc_mem =       2    nspden =       1   nspinor =       1
    nsppol =       1      nsym =       4    n1xccc =       1    ntypat =       4
    occopt =       1   xclevel =       2
-    mband =          42        mffmem =           1         mkmem =          47
       mpw =        6741          nfft =      157464          nkpt =         280
Pmy_natom=         2
 PAW method is used; the additional fine FFT grid is defined by:
   mgfftf=        90    nfftf =    729000
================================================================================
P This job should need less than                     431.289 Mbytes of memory.
  Rough estimation (10% accuracy) of disk space for files :
_ WF disk file :   1209.630 Mbytes ; DEN or POT disk file :      5.564 Mbytes.
================================================================================


 DATASET    5 : space group Im m 2 (# 44); Bravais oI (body-center ortho.)
================================================================================
 Values of the parameters that define the memory need for DATASET  5.
     intxc =       0    ionmov =       0      iscf =      17    lmnmax =      18
     lnmax =       6     mgfft =      54  mpssoang =       3    mqgrid =    3388
     natom =       9  nloc_mem =       2    nspden =       1   nspinor =       1
    nsppol =       1      nsym =       4    n1xccc =       1    ntypat =       4
    occopt =       1   xclevel =       2
-    mband =          42        mffmem =           1         mkmem =          47
       mpw =        6526          nfft =      157464          nkpt =         280
Pmy_natom=         2
 PAW method is used; the additional fine FFT grid is defined by:
   mgfftf=        90    nfftf =    729000
================================================================================
P This job should need less than                     424.136 Mbytes of memory.
  Rough estimation (10% accuracy) of disk space for files :
_ WF disk file :   1171.049 Mbytes ; DEN or POT disk file :      5.564 Mbytes.
================================================================================


 DATASET    6 : space group Im m 2 (# 44); Bravais oI (body-center ortho.)
================================================================================
 Values of the parameters that define the memory need for DATASET  6.
     intxc =       0    ionmov =       0      iscf =      17    lmnmax =      18
     lnmax =       6     mgfft =      54  mpssoang =       3    mqgrid =    3351
     natom =       9  nloc_mem =       2    nspden =       1   nspinor =       1
    nsppol =       1      nsym =       4    n1xccc =       1    ntypat =       4
    occopt =       1   xclevel =       2
-    mband =          42        mffmem =           1         mkmem =          47
       mpw =        6306          nfft =      157464          nkpt =         280
Pmy_natom=         2
 PAW method is used; the additional fine FFT grid is defined by:
   mgfftf=        90    nfftf =    729000
================================================================================
P This job should need less than                     416.819 Mbytes of memory.
  Rough estimation (10% accuracy) of disk space for files :
_ WF disk file :   1131.572 Mbytes ; DEN or POT disk file :      5.564 Mbytes.
================================================================================


 DATASET    7 : space group Im m 2 (# 44); Bravais oI (body-center ortho.)
================================================================================
 Values of the parameters that define the memory need for DATASET  7.
     intxc =       0    ionmov =       0      iscf =      17    lmnmax =      18
     lnmax =       6     mgfft =      54  mpssoang =       3    mqgrid =    3313
     natom =       9  nloc_mem =       2    nspden =       1   nspinor =       1
    nsppol =       1      nsym =       4    n1xccc =       1    ntypat =       4
    occopt =       1   xclevel =       2
-    mband =          42        mffmem =           1         mkmem =          47
       mpw =        6111          nfft =      157464          nkpt =         280
Pmy_natom=         2
 PAW method is used; the additional fine FFT grid is defined by:
   mgfftf=        90    nfftf =    729000
================================================================================
P This job should need less than                     410.356 Mbytes of memory.
  Rough estimation (10% accuracy) of disk space for files :
_ WF disk file :   1096.580 Mbytes ; DEN or POT disk file :      5.564 Mbytes.
================================================================================


 DATASET    8 : space group Im m 2 (# 44); Bravais oI (body-center ortho.)
================================================================================
 Values of the parameters that define the memory need for DATASET  8.
     intxc =       0    ionmov =       0      iscf =      17    lmnmax =      18
     lnmax =       6     mgfft =      54  mpssoang =       3    mqgrid =    3276
     natom =       9  nloc_mem =       2    nspden =       1   nspinor =       1
    nsppol =       1      nsym =       4    n1xccc =       1    ntypat =       4
    occopt =       1   xclevel =       2
-    mband =          42        mffmem =           1         mkmem =          47
       mpw =        5923          nfft =      157464          nkpt =         280
Pmy_natom=         2
 PAW method is used; the additional fine FFT grid is defined by:
   mgfftf=        90    nfftf =    729000
================================================================================
P This job should need less than                     404.137 Mbytes of memory.
  Rough estimation (10% accuracy) of disk space for files :
_ WF disk file :   1062.845 Mbytes ; DEN or POT disk file :      5.564 Mbytes.
================================================================================


 DATASET    9 : space group Im m 2 (# 44); Bravais oI (body-center ortho.)
================================================================================
 Values of the parameters that define the memory need for DATASET  9.
     intxc =       0    ionmov =       0      iscf =      17    lmnmax =      18
     lnmax =       6     mgfft =      54  mpssoang =       3    mqgrid =    3239
     natom =       9  nloc_mem =       2    nspden =       1   nspinor =       1
    nsppol =       1      nsym =       4    n1xccc =       1    ntypat =       4
    occopt =       1   xclevel =       2
-    mband =          42        mffmem =           1         mkmem =          47
       mpw =        5747          nfft =      157464          nkpt =         280
Pmy_natom=         2
 PAW method is used; the additional fine FFT grid is defined by:
   mgfftf=        90    nfftf =    729000
================================================================================
P This job should need less than                     398.332 Mbytes of memory.
  Rough estimation (10% accuracy) of disk space for files :
_ WF disk file :   1031.263 Mbytes ; DEN or POT disk file :      5.564 Mbytes.
================================================================================


 DATASET   10 : space group Im m 2 (# 44); Bravais oI (body-center ortho.)
================================================================================
 Values of the parameters that define the memory need for DATASET 10.
     intxc =       0    ionmov =       0      iscf =      17    lmnmax =      18
     lnmax =       6     mgfft =      54  mpssoang =       3    mqgrid =    3201
     natom =       9  nloc_mem =       2    nspden =       1   nspinor =       1
    nsppol =       1      nsym =       4    n1xccc =       1    ntypat =       4
    occopt =       1   xclevel =       2
-    mband =          42        mffmem =           1         mkmem =          47
       mpw =        5540          nfft =      157464          nkpt =         280
Pmy_natom=         2
 PAW method is used; the additional fine FFT grid is defined by:
   mgfftf=        80    nfftf =    512000
================================================================================
P This job should need less than                     339.349 Mbytes of memory.
  Rough estimation (10% accuracy) of disk space for files :
_ WF disk file :    994.118 Mbytes ; DEN or POT disk file :      3.908 Mbytes.
================================================================================

--------------------------------------------------------------------------------
------------- Echo of variables that govern the present computation ------------
--------------------------------------------------------------------------------
-
- outvars: echo of selected default values                                      
-   iomode0 =  0 , fftalg0 =112 , wfoptalg0 = 10
-
- outvars: echo of global parameters not present in the input file              
-  max_nthreads =    0
-
 -outvars: echo values of preprocessed input variables --------
            acell1     1.4999264538E+01  1.5344769320E+01  1.4999264538E+01 Bohr
            acell2     1.4849864192E+01  1.5182096942E+01  1.4849864192E+01 Bohr
            acell3     1.4701097942E+01  1.5023902435E+01  1.4701097942E+01 Bohr
            acell4     1.4548849465E+01  1.4862656094E+01  1.4548849465E+01 Bohr
            acell5     1.4396909584E+01  1.4704349196E+01  1.4396909584E+01 Bohr
            acell6     1.4242119652E+01  1.4547501748E+01  1.4242119652E+01 Bohr
            acell7     1.4089479221E+01  1.4382606310E+01  1.4089479221E+01 Bohr
            acell8     1.3934675920E+01  1.4224450569E+01  1.3934675920E+01 Bohr
            acell9     1.3780173011E+01  1.4063669666E+01  1.3780173011E+01 Bohr
            acell10    1.3625420036E+01  1.3901937490E+01  1.3625420036E+01 Bohr
              amu      1.32905430E+02  1.26904470E+02  9.12240000E+01
                       3.54527000E+01
           diemac      1.20000000E+01
             ecut      1.60000000E+01 Hartree
-          fftalg         112
           istwfk        2    0    0    0    0    0    3    0    0    0
                         0    0    0    0    0    0    0    0    0    0
                         0    0    0    0    0    0    0    0    0    0
                         0    0    0    0    0    0    0    0    0    0
                         0    0    0    0    0    0    0    0    0    0
                       outvar_i_n : Printing only first  50 k-points.
              ixc     -101130
           jdtset        1    2    3    4    5    6    7    8    9   10
              kpt      0.00000000E+00  0.00000000E+00  0.00000000E+00
                       8.33333333E-02  0.00000000E+00  0.00000000E+00
                       1.66666667E-01  0.00000000E+00  0.00000000E+00
                       2.50000000E-01  0.00000000E+00  0.00000000E+00
                       3.33333333E-01  0.00000000E+00  0.00000000E+00
                       4.16666667E-01  0.00000000E+00  0.00000000E+00
                       5.00000000E-01  0.00000000E+00  0.00000000E+00
                       0.00000000E+00  8.33333333E-02  0.00000000E+00
                       8.33333333E-02  8.33333333E-02  0.00000000E+00
                       1.66666667E-01  8.33333333E-02  0.00000000E+00
                       2.50000000E-01  8.33333333E-02  0.00000000E+00
                       3.33333333E-01  8.33333333E-02  0.00000000E+00
                       4.16666667E-01  8.33333333E-02  0.00000000E+00
                       5.00000000E-01  8.33333333E-02  0.00000000E+00
                      -4.16666667E-01  8.33333333E-02  0.00000000E+00
                      -3.33333333E-01  8.33333333E-02  0.00000000E+00
                      -2.50000000E-01  8.33333333E-02  0.00000000E+00
                      -1.66666667E-01  8.33333333E-02  0.00000000E+00
                      -8.33333333E-02  8.33333333E-02  0.00000000E+00
                       0.00000000E+00  1.66666667E-01  0.00000000E+00
                       8.33333333E-02  1.66666667E-01  0.00000000E+00
                       1.66666667E-01  1.66666667E-01  0.00000000E+00
                       2.50000000E-01  1.66666667E-01  0.00000000E+00
                       3.33333333E-01  1.66666667E-01  0.00000000E+00
                       4.16666667E-01  1.66666667E-01  0.00000000E+00
                       5.00000000E-01  1.66666667E-01  0.00000000E+00
                      -4.16666667E-01  1.66666667E-01  0.00000000E+00
                      -3.33333333E-01  1.66666667E-01  0.00000000E+00
                      -2.50000000E-01  1.66666667E-01  0.00000000E+00
                      -1.66666667E-01  1.66666667E-01  0.00000000E+00
                      -8.33333333E-02  1.66666667E-01  0.00000000E+00
                       0.00000000E+00  2.50000000E-01  0.00000000E+00
                       8.33333333E-02  2.50000000E-01  0.00000000E+00
                       1.66666667E-01  2.50000000E-01  0.00000000E+00
                       2.50000000E-01  2.50000000E-01  0.00000000E+00
                       3.33333333E-01  2.50000000E-01  0.00000000E+00
                       4.16666667E-01  2.50000000E-01  0.00000000E+00
                       5.00000000E-01  2.50000000E-01  0.00000000E+00
                      -4.16666667E-01  2.50000000E-01  0.00000000E+00
                      -3.33333333E-01  2.50000000E-01  0.00000000E+00
                      -2.50000000E-01  2.50000000E-01  0.00000000E+00
                      -1.66666667E-01  2.50000000E-01  0.00000000E+00
                      -8.33333333E-02  2.50000000E-01  0.00000000E+00
                       0.00000000E+00  3.33333333E-01  0.00000000E+00
                       8.33333333E-02  3.33333333E-01  0.00000000E+00
                       1.66666667E-01  3.33333333E-01  0.00000000E+00
                       2.50000000E-01  3.33333333E-01  0.00000000E+00
                       3.33333333E-01  3.33333333E-01  0.00000000E+00
                       4.16666667E-01  3.33333333E-01  0.00000000E+00
                       5.00000000E-01  3.33333333E-01  0.00000000E+00
                       outvar_i_n : Printing only first  50 k-points.
         kptrlatt       12    0    0      0   12    0      0    0   12
          kptrlen1     1.78058435E+02
          kptrlen2     1.76242579E+02
          kptrlen3     1.74348556E+02
          kptrlen4     1.72652822E+02
          kptrlen5     1.70910729E+02
          kptrlen6     1.69288754E+02
          kptrlen7     1.67652728E+02
          kptrlen8     1.66047672E+02
          kptrlen9     1.64458356E+02
          kptrlen10    1.62893366E+02
P           mkmem          47
            natom           9
            nband          42
           ndtset          10
            ngfft1         60      60      60
            ngfft2         60      60      60
            ngfft3         60      60      60
            ngfft4         54      54      54
            ngfft5         54      54      54
            ngfft6         54      54      54
            ngfft7         54      54      54
            ngfft8         54      54      54
            ngfft9         54      54      54
            ngfft10        54      54      54
          ngfftdg1         90      90      90
          ngfftdg2         90      90      90
          ngfftdg3         90      90      90
          ngfftdg4         90      90      90
          ngfftdg5         90      90      90
          ngfftdg6         90      90      90
          ngfftdg7         90      90      90
          ngfftdg8         90      90      90
          ngfftdg9         90      90      90
          ngfftdg10        80      80      80
             nkpt         280
            nstep        2500
             nsym           4
           ntypat           4
              occ      2.000000  2.000000  2.000000  2.000000  2.000000  2.000000
                       2.000000  2.000000  2.000000  2.000000  2.000000  2.000000
                       2.000000  2.000000  2.000000  2.000000  2.000000  2.000000
                       2.000000  2.000000  2.000000  2.000000  2.000000  2.000000
                       2.000000  2.000000  2.000000  2.000000  2.000000  2.000000
                       2.000000  2.000000  2.000000  2.000000  2.000000  2.000000
                       0.000000  0.000000  0.000000  0.000000  0.000000  0.000000
        pawecutdg      4.00000000E+01 Hartree
            prtwf           0
            rprim1     1.1940469407E-02  7.0263085328E-01  7.1145436200E-01
                       7.0710678119E-01  0.0000000000E+00  7.0710678119E-01
                       7.1145436200E-01  7.0263085328E-01  1.1940469407E-02
            rprim2     1.1790348225E-02  7.0295521909E-01  7.1113637766E-01
                       7.0710678119E-01  0.0000000000E+00  7.0710678119E-01
                       7.1113637766E-01  7.0295521909E-01  1.1790348225E-02
            rprim3     1.1901019452E-02  7.0336189485E-01  7.1073230587E-01
                       7.0710678119E-01  0.0000000000E+00  7.0710678119E-01
                       7.1073230587E-01  7.0336189485E-01  1.1901019452E-02
            rprim4     1.1541113028E-02  7.0328192163E-01  7.1081737558E-01
                       7.0710678119E-01  0.0000000000E+00  7.0710678119E-01
                       7.1081737558E-01  7.0328192163E-01  1.1541113028E-02
            rprim5     1.1340409939E-02  7.0323571190E-01  7.1086632260E-01
                       7.0710678119E-01  0.0000000000E+00  7.0710678119E-01
                       7.1086632260E-01  7.0323571190E-01  1.1340409939E-02
            rprim6     1.0925397199E-02  7.0275981127E-01  7.1134329501E-01
                       7.0710678119E-01  0.0000000000E+00  7.0710678119E-01
                       7.1134329501E-01  7.0275981127E-01  1.0925397199E-02
            rprim7     1.0327092232E-02  7.0261950333E-01  7.1149081843E-01
                       7.0710678119E-01  0.0000000000E+00  7.0710678119E-01
                       7.1149081843E-01  7.0261950333E-01  1.0327092232E-02
            rprim8     9.8227103037E-03  7.0212240623E-01  7.1198851187E-01
                       7.0710678119E-01  0.0000000000E+00  7.0710678119E-01
                       7.1198851187E-01  7.0212240623E-01  9.8227103037E-03
            rprim9     9.2057842082E-03  7.0166436033E-01  7.1244815880E-01
                       7.0710678119E-01  0.0000000000E+00  7.0710678119E-01
                       7.1244815880E-01  7.0166436033E-01  9.2057842082E-03
            rprim10    8.4977424391E-03  7.0115399625E-01  7.1295922879E-01
                       7.0710678119E-01  0.0000000000E+00  7.0710678119E-01
                       7.1295922879E-01  7.0115399625E-01  8.4977424391E-03
          spgroup          44
           symrel      1  0  0   0  1  0   0  0  1       0  1 -1   0  1  0  -1  1  0
                       0  0 -1   0 -1  0  -1  0  0       1 -1  0   0 -1  0   0 -1  1
           toldfe      1.00000000E-08 Hartree
            typat      1  1  2  4  2  4  4  4  3
           useylm           1
              wtk        0.00058    0.00231    0.00231    0.00231    0.00231    0.00231
                         0.00116    0.00231    0.00231    0.00463    0.00463    0.00463
                         0.00463    0.00463    0.00463    0.00463    0.00463    0.00463
                         0.00463    0.00231    0.00463    0.00231    0.00463    0.00463
                         0.00463    0.00463    0.00463    0.00463    0.00463    0.00463
                         0.00463    0.00231    0.00463    0.00463    0.00231    0.00463
                         0.00463    0.00463    0.00463    0.00463    0.00463    0.00463
                         0.00463    0.00231    0.00463    0.00463    0.00463    0.00231
                         0.00463    0.00463
                       outvars : Printing only first  50 k-points.
           xangst1     2.9193109941E+00  2.7330950785E+00  2.8224683321E+00
                       8.6610903202E+00  8.4208450163E+00  8.5642476582E+00
                       5.6672780900E+00  5.5769700474E+00  2.9316663396E+00
                       5.8521091312E+00  5.5769700474E+00  8.8404748377E+00
                       8.5518923126E+00  5.5769700474E+00  5.8162805622E+00
                       5.7752126491E+00  8.6866976774E+00  5.7083460030E+00
                       5.7752126492E+00  2.4672424174E+00  5.7083460031E+00
                       2.6430838146E+00  5.5769700474E+00  5.6314495210E+00
                       8.9044647990E-02 -1.7009100210E-18 -8.9044647990E-02
           xangst2     2.8963053711E+00  2.6934745344E+00  2.7846044250E+00
                       8.5772151672E+00  8.3544644816E+00  8.4655142211E+00
                       5.6000655621E+00  5.5239695080E+00  2.9235513324E+00
                       5.7804030972E+00  5.5239695080E+00  8.7235332478E+00
                       8.4382682598E+00  5.5239695080E+00  5.7617540301E+00
                       5.7149661228E+00  8.5807768595E+00  5.6468534694E+00
                       5.7149661229E+00  2.4671621565E+00  5.6468534694E+00
                       2.6382863444E+00  5.5239695080E+00  5.5814164950E+00
                       8.6802321366E-02 -6.6100676540E-19 -8.6802321366E-02
           xangst3     2.8690131026E+00  2.6599386884E+00  2.7527027148E+00
                       8.4907289199E+00  8.2836493002E+00  8.3744185321E+00
                       5.5361567152E+00  5.4717939943E+00  2.9152291639E+00
                       5.7177936737E+00  5.4717939943E+00  8.6067558481E+00
                       8.3282024708E+00  5.4717939943E+00  5.7072749195E+00
                       5.6545900047E+00  8.4775233394E+00  5.5888416301E+00
                       5.6545900047E+00  2.4660646493E+00  5.5888416301E+00
                       2.6366757867E+00  5.4717939943E+00  5.5256379610E+00
                       8.5975860628E-02  5.0985121579E-18 -8.5975860628E-02
           xangst4     2.8378774294E+00  2.6293493913E+00  2.7235024593E+00
                       8.3992573181E+00  8.1996724772E+00  8.2848823480E+00
                       5.4737071151E+00  5.4145109343E+00  2.9013321947E+00
                       5.6488135368E+00  5.4145109343E+00  8.4903563456E+00
                       8.2214275827E+00  5.4145109343E+00  5.6490526622E+00
                       5.5956321293E+00  8.3641050499E+00  5.5271276480E+00
                       5.5956321294E+00  2.4649168186E+00  5.5271276480E+00
                       2.6324034317E+00  5.4145109343E+00  5.4739462406E+00
                       8.6288436914E-02 -2.3330806130E-17 -8.6288436914E-02
           xangst5     2.8086565478E+00  2.5971081465E+00  2.6934873070E+00
                       8.3108004027E+00  8.1181174984E+00  8.1956311619E+00
                       5.4125350452E+00  5.3576128224E+00  2.8878997637E+00
                       5.5845559449E+00  5.3576128224E+00  8.3753754413E+00
                       8.1163879460E+00  5.3576128224E+00  5.5917526645E+00
                       5.5343734914E+00  8.2521511511E+00  5.4699142182E+00
                       5.5343734915E+00  2.4630744938E+00  5.4699142183E+00
                       2.6289122684E+00  5.3576128224E+00  5.4197317648E+00
                       8.6555701065E-02  7.2518199784E-19 -8.6555701065E-02
           xangst6     2.7770030139E+00  2.5666636095E+00  2.6664509112E+00
                       8.2204569389E+00  8.0261827766E+00  8.1099048363E+00
                       5.3532304519E+00  5.2964231930E+00  2.8707685173E+00
                       5.5176281923E+00  5.2964231930E+00  8.2622372374E+00
                       8.0161393329E+00  5.2964231930E+00  5.5336773982E+00
                       5.4752805108E+00  8.1320362177E+00  5.4116273393E+00
                       5.4752805108E+00  2.4608101684E+00  5.4116273393E+00
                       2.6246706127E+00  5.2964231930E+00  5.3692796579E+00
                       8.7941836385E-02 -3.6306786751E-18 -8.7941836385E-02
           xangst7     2.7439916834E+00  2.5388928314E+00  2.6377608766E+00
                       8.1257442434E+00  7.9383321169E+00  8.0195134366E+00
                       5.2923821853E+00  5.2386124741E+00  2.8507865366E+00
                       5.4463036588E+00  5.2386124741E+00  8.1445056762E+00
                       7.9127185834E+00  5.2386124741E+00  5.4711229346E+00
                       5.4120133734E+00  8.0194797793E+00  5.3514917467E+00
                       5.4120133732E+00  2.4577451690E+00  5.3514917465E+00
                       2.6189994437E+00  5.2386124741E+00  5.3172014611E+00
                       8.9853935295E-02 -1.4320974454E-18 -8.9853935295E-02
           xangst8     2.7112427535E+00  2.5102043846E+00  2.6113303333E+00
                       8.0338158402E+00  7.8445745611E+00  7.9339034200E+00
                       5.2341877267E+00  5.1773894729E+00  2.8301236972E+00
                       5.3800574509E+00  5.1773894729E+00  8.0309291356E+00
                       7.8150224763E+00  5.1773894729E+00  5.4109584468E+00
                       5.3497894690E+00  7.9007924541E+00  5.2953567046E+00
                       5.3497894689E+00  2.4539864916E+00  5.2953567045E+00
                       2.6142170379E+00  5.1773894729E+00  5.2650887226E+00
                       9.2462470620E-02 -4.4754009168E-18 -9.2462470620E-02
           xangst9     2.6771742501E+00  2.4828745094E+00  2.5852370675E+00
                       7.9395855678E+00  7.7504139155E+00  7.8476483852E+00
                       5.1756310529E+00  5.1166442125E+00  2.8068332033E+00
                       5.3110976550E+00  5.1166442125E+00  7.9159393104E+00
                       7.7179894320E+00  5.1166442125E+00  5.3491915824E+00
                       5.2864235156E+00  7.7839403785E+00  5.2383991196E+00
                       5.2864235157E+00  2.4493480464E+00  5.2383991197E+00
                       2.6088833249E+00  5.1166442125E+00  5.2137249803E+00
                       9.6082227179E-02  2.2874310700E-18 -9.6082227179E-02
           xangst10    2.6426533055E+00  2.4563213304E+00  2.5592402915E+00
                       7.8445469026E+00  7.6546863364E+00  7.7611338886E+00
                       5.1175899327E+00  5.0555038334E+00  2.7813697390E+00
                       5.2405216487E+00  5.0555038334E+00  7.8009208624E+00
                       7.6224174551E+00  5.0555038334E+00  5.2861972615E+00
                       5.2220174528E+00  7.6671551295E+00  5.1817697414E+00
                       5.2220174528E+00  2.4438525372E+00  5.1817697413E+00
                       2.6028663318E+00  5.0555038334E+00  5.1632655454E+00
                       1.0051829453E-01 -2.2671720379E-17 -1.0051829453E-01
            xcart1     5.5166982755E+00  5.1648011935E+00  5.3336921663E+00
                       1.6367088717E+01  1.5913090888E+01  1.6184082608E+01
                       1.0709603509E+01  1.0538946041E+01  5.5400464949E+00
                       1.1058883558E+01  1.0538946041E+01  1.6706076328E+01
                       1.6160734389E+01  1.0538946041E+01  1.0991177375E+01
                       1.0913570266E+01  1.6415479609E+01  1.0787210618E+01
                       1.0913570266E+01  4.6624124723E+00  1.0787210618E+01
                       4.9947045558E+00  1.0538946041E+01  1.0641897326E+01
                       1.6826999830E-01 -3.2142541163E-18 -1.6826999830E-01
            xcart2     5.4732239486E+00  5.0899292160E+00  5.2621397517E+00
                       1.6208587649E+01  1.5787649857E+01  1.5997503452E+01
                       1.0582590239E+01  1.0438789537E+01  5.5247113537E+00
                       1.0923378791E+01  1.0438789537E+01  1.6485088749E+01
                       1.5946016047E+01  1.0438789537E+01  1.0888137162E+01
                       1.0799720831E+01  1.6215318272E+01  1.0671006570E+01
                       1.0799720831E+01  4.6622608012E+00  1.0671006570E+01
                       4.9856386511E+00  1.0438789537E+01  1.0547348609E+01
                       1.6403261508E-01 -1.2491217586E-18 -1.6403261508E-01
            xcart3     5.4216490355E+00  5.0265556514E+00  5.2018542562E+00
                       1.6045152327E+01  1.5653828558E+01  1.5825357548E+01
                       1.0461820020E+01  1.0340192105E+01  5.5089847344E+00
                       1.0805064128E+01  1.0340192105E+01  1.6264411445E+01
                       1.5738021849E+01  1.0340192105E+01  1.0785186563E+01
                       1.0685626503E+01  1.6020197397E+01  1.0561380081E+01
                       1.0685626503E+01  4.6601868131E+00  1.0561380081E+01
                       4.9825951380E+00  1.0340192105E+01  1.0441942456E+01
                       1.6247083063E-01  9.6347916636E-18 -1.6247083063E-01
            xcart4     5.3628111403E+00  4.9687502572E+00  5.1466737703E+00
                       1.5872296051E+01  1.5495135361E+01  1.5656158681E+01
                       1.0343807379E+01  1.0231942809E+01  5.4827232684E+00
                       1.0674710560E+01  1.0231942809E+01  1.6044448264E+01
                       1.5536246553E+01  1.0231942809E+01  1.0675162442E+01
                       1.0574212265E+01  1.5805867891E+01  1.0444757556E+01
                       1.0574212265E+01  4.6580177276E+00  1.0444757556E+01
                       4.9745215572E+00  1.0231942809E+01  1.0344259261E+01
                       1.6306151420E-01 -4.4088834045E-17 -1.6306151420E-01
            xcart5     5.3075916767E+00  4.9078231343E+00  5.0899533527E+00
                       1.5705136706E+01  1.5341018787E+01  1.5487498382E+01
                       1.0228208920E+01  1.0124420960E+01  5.4573396526E+00
                       1.0553281310E+01  1.0124420960E+01  1.5827165844E+01
                       1.5337750406E+01  1.0124420960E+01  1.0566881139E+01
                       1.0458450216E+01  1.5594305683E+01  1.0336639843E+01
                       1.0458450216E+01  4.6545362382E+00  1.0336639843E+01
                       4.9679242146E+00  1.0124420960E+01  1.0241808749E+01
                       1.6356657025E-01  1.3703953724E-18 -1.6356657025E-01
            xcart6     5.2477751664E+00  4.8502912971E+00  5.0388619690E+00
                       1.5534412302E+01  1.5167287340E+01  1.5325499104E+01
                       1.0116139480E+01  1.0008789319E+01  5.4249662886E+00
                       1.0426806186E+01  1.0008789319E+01  1.5613365624E+01
                       1.5148307982E+01  1.0008789319E+01  1.0457134790E+01
                       1.0346780666E+01  1.5367321354E+01  1.0226493604E+01
                       1.0346780666E+01  4.6502572833E+00  1.0226493605E+01
                       4.9599086470E+00  1.0008789319E+01  1.0146468084E+01
                       1.6618598639E-01 -6.8609883725E-18 -1.6618598639E-01
            xcart7     5.1853927925E+00  4.7978121320E+00  4.9846456608E+00
                       1.5355431246E+01  1.5001273653E+01  1.5154684114E+01
                       1.0001152921E+01  9.8995428924E+00  5.3872058175E+00
                       1.0292022352E+01  9.8995428924E+00  1.5390885216E+01
                       1.4952871089E+01  9.8995428924E+00  1.0338923986E+01
                       1.0227223103E+01  1.5154620511E+01  1.0112853804E+01
                       1.0227223103E+01  4.6444652738E+00  1.0112853803E+01
                       4.9491916908E+00  9.8995428924E+00  1.0048054555E+01
                       1.6979932967E-01 -2.7062719674E-18 -1.6979932967E-01
            xcart8     5.1235062839E+00  4.7435988244E+00  4.9346991723E+00
                       1.5181711740E+01  1.4824097550E+01  1.4992904629E+01
                       9.8911813316E+00  9.7838481870E+00  5.3481587100E+00
                       1.0166835161E+01  9.7838481870E+00  1.5176256659E+01
                       1.4768252202E+01  9.7838481870E+00  1.0225229581E+01
                       1.0109636965E+01  1.4930333971E+01  1.0006773948E+01
                       1.0109636965E+01  4.6373624029E+00  1.0006773948E+01
                       4.9401542536E+00  9.7838481870E+00  9.9495757510E+00
                       1.7472874704E-01 -8.4572820675E-18 -1.7472874704E-01
            xcart9     5.0591261428E+00  4.6919528451E+00  4.8853900462E+00
                       1.5003642332E+01  1.4646159717E+01  1.4829906235E+01
                       9.7805252549E+00  9.6690562810E+00  5.3041460549E+00
                       1.0036520033E+01  9.6690562810E+00  1.4958957381E+01
                       1.4584886323E+01  9.6690562810E+00  1.0108507123E+01
                       9.9898926669E+00  1.4709515550E+01  9.8991397108E+00
                       9.9898926672E+00  4.6285970118E+00  9.8991397110E+00
                       4.9300749968E+00  9.6690562810E+00  9.8525123450E+00
                       1.8156909561E-01  4.3226182702E-18 -1.8156909561E-01
            xcart10    4.9938910116E+00  4.6417746087E+00  4.8362632592E+00
                       1.4824045283E+01  1.4465260809E+01  1.4666417530E+01
                       9.6708434332E+00  9.5535177088E+00  5.2560270811E+00
                       9.9031507095E+00  9.5535177088E+00  1.4741604014E+01
                       1.4404281461E+01  9.5535177088E+00  9.9894651086E+00
                       9.8681828469E+00  1.4488823413E+01  9.7921256948E+00
                       9.8681828469E+00  4.6182120045E+00  9.7921256948E+00
                       4.9187045276E+00  9.5535177088E+00  9.7571578322E+00
                       1.8995204802E-01 -4.2843342478E-17 -1.8995204802E-01
             xred1     2.3631298656E-01  2.5496595326E-01  2.5375510691E-01
                       7.4624489309E-01  7.4503404674E-01  7.6368701344E-01
                       2.5364747106E-01  2.4880485136E-01  7.4635252894E-01
                       7.6911401045E-01  7.7944519759E-01  2.3088598955E-01
                       2.5364747106E-01  7.5119514864E-01  7.4635252894E-01
                       7.7277921589E-01  2.2119918131E-01  7.8482242148E-01
                       2.1517757852E-01  7.7880081869E-01  2.2722078411E-01
                       7.6911401045E-01  2.2055480241E-01  2.3088598955E-01
                      -1.6037637079E-02 -4.2231718286E-19  1.6037637079E-02
             xred2     2.3363607616E-01  2.5620117648E-01  2.5396157088E-01
                       7.4603842912E-01  7.4379882352E-01  7.6636392384E-01
                       2.5648605606E-01  2.5019822533E-01  7.4351394394E-01
                       7.6777112654E-01  7.7655048800E-01  2.3222887346E-01
                       2.5648605606E-01  7.4980177467E-01  7.4351394394E-01
                       7.7048874704E-01  2.2331424467E-01  7.8288276362E-01
                       2.1711723638E-01  7.7668575533E-01  2.2951125296E-01
                       7.6777112654E-01  2.2344951200E-01  2.3222887346E-01
                      -1.5794853907E-02 -5.7133765077E-20  1.5794853907E-02
             xred3     2.3236202321E-01  2.5694089624E-01  2.5375618431E-01
                       7.4624381569E-01  7.4305910376E-01  7.6763797679E-01
                       2.5895297348E-01  2.5167316827E-01  7.4104702652E-01
                       7.6569820349E-01  7.7403714339E-01  2.3430179651E-01
                       2.5895297348E-01  7.4832683173E-01  7.4104702652E-01
                       7.6860977577E-01  2.2534333820E-01  7.8070354783E-01
                       2.1929645217E-01  7.7465666180E-01  2.3139022423E-01
                       7.6569820349E-01  2.2596285661E-01  2.3430179651E-01
                      -1.5814420774E-02 -1.8941252644E-18  1.5814420774E-02
             xred4     2.3218341217E-01  2.5719419323E-01  2.5342820137E-01
                       7.4657179863E-01  7.4280580677E-01  7.6781658783E-01
                       2.6109474445E-01  2.5296414536E-01  7.3890525555E-01
                       7.6390379781E-01  7.7119259657E-01  2.3609620219E-01
                       2.6109474445E-01  7.4703585464E-01  7.3890525555E-01
                       7.6601638223E-01  2.2762137232E-01  7.7874087312E-01
                       2.2125912688E-01  7.7237862768E-01  2.3398361777E-01
                       7.6390379781E-01  2.2880740343E-01  2.3609620219E-01
                      -1.6027804429E-02 -1.9988911819E-18  1.6027804429E-02
             xred5     2.3157031035E-01  2.5762450251E-01  2.5318068464E-01
                       7.4681931536E-01  7.4237549750E-01  7.6842968965E-01
                       2.6313852117E-01  2.5429096620E-01  7.3686147883E-01
                       7.6183490262E-01  7.6859018543E-01  2.3816509738E-01
                       2.6313852117E-01  7.4570903380E-01  7.3686147883E-01
                       7.6408563870E-01  2.2986678726E-01  7.7618078677E-01
                       2.2381921323E-01  7.7013321274E-01  2.3591436130E-01
                       7.6183490262E-01  2.3140981457E-01  2.3816509738E-01
                      -1.6241325237E-02 -1.2942422735E-18  1.6241325237E-02
             xred6     2.3183021597E-01  2.5769840174E-01  2.5277298055E-01
                       7.4722701945E-01  7.4230159826E-01  7.6816978403E-01
                       2.6486374011E-01  2.5540264347E-01  7.3513625989E-01
                       7.5996656655E-01  7.6572812220E-01  2.4003343345E-01
                       2.6486374011E-01  7.4459735653E-01  7.3513625989E-01
                       7.6166215592E-01  2.3230868066E-01  7.7372048276E-01
                       2.2627951724E-01  7.6769131934E-01  2.3833784408E-01
                       7.5996656655E-01  2.3427187780E-01  2.4003343345E-01
                      -1.6659521910E-02 -7.8665112685E-19  1.6659521910E-02
             xred7     2.3216466927E-01  2.5767506721E-01  2.5248519630E-01
                       7.4751480370E-01  7.4232493279E-01  7.6783533073E-01
                       2.6647776727E-01  2.5655361623E-01  7.3352223273E-01
                       7.5806490923E-01  7.6267504718E-01  2.4193509077E-01
                       2.6647776727E-01  7.4344638377E-01  7.3352223273E-01
                       7.5963172835E-01  2.3457978435E-01  7.7120870294E-01
                       2.2879129706E-01  7.6542021564E-01  2.4036827165E-01
                       7.5806490923E-01  2.3732495282E-01  2.4193509077E-01
                      -1.7187851396E-02  2.3041306384E-19  1.7187851396E-02
             xred8     2.3277156874E-01  2.5758010888E-01  2.5206821350E-01
                       7.4793178650E-01  7.4241989112E-01  7.6722843126E-01
                       2.6784483128E-01  2.5755760348E-01  7.3215516872E-01
                       7.5598884042E-01  7.5982174110E-01  2.4401115958E-01
                       2.6784483128E-01  7.4244239652E-01  7.3215516872E-01
                       7.5775283036E-01  2.3699071747E-01  7.6826573470E-01
                       2.3173426530E-01  7.6300928253E-01  2.4224716964E-01
                       7.5598884042E-01  2.4017825890E-01  2.4401115958E-01
                      -1.7857794305E-02 -8.1448880395E-19  1.7857794305E-02
             xred9     2.3366326898E-01  2.5737276169E-01  2.5159120765E-01
                       7.4840879235E-01  7.4262723831E-01  7.6633673102E-01
                       2.6903978695E-01  2.5844168903E-01  7.3096021305E-01
                       7.5397472553E-01  7.5674678079E-01  2.4602527447E-01
                       2.6903978695E-01  7.4155831097E-01  7.3096021305E-01
                       7.5596654993E-01  2.3935102234E-01  7.6533140539E-01
                       2.3466859461E-01  7.6064897766E-01  2.4403345007E-01
                       7.5397472553E-01  2.4325321921E-01  2.4602527447E-01
                      -1.8736230838E-02  2.8293060013E-19  1.8736230838E-02
             xred10    2.3472437405E-01  2.5706463576E-01  2.5114635443E-01
                       7.4885364557E-01  7.4293536424E-01  7.6527562595E-01
                       2.7002771905E-01  2.5923887372E-01  7.2997228095E-01
                       7.5203996135E-01  7.5352838036E-01  2.4796003865E-01
                       2.7002771905E-01  7.4076112628E-01  7.2997228095E-01
                       7.5433593119E-01  2.4170217428E-01  7.6225972025E-01
                       2.3774027975E-01  7.5829782572E-01  2.4566406881E-01
                       7.5203996135E-01  2.4647161964E-01  2.4796003865E-01
                      -1.9789591353E-02  3.4126502102E-19  1.9789591353E-02
            znucl       55.00000   53.00000   40.00000   17.00000

================================================================================

 chkinp: Checking input parameters for consistency, jdtset=   1.

 chkinp: Checking input parameters for consistency, jdtset=   2.

 chkinp: Checking input parameters for consistency, jdtset=   3.

 chkinp: Checking input parameters for consistency, jdtset=   4.

 chkinp: Checking input parameters for consistency, jdtset=   5.

 chkinp: Checking input parameters for consistency, jdtset=   6.

 chkinp: Checking input parameters for consistency, jdtset=   7.

 chkinp: Checking input parameters for consistency, jdtset=   8.

 chkinp: Checking input parameters for consistency, jdtset=   9.

 chkinp: Checking input parameters for consistency, jdtset=  10.

================================================================================
== DATASET  1 ==================================================================
-   mpi_nproc: 6, omp_nthreads: -1 (-1 if OMP is not activated)


--- !DatasetInfo
iteration_state: {dtset: 1, }
dimensions: {natom: 9, nkpt: 280, mband: 42, nsppol: 1, nspinor: 1, nspden: 1, mpw: 7367, }
cutoff_energies: {ecut:  16.0, pawecutdg:  40.0, }
electrons: {nelect:   7.20000000E+01, charge:   0.00000000E+00, occopt:   1.00000000E+00, tsmear:   1.00000000E-02, }
meta: {optdriver: 0, ionmov: 0, optcell: 0, iscf: 17, paral_kgb: 0, }
...

 Real(R)+Recip(G) space primitive vectors, cartesian coordinates (Bohr,Bohr^-1):
 R(1)=  0.1790983 10.5389460 10.6712922  G(1)= -0.0476545  0.0474431  0.0476545
 R(2)= 10.8503904  0.0000000 10.8503904  G(2)=  0.0460813 -0.0474431  0.0460813
 R(3)= 10.6712922 10.5389460  0.1790983  G(3)=  0.0476545  0.0474431 -0.0476545
 Unit cell volume ucvol=  2.3996000E+03 bohr^3
 Angles (23,13,12)=  5.92350447E+01  5.92908442E+01  5.92350447E+01 degrees

 Coarse grid specifications (used for wave-functions):

 getcut: wavevector=  0.0000  0.0000  0.0000  ngfft=  60  60  60
         ecut(hartree)=     16.000   => boxcut(ratio)=   2.17153

 Fine grid specifications (used for densities):

 getcut: wavevector=  0.0000  0.0000  0.0000  ngfft=  90  90  90
         ecut(hartree)=     40.000   => boxcut(ratio)=   2.06036

--- Pseudopotential description ------------------------------------------------
- pspini: atom type   1  psp file is ../../../Psps_for_tests/ATOMICDATA/Cs.GGA_PBE-JTH.xml
- pspatm: opening atomic psp file    ../../../Psps_for_tests/ATOMICDATA/Cs.GGA_PBE-JTH.xml
- pspatm : Reading pseudopotential header in XML form from ../../../Psps_for_tests/ATOMICDATA/Cs.GGA_PBE-JTH.xml
 Pseudopotential format is: paw10
 basis_size (lnmax)=  6 (lmn_size= 18), orbitals=   0   0   1   1   2   2
 Spheres core radius: rc_sph= 2.20660278
 1 radial meshes are used:
  - mesh 1: r(i)=AA*[exp(BB*(i-1))-1], size=1500 , AA= 0.15922E-03 BB= 0.87573E-02
 Shapefunction is SIN type: shapef(r)=[sin(pi*r/rshp)/(pi*r/rshp)]**2
 Radius for shape functions =  2.00394208
 mmax= 1500
 Radial grid used for partial waves is grid 1
 Radial grid used for projectors is grid 1
 Radial grid used for (t)core density is grid 1
 Radial grid used for Vloc is grid 1
 Radial grid used for pseudo valence density is grid 1
 Mesh size for Vloc has been set to 1341 to avoid numerical noise.
 Compensation charge density is not taken into account in XC energy/potential
 pspatm: atomic psp has been read  and splines computed

- pspini: atom type   2  psp file is ../../../Psps_for_tests/ATOMICDATA/I.GGA_PBE-JTH.xml
- pspatm: opening atomic psp file    ../../../Psps_for_tests/ATOMICDATA/I.GGA_PBE-JTH.xml
- pspatm : Reading pseudopotential header in XML form from ../../../Psps_for_tests/ATOMICDATA/I.GGA_PBE-JTH.xml
 Pseudopotential format is: paw10
 basis_size (lnmax)=  4 (lmn_size=  8), orbitals=   0   0   1   1
 Spheres core radius: rc_sph= 2.30022271
 1 radial meshes are used:
  - mesh 1: r(i)=AA*[exp(BB*(i-1))-1], size=2000 , AA= 0.12610E-03 BB= 0.66836E-02
 Shapefunction is SIN type: shapef(r)=[sin(pi*r/rshp)/(pi*r/rshp)]**2
 Radius for shape functions =  2.10879093
 mmax= 2000
 Radial grid used for partial waves is grid 1
 Radial grid used for projectors is grid 1
 Radial grid used for (t)core density is grid 1
 Radial grid used for Vloc is grid 1
 Radial grid used for pseudo valence density is grid 1
 Mesh size for Vloc has been set to 1792 to avoid numerical noise.
 Compensation charge density is not taken into account in XC energy/potential
 pspatm: atomic psp has been read  and splines computed

- pspini: atom type   3  psp file is ../../../Psps_for_tests/ATOMICDATA/Zr.GGA_PBE-JTH.xml
- pspatm: opening atomic psp file    ../../../Psps_for_tests/ATOMICDATA/Zr.GGA_PBE-JTH.xml
- pspatm : Reading pseudopotential header in XML form from ../../../Psps_for_tests/ATOMICDATA/Zr.GGA_PBE-JTH.xml
 Pseudopotential format is: paw10
 basis_size (lnmax)=  6 (lmn_size= 18), orbitals=   0   0   1   1   2   2
 Spheres core radius: rc_sph= 2.21000000
 1 radial meshes are used:
  - mesh 1: r(i)=AA*[exp(BB*(i-1))-1], size= 941 , AA= 0.35256E-03 BB= 0.14102E-01
 Shapefunction is BESSEL type: shapef(r,l)=aa(1,l)*jl(q(1,l)*r)+aa(2,l)*jl(q(2,l)*r)
 Radius for shape functions =  2.21000000
 mmax=  941
 Radial grid used for partial waves is grid 1
 Radial grid used for projectors is grid 1
 Radial grid used for (t)core density is grid 1
 Radial grid used for Vloc is grid 1
 Radial grid used for pseudo valence density is grid 1
 Mesh size for Vloc has been set to  777 to avoid numerical noise.
 Compensation charge density is not taken into account in XC energy/potential
 pspatm: atomic psp has been read  and splines computed

- pspini: atom type   4  psp file is ../../../Psps_for_tests/ATOMICDATA/Cl.GGA_PBE-JTH.xml
- pspatm: opening atomic psp file    ../../../Psps_for_tests/ATOMICDATA/Cl.GGA_PBE-JTH.xml
- pspatm : Reading pseudopotential header in XML form from ../../../Psps_for_tests/ATOMICDATA/Cl.GGA_PBE-JTH.xml
 Pseudopotential format is: paw10
 basis_size (lnmax)=  4 (lmn_size=  8), orbitals=   0   0   1   1
 Spheres core radius: rc_sph= 1.80315674
 1 radial meshes are used:
  - mesh 1: r(i)=AA*[exp(BB*(i-1))-1], size=1400 , AA= 0.50355E-03 BB= 0.85603E-02
 Shapefunction is SIN type: shapef(r)=[sin(pi*r/rshp)/(pi*r/rshp)]**2
 Radius for shape functions =  1.61320365
 mmax= 1400
 Radial grid used for partial waves is grid 1
 Radial grid used for projectors is grid 1
 Radial grid used for (t)core density is grid 1
 Radial grid used for Vloc is grid 1
 Radial grid used for pseudo valence density is grid 1
 Mesh size for Vloc has been set to 1238 to avoid numerical noise.
 Compensation charge density is not taken into account in XC energy/potential
 pspatm: atomic psp has been read  and splines computed

   2.17261008E+04                                ecore*ucvol(ha*bohr**3)
--------------------------------------------------------------------------------

_setup2: Arith. and geom. avg. npw (full set) are    7334.872    7334.862

================================================================================

--- !BeginCycle
iteration_state: {dtset: 1, }
solver: {iscf: 17, nstep: 2500, nline: 4, wfoptalg: 10, }
tolerances: {toldfe: 1.00E-08, }
...

     iter   Etot(hartree)      deltaE(h)  residm     nres2
 ETOT  1  -172.68102696389    -1.727E+02 2.109E-01 2.044E+01
 ETOT  2  -172.82350159985    -1.425E-01 2.186E-02 4.233E+00
 ETOT  3  -172.82135301984     2.149E-03 7.148E-03 9.180E-01
 ETOT  4  -172.82195587362    -6.029E-04 4.649E-03 5.037E-02
 ETOT  5  -172.82180369123     1.522E-04 1.577E-03 8.066E-03
 ETOT  6  -172.82185176692    -4.808E-05 2.012E-03 7.892E-04
 ETOT  7  -172.82185508603    -3.319E-06 6.770E-04 2.215E-04
 ETOT  8  -172.82185651386    -1.428E-06 1.171E-03 2.824E-05
 ETOT  9  -172.82185655813    -4.427E-08 5.919E-04 4.846E-06
 ETOT 10  -172.82185656530    -7.172E-09 7.291E-04 9.884E-07
 ETOT 11  -172.82185656867    -3.368E-09 2.328E-04 2.741E-07

 At SCF step   11, etot is converged : 
  for the second time, diff in etot=  3.368E-09 < toldfe=  1.000E-08

 Cartesian components of stress tensor (hartree/bohr^3)
  sigma(1 1)= -3.85651168E-06  sigma(3 2)=  4.87758870E-14
  sigma(2 2)= -3.81273204E-06  sigma(3 1)= -7.06087988E-08
  sigma(3 3)= -3.85651168E-06  sigma(2 1)=  4.87759751E-14


--- !ResultsGS
iteration_state: {dtset: 1, }
comment   : Summary of ground state results
lattice_vectors:
- [  0.1790983,  10.5389460,  10.6712922, ]
- [ 10.8503904,   0.0000000,  10.8503904, ]
- [ 10.6712922,  10.5389460,   0.1790983, ]
lattice_lengths: [  14.99926,   15.34477,   14.99926, ]
lattice_angles: [ 59.235,  59.291,  59.235, ] # degrees, (23, 13, 12)
lattice_volume:   2.3996000E+03
convergence: {deltae: -3.368E-09, res2:  2.741E-07, residm:  2.328E-04, diffor: null, }
etotal    :  -1.72821857E+02
entropy   :   0.00000000E+00
fermie    :  -2.90077431E-02
cartesian_stress_tensor: # hartree/bohr^3
- [ -3.85651168E-06,   4.87759751E-14,  -7.06087988E-08, ]
- [  4.87759751E-14,  -3.81273204E-06,   4.87758870E-14, ]
- [ -7.06087988E-08,   4.87758870E-14,  -3.85651168E-06, ]
pressure_GPa:   1.1303E-01
xred      :
- [  2.3631E-01,   2.5497E-01,   2.5376E-01, Cs]
- [  7.4624E-01,   7.4503E-01,   7.6369E-01, Cs]
- [  2.5365E-01,   2.4880E-01,   7.4635E-01,  I]
- [  7.6911E-01,   7.7945E-01,   2.3089E-01, Cl]
- [  2.5365E-01,   7.5120E-01,   7.4635E-01,  I]
- [  7.7278E-01,   2.2120E-01,   7.8482E-01, Cl]
- [  2.1518E-01,   7.7880E-01,   2.2722E-01, Cl]
- [  7.6911E-01,   2.2055E-01,   2.3089E-01, Cl]
- [ -1.6038E-02,  -4.2232E-19,   1.6038E-02, Zr]
cartesian_forces: # hartree/bohr
- [  8.98436084E-06,   6.50014710E-06,  -8.98436084E-06, ]
- [  8.98436084E-06,  -6.50014710E-06,  -8.98436084E-06, ]
- [ -4.36029157E-06,   2.27228834E-17,   6.11609979E-06, ]
- [ -3.67565956E-05,  -4.36676530E-16,   3.01201709E-06, ]
- [ -6.11609979E-06,  -2.27198657E-17,   4.36029157E-06, ]
- [  9.49525157E-06,  -2.96856799E-05,  -9.49525157E-06, ]
- [  9.49525157E-06,   2.96856799E-05,  -9.49525157E-06, ]
- [ -3.01201709E-06,   4.36670342E-16,   3.67565956E-05, ]
- [  1.32857792E-05,   8.20314281E-22,  -1.32857792E-05, ]
force_length_stats: {min:   7.51124618E-06, max:   3.68797989E-05, mean:   2.23642370E-05, }
...

 Integrated electronic density in atomic spheres:
 ------------------------------------------------
 Atom  Sphere_radius  Integrated_density
    1        2.20660          5.35873174
    2        2.20660          5.35873174
    3        2.30022          4.01823101
    4        1.80316          4.36085196
    5        2.30022          4.01823101
    6        1.80316          4.35799654
    7        1.80316          4.35799654
    8        1.80316          4.36085196
    9        2.21000          8.80600982

 PAW TEST:
 ==== Compensation charge inside spheres ============
 The following values must be close to each other ...
 Compensation charge over spherical meshes =     -5.788052759791962
 Compensation charge over fine fft grid    =     -5.788071424557025

 ==== Results concerning PAW augmentation regions ====

 Total pseudopotential strength Dij (hartree):
 Atom #  1
   0.42554  -0.14100  -0.00000  -0.00000   0.00000   0.00001   0.00000  -0.00000  -0.00000   0.00000   0.00000   0.00000 ...
  -0.14100   0.04238   0.00000   0.00000  -0.00000  -0.00000  -0.00000   0.00000   0.00000  -0.00000  -0.00000  -0.00000 ...
  -0.00000   0.00000  -0.09179   0.00000  -0.00000  -0.16761  -0.00000   0.00000   0.00000  -0.00000   0.00000  -0.00000 ...
  -0.00000   0.00000   0.00000  -0.09179   0.00000  -0.00000  -0.16761  -0.00000  -0.00000  -0.00000  -0.00000   0.00000 ...
   0.00000  -0.00000  -0.00000   0.00000  -0.09179   0.00000  -0.00000  -0.16761  -0.00000  -0.00000  -0.00000  -0.00000 ...
   0.00001  -0.00000  -0.16761  -0.00000   0.00000   0.39951   0.00002  -0.00002  -0.00000   0.00000  -0.00000   0.00000 ...
   0.00000  -0.00000  -0.00000  -0.16761  -0.00000   0.00002   0.39952   0.00000   0.00000   0.00000   0.00000  -0.00000 ...
  -0.00000   0.00000   0.00000  -0.00000  -0.16761  -0.00002   0.00000   0.39952   0.00000   0.00000   0.00000   0.00000 ...
  -0.00000   0.00000   0.00000  -0.00000  -0.00000  -0.00000   0.00000   0.00000   0.00548  -0.00000   0.00000   0.00000 ...
   0.00000  -0.00000  -0.00000  -0.00000  -0.00000   0.00000   0.00000   0.00000  -0.00000   0.00548   0.00000  -0.00000 ...
   0.00000  -0.00000   0.00000  -0.00000  -0.00000  -0.00000   0.00000   0.00000   0.00000   0.00000   0.00548   0.00000 ...
   0.00000  -0.00000  -0.00000   0.00000  -0.00000   0.00000  -0.00000   0.00000   0.00000  -0.00000   0.00000   0.00548 ...
   ...  only 12  components have been written...
 Atom #  9
   3.06433  -0.89218   0.00000  -0.00001   0.00001   0.00000   0.00001  -0.00001   0.00000   0.00000  -0.00004   0.00001 ...
  -0.89218   0.26653   0.00000  -0.00001   0.00001   0.00000   0.00000  -0.00000   0.00000   0.00000   0.00000  -0.00000 ...
   0.00000   0.00000   0.27411   0.00000   0.00000  -0.05589   0.00000   0.00000   0.00010  -0.00010   0.00000   0.00000 ...
  -0.00001  -0.00001   0.00000   0.27400   0.00001   0.00000  -0.05587  -0.00000   0.00000   0.00000  -0.00012   0.00010 ...
   0.00001   0.00001   0.00000   0.00001   0.27400   0.00000  -0.00000  -0.05587   0.00000   0.00000  -0.00006  -0.00010 ...
   0.00000   0.00000  -0.05589   0.00000   0.00000   0.01526   0.00000   0.00000  -0.00002   0.00002   0.00000   0.00000 ...
   0.00001   0.00000   0.00000  -0.05587  -0.00000   0.00000   0.01525   0.00000   0.00000   0.00000   0.00002  -0.00002 ...
  -0.00001  -0.00000   0.00000  -0.00000  -0.05587   0.00000   0.00000   0.01525   0.00000   0.00000   0.00001   0.00002 ...
   0.00000   0.00000   0.00010   0.00000   0.00000  -0.00002   0.00000   0.00000  -0.00891   0.00000   0.00000   0.00000 ...
   0.00000   0.00000  -0.00010   0.00000   0.00000   0.00002   0.00000   0.00000   0.00000  -0.00891   0.00000   0.00000 ...
  -0.00004   0.00000   0.00000  -0.00012  -0.00006   0.00000   0.00002   0.00001   0.00000   0.00000  -0.00886   0.00000 ...
   0.00001  -0.00000   0.00000   0.00010  -0.00010   0.00000  -0.00002   0.00002   0.00000   0.00000   0.00000  -0.00899 ...
   ...  only 12  components have been written...


 Augmentation waves occupancies Rhoij:
 Atom #  1
   1.99732  -0.01560  -0.00004   0.00000  -0.00000  -0.00004  -0.00000   0.00000  -0.00416   0.00416   0.00084   0.00053 ...
  -0.01560   0.12259  -0.00343  -0.00067   0.00067   0.00011   0.00003  -0.00003   0.02557  -0.02557  -0.00758  -0.00108 ...
  -0.00004  -0.00343   2.01062  -0.00284   0.00284  -0.00516   0.00043  -0.00043   0.00022  -0.00022   0.00186   0.00017 ...
   0.00000  -0.00067  -0.00284   2.00887  -0.00035   0.00043  -0.00484   0.00004   0.00005  -0.00113   0.00041   0.00103 ...
  -0.00000   0.00067   0.00284  -0.00035   2.00887  -0.00043   0.00004  -0.00484  -0.00113   0.00005   0.00056  -0.00103 ...
  -0.00004   0.00011  -0.00516   0.00043  -0.00043   0.00010  -0.00002   0.00002   0.00000  -0.00000  -0.00005  -0.00002 ...
  -0.00000   0.00003   0.00043  -0.00484   0.00004  -0.00002   0.00008  -0.00000  -0.00001   0.00002  -0.00002  -0.00005 ...
   0.00000  -0.00003  -0.00043   0.00004  -0.00484   0.00002  -0.00000   0.00008   0.00002  -0.00001  -0.00003   0.00005 ...
  -0.00416   0.02557   0.00022   0.00005  -0.00113   0.00000  -0.00001   0.00002   0.04537   0.00285  -0.01586  -0.00010 ...
   0.00416  -0.02557  -0.00022  -0.00113   0.00005  -0.00000   0.00002  -0.00001   0.00285   0.04537  -0.00916   0.00010 ...
   0.00084  -0.00758   0.00186   0.00041   0.00056  -0.00005  -0.00002  -0.00003  -0.01586  -0.00916   0.02601  -0.00125 ...
   0.00053  -0.00108   0.00017   0.00103  -0.00103  -0.00002  -0.00005   0.00005  -0.00010   0.00010  -0.00125   0.02066 ...
   ...  only 12  components have been written...
 Atom #  9
   1.99246  -0.07113   0.00000   0.00065  -0.00065   0.00000   0.00341  -0.00341   0.00000   0.00000   0.00144  -0.00047 ...
  -0.07113   1.05969   0.00000   0.00609  -0.00609   0.00000  -0.06317   0.06317   0.00000   0.00000  -0.02449   0.00814 ...
   0.00000   0.00000   1.96343   0.00000   0.00000  -0.22216   0.00000   0.00000   0.00128  -0.00128   0.00000   0.00000 ...
   0.00065   0.00609   0.00000   1.96565  -0.00016   0.00000  -0.20937  -0.00066   0.00000   0.00000   0.00271   0.00125 ...
  -0.00065  -0.00609   0.00000  -0.00016   1.96565   0.00000  -0.00066  -0.20937   0.00000   0.00000   0.00140  -0.00125 ...
   0.00000   0.00000  -0.22216   0.00000   0.00000   1.86264   0.00000   0.00000  -0.03468   0.03468   0.00000   0.00000 ...
   0.00341  -0.06317   0.00000  -0.20937  -0.00066   0.00000   1.62220   0.01833   0.00000   0.00000  -0.20370  -0.03744 ...
  -0.00341   0.06317   0.00000  -0.00066  -0.20937   0.00000   0.01833   1.62220   0.00000   0.00000  -0.10136   0.03744 ...
   0.00000   0.00000   0.00128   0.00000   0.00000  -0.03468   0.00000   0.00000   0.50398   0.00071   0.00000   0.00000 ...
   0.00000   0.00000  -0.00128   0.00000   0.00000   0.03468   0.00000   0.00000   0.00071   0.50398   0.00000   0.00000 ...
   0.00144  -0.02449   0.00000   0.00271   0.00140   0.00000  -0.20370  -0.10136   0.00000   0.00000   1.44791   0.00545 ...
  -0.00047   0.00814   0.00000   0.00125  -0.00125   0.00000  -0.03744   0.03744   0.00000   0.00000   0.00545   0.47594 ...
   ...  only 12  components have been written...


================================================================================

 ----iterations are completed or convergence reached----

 Mean square residual over all n,k,spin=   37.666E-08; max=  23.276E-05
 reduced coordinates (array xred) for    9 atoms
       0.236312986560      0.254965953265      0.253755106910
       0.746244893090      0.745034046735      0.763687013440
       0.253647471060      0.248804851360      0.746352528940
       0.769114010450      0.779445197590      0.230885989550
       0.253647471060      0.751195148640      0.746352528940
       0.772779215890      0.221199181315      0.784822421480
       0.215177578520      0.778800818685      0.227220784110
       0.769114010450      0.220554802410      0.230885989550
      -0.016037637079     -0.000000000000      0.016037637079
 rms dE/dt=  2.1534E-04; max dE/dt=  4.7931E-04; dE/dt below (all hartree)
    1      -0.000061845086      0.000000000000     -0.000075164313
    2       0.000075164313      0.000000000000      0.000061845086
    3      -0.000152091810     -0.000019051205      0.000133040605
    4      -0.000113165115      0.000366141852      0.000479306967
    5      -0.000133040605      0.000019051205      0.000152091810
    6       0.000324875757      0.000000000000      0.000300835801
    7      -0.000300835801      0.000000000000     -0.000324875757
    8      -0.000479306967     -0.000366141852      0.000113165115
    9       0.000051790929      0.000000000000     -0.000051790929

 cartesian coordinates (angstrom) at end:
    1      2.91931099405581     2.73309507847254     2.82246833206584
    2      8.66109032017459     8.42084501634347     8.56424765818462
    3      5.66727809000976     5.57697004740800     2.93166633962871
    4      5.85210913122597     5.57697004740800     8.84047483766647
    5      8.55189231261171     5.57697004740800     5.81628056223067
    6      5.77521264911710     8.68669767740615     5.70834600304284
    7      5.77521264919758     2.46724241740985     5.70834600312333
    8      2.64308381457395     5.57697004740800     5.63144952101446
    9      0.08904464798968    -0.00000000000000    -0.08904464798968

 cartesian forces (hartree/bohr) at end:
    1      0.00000898436084     0.00000650014710    -0.00000898436084
    2      0.00000898436084    -0.00000650014710    -0.00000898436084
    3     -0.00000436029157     0.00000000000000     0.00000611609979
    4     -0.00003675659558    -0.00000000000000     0.00000301201709
    5     -0.00000611609979    -0.00000000000000     0.00000436029157
    6      0.00000949525157    -0.00002968567992    -0.00000949525157
    7      0.00000949525157     0.00002968567992    -0.00000949525157
    8     -0.00000301201709     0.00000000000000     0.00003675659558
    9      0.00001328577921     0.00000000000000    -0.00001328577921
 frms,max,avg= 1.4550802E-05 3.6756596E-05  -8.350E-06  0.000E+00  8.350E-06 h/b

 cartesian forces (eV/Angstrom) at end:
    1      0.00046199437078     0.00033425097507    -0.00046199437078
    2      0.00046199437078    -0.00033425097507    -0.00046199437078
    3     -0.00022421518883     0.00000000000000     0.00031450246974
    4     -0.00189009998045    -0.00000000000002     0.00015488413333
    5     -0.00031450246974    -0.00000000000000     0.00022421518883
    6      0.00048826542630    -0.00152649890870    -0.00048826542630
    7      0.00048826542630     0.00152649890870    -0.00048826542630
    8     -0.00015488413333     0.00000000000002     0.00189009998045
    9      0.00068318217819     0.00000000000000    -0.00068318217819
 frms,max,avg= 7.4823227E-04 1.8901000E-03  -4.294E-04  0.000E+00  4.294E-04 e/A
 length scales= 14.999264538000 15.344769320000 14.999264538000 bohr
              =  7.937268939122  8.120102195215  7.937268939122 angstroms
 prteigrs : about to open file Cs2TiI6o_DS1_EIG
 Fermi (or HOMO) energy (hartree) =  -0.02901   Average Vxc (hartree)=  -0.28080
 Eigenvalues (hartree) for nkpt= 280  k points:
 kpt#   1, nband= 42, wtk=  0.00058, kpt=  0.0000  0.0000  0.0000 (reduced coord)
  -1.84635   -1.03807   -1.03747   -1.03732   -0.78015   -0.77993   -0.55636   -0.54857
  -0.54694   -0.54138   -0.43959   -0.43130   -0.29865   -0.29777   -0.29774   -0.29557
  -0.29557   -0.29537   -0.17257   -0.15067   -0.14665   -0.14207   -0.14206   -0.13835
  -0.12811   -0.12139   -0.12109   -0.10026   -0.09311   -0.08941   -0.08578   -0.06344
  -0.05571   -0.04798   -0.04643   -0.02901    0.04944    0.05547    0.05551    0.12449
   0.14353    0.14706
 prteigrs : prtvol=0 or 1, do not print more k-points.


--- !EnergyTerms
iteration_state     : {dtset: 1, }
comment             : Components of total free energy in Hartree
kinetic             :  5.54968002431430E+01
hartree             :  4.62798286131838E+01
xc                  : -5.47422446745621E+01
Ewald energy        : -1.16549744866766E+02
psp_core            :  9.05405102389704E+00
local_psp           : -1.49213680876337E+02
spherical_terms     :  3.68531979028955E+01
total_energy        : -1.72821792634546E+02
total_energy_eV     : -4.70272013875196E+03
...


--- !EnergyTermsDC
iteration_state     : {dtset: 1, }
comment             : '"Double-counting" decomposition of free energy'
band_energy         : -2.65747621546336E+01
Ewald energy        : -1.16549744866766E+02
psp_core            :  9.05405102389704E+00
xc_dc               : -5.67764797377775E+01
spherical_terms     :  1.80250791666095E+01
total_energy_dc     : -1.72821856568671E+02
total_energy_dc_eV  : -4.70272187848796E+03
...


 Cartesian components of stress tensor (hartree/bohr^3)
  sigma(1 1)= -3.85651168E-06  sigma(3 2)=  4.87758870E-14
  sigma(2 2)= -3.81273204E-06  sigma(3 1)= -7.06087988E-08
  sigma(3 3)= -3.85651168E-06  sigma(2 1)=  4.87759751E-14

-Cartesian components of stress tensor (GPa)         [Pressure=  1.1303E-01 GPa]
- sigma(1 1)= -1.13462472E-01  sigma(3 2)=  1.43503590E-09
- sigma(2 2)= -1.12174431E-01  sigma(3 1)= -2.07738223E-03
- sigma(3 3)= -1.13462472E-01  sigma(2 1)=  1.43503849E-09

================================================================================
== DATASET  2 ==================================================================
-   mpi_nproc: 6, omp_nthreads: -1 (-1 if OMP is not activated)


--- !DatasetInfo
iteration_state: {dtset: 2, }
dimensions: {natom: 9, nkpt: 280, mband: 42, nsppol: 1, nspinor: 1, nspden: 1, mpw: 7160, }
cutoff_energies: {ecut:  16.0, pawecutdg:  40.0, }
electrons: {nelect:   7.20000000E+01, charge:   0.00000000E+00, occopt:   1.00000000E+00, tsmear:   1.00000000E-02, }
meta: {optdriver: 0, ionmov: 0, optcell: 0, iscf: 17, paral_kgb: 0, }
...

 Real(R)+Recip(G) space primitive vectors, cartesian coordinates (Bohr,Bohr^-1):
 R(1)=  0.1750851 10.4387895 10.5602786  G(1)= -0.0481455  0.0478983  0.0481455
 R(2)= 10.7353637  0.0000000 10.7353637  G(2)=  0.0465750 -0.0478983  0.0465750
 R(3)= 10.5602786 10.4387895  0.1750851  G(3)=  0.0481455  0.0478983 -0.0481455
 Unit cell volume ucvol=  2.3276169E+03 bohr^3
 Angles (23,13,12)=  5.92571130E+01  5.92751946E+01  5.92571130E+01 degrees

 Coarse grid specifications (used for wave-functions):

 getcut: wavevector=  0.0000  0.0000  0.0000  ngfft=  60  60  60
         ecut(hartree)=     16.000   => boxcut(ratio)=   2.19480

 Fine grid specifications (used for densities):

 getcut: wavevector=  0.0000  0.0000  0.0000  ngfft=  90  90  90
         ecut(hartree)=     40.000   => boxcut(ratio)=   2.08244

--- Pseudopotential description ------------------------------------------------
- pspini: atom type   1  psp file is ../../../Psps_for_tests/ATOMICDATA/Cs.GGA_PBE-JTH.xml
- pspatm: opening atomic psp file    ../../../Psps_for_tests/ATOMICDATA/Cs.GGA_PBE-JTH.xml
- pspatm : Reading pseudopotential header in XML form from ../../../Psps_for_tests/ATOMICDATA/Cs.GGA_PBE-JTH.xml
 Pseudopotential format is: paw10
 basis_size (lnmax)=  6 (lmn_size= 18), orbitals=   0   0   1   1   2   2
 Spheres core radius: rc_sph= 2.20660278
 1 radial meshes are used:
  - mesh 1: r(i)=AA*[exp(BB*(i-1))-1], size=1500 , AA= 0.15922E-03 BB= 0.87573E-02
 Shapefunction is SIN type: shapef(r)=[sin(pi*r/rshp)/(pi*r/rshp)]**2
 Radius for shape functions =  2.00394208
 mmax= 1500
 Radial grid used for partial waves is grid 1
 Radial grid used for projectors is grid 1
 Radial grid used for (t)core density is grid 1
 Radial grid used for Vloc is grid 1
 Radial grid used for pseudo valence density is grid 1
 Mesh size for Vloc has been set to 1341 to avoid numerical noise.
 Compensation charge density is not taken into account in XC energy/potential
 pspatm: atomic psp has been read  and splines computed

- pspini: atom type   2  psp file is ../../../Psps_for_tests/ATOMICDATA/I.GGA_PBE-JTH.xml
- pspatm: opening atomic psp file    ../../../Psps_for_tests/ATOMICDATA/I.GGA_PBE-JTH.xml
- pspatm : Reading pseudopotential header in XML form from ../../../Psps_for_tests/ATOMICDATA/I.GGA_PBE-JTH.xml
 Pseudopotential format is: paw10
 basis_size (lnmax)=  4 (lmn_size=  8), orbitals=   0   0   1   1
 Spheres core radius: rc_sph= 2.30022271
 1 radial meshes are used:
  - mesh 1: r(i)=AA*[exp(BB*(i-1))-1], size=2000 , AA= 0.12610E-03 BB= 0.66836E-02
 Shapefunction is SIN type: shapef(r)=[sin(pi*r/rshp)/(pi*r/rshp)]**2
 Radius for shape functions =  2.10879093
 mmax= 2000
 Radial grid used for partial waves is grid 1
 Radial grid used for projectors is grid 1
 Radial grid used for (t)core density is grid 1
 Radial grid used for Vloc is grid 1
 Radial grid used for pseudo valence density is grid 1
 Mesh size for Vloc has been set to 1792 to avoid numerical noise.
 Compensation charge density is not taken into account in XC energy/potential
 pspatm: atomic psp has been read  and splines computed

- pspini: atom type   3  psp file is ../../../Psps_for_tests/ATOMICDATA/Zr.GGA_PBE-JTH.xml
- pspatm: opening atomic psp file    ../../../Psps_for_tests/ATOMICDATA/Zr.GGA_PBE-JTH.xml
- pspatm : Reading pseudopotential header in XML form from ../../../Psps_for_tests/ATOMICDATA/Zr.GGA_PBE-JTH.xml
 Pseudopotential format is: paw10
 basis_size (lnmax)=  6 (lmn_size= 18), orbitals=   0   0   1   1   2   2
 Spheres core radius: rc_sph= 2.21000000
 1 radial meshes are used:
  - mesh 1: r(i)=AA*[exp(BB*(i-1))-1], size= 941 , AA= 0.35256E-03 BB= 0.14102E-01
 Shapefunction is BESSEL type: shapef(r,l)=aa(1,l)*jl(q(1,l)*r)+aa(2,l)*jl(q(2,l)*r)
 Radius for shape functions =  2.21000000
 mmax=  941
 Radial grid used for partial waves is grid 1
 Radial grid used for projectors is grid 1
 Radial grid used for (t)core density is grid 1
 Radial grid used for Vloc is grid 1
 Radial grid used for pseudo valence density is grid 1
 Mesh size for Vloc has been set to  777 to avoid numerical noise.
 Compensation charge density is not taken into account in XC energy/potential
 pspatm: atomic psp has been read  and splines computed

- pspini: atom type   4  psp file is ../../../Psps_for_tests/ATOMICDATA/Cl.GGA_PBE-JTH.xml
- pspatm: opening atomic psp file    ../../../Psps_for_tests/ATOMICDATA/Cl.GGA_PBE-JTH.xml
- pspatm : Reading pseudopotential header in XML form from ../../../Psps_for_tests/ATOMICDATA/Cl.GGA_PBE-JTH.xml
 Pseudopotential format is: paw10
 basis_size (lnmax)=  4 (lmn_size=  8), orbitals=   0   0   1   1
 Spheres core radius: rc_sph= 1.80315674
 1 radial meshes are used:
  - mesh 1: r(i)=AA*[exp(BB*(i-1))-1], size=1400 , AA= 0.50355E-03 BB= 0.85603E-02
 Shapefunction is SIN type: shapef(r)=[sin(pi*r/rshp)/(pi*r/rshp)]**2
 Radius for shape functions =  1.61320365
 mmax= 1400
 Radial grid used for partial waves is grid 1
 Radial grid used for projectors is grid 1
 Radial grid used for (t)core density is grid 1
 Radial grid used for Vloc is grid 1
 Radial grid used for pseudo valence density is grid 1
 Mesh size for Vloc has been set to 1238 to avoid numerical noise.
 Compensation charge density is not taken into account in XC energy/potential
 pspatm: atomic psp has been read  and splines computed

--------------------------------------------------------------------------------

_setup2: Arith. and geom. avg. npw (full set) are    7115.273    7115.264

================================================================================

--- !BeginCycle
iteration_state: {dtset: 2, }
solver: {iscf: 17, nstep: 2500, nline: 4, wfoptalg: 10, }
tolerances: {toldfe: 1.00E-08, }
...

     iter   Etot(hartree)      deltaE(h)  residm     nres2
 ETOT  1  -172.67897781446    -1.727E+02 2.015E-01 2.104E+01
 ETOT  2  -172.82260488322    -1.436E-01 2.345E-02 4.379E+00
 ETOT  3  -172.82039755199     2.207E-03 7.402E-03 9.379E-01
 ETOT  4  -172.82105802707    -6.605E-04 4.310E-03 5.133E-02
 ETOT  5  -172.82090066502     1.574E-04 9.417E-04 7.574E-03
 ETOT  6  -172.82095001948    -4.935E-05 1.577E-03 7.362E-04
 ETOT  7  -172.82095362421    -3.605E-06 7.736E-04 1.947E-04
 ETOT  8  -172.82095509918    -1.475E-06 8.164E-04 2.670E-05
 ETOT  9  -172.82095517141    -7.223E-08 4.206E-04 3.984E-06
 ETOT 10  -172.82095518076    -9.351E-09 1.083E-03 7.545E-07
 ETOT 11  -172.82095518339    -2.636E-09 4.045E-04 2.149E-07

 At SCF step   11, etot is converged : 
  for the second time, diff in etot=  2.636E-09 < toldfe=  1.000E-08

 Cartesian components of stress tensor (hartree/bohr^3)
  sigma(1 1)= -1.30163487E-05  sigma(3 2)=  4.07226716E-14
  sigma(2 2)= -1.29408008E-05  sigma(3 1)= -3.20079578E-08
  sigma(3 3)= -1.30163487E-05  sigma(2 1)=  4.07219689E-14


--- !ResultsGS
iteration_state: {dtset: 2, }
comment   : Summary of ground state results
lattice_vectors:
- [  0.1750851,  10.4387895,  10.5602786, ]
- [ 10.7353637,   0.0000000,  10.7353637, ]
- [ 10.5602786,  10.4387895,   0.1750851, ]
lattice_lengths: [  14.84986,   15.18210,   14.84986, ]
lattice_angles: [ 59.257,  59.275,  59.257, ] # degrees, (23, 13, 12)
lattice_volume:   2.3276169E+03
convergence: {deltae: -2.636E-09, res2:  2.149E-07, residm:  4.045E-04, diffor: null, }
etotal    :  -1.72820955E+02
entropy   :   0.00000000E+00
fermie    :  -2.22819599E-02
cartesian_stress_tensor: # hartree/bohr^3
- [ -1.30163487E-05,   4.07219689E-14,  -3.20079578E-08, ]
- [  4.07219689E-14,  -1.29408008E-05,   4.07226716E-14, ]
- [ -3.20079578E-08,   4.07226716E-14,  -1.30163487E-05, ]
pressure_GPa:   3.8221E-01
xred      :
- [  2.3364E-01,   2.5620E-01,   2.5396E-01, Cs]
- [  7.4604E-01,   7.4380E-01,   7.6636E-01, Cs]
- [  2.5649E-01,   2.5020E-01,   7.4351E-01,  I]
- [  7.6777E-01,   7.7655E-01,   2.3223E-01, Cl]
- [  2.5649E-01,   7.4980E-01,   7.4351E-01,  I]
- [  7.7049E-01,   2.2331E-01,   7.8288E-01, Cl]
- [  2.1712E-01,   7.7669E-01,   2.2951E-01, Cl]
- [  7.6777E-01,   2.2345E-01,   2.3223E-01, Cl]
- [ -1.5795E-02,  -5.7134E-20,   1.5795E-02, Zr]
cartesian_forces: # hartree/bohr
- [ -2.35969821E-06,   1.01869965E-05,   2.35969821E-06, ]
- [ -2.35969821E-06,  -1.01869965E-05,   2.35969821E-06, ]
- [  1.81026214E-05,   7.38639155E-17,  -1.08525336E-05, ]
- [  2.40731990E-05,   7.83979049E-16,   5.28781033E-05, ]
- [  1.08525336E-05,  -7.38636533E-17,  -1.81026214E-05, ]
- [ -5.09189701E-06,   3.54281983E-05,   5.09189701E-06, ]
- [ -5.09189701E-06,  -3.54281983E-05,   5.09189701E-06, ]
- [ -5.28781033E-05,  -7.83972294E-16,  -2.40731990E-05, ]
- [  1.47529398E-05,  -1.99658249E-22,  -1.47529398E-05, ]
force_length_stats: {min:   1.07196665E-05, max:   5.81000234E-05, mean:   3.03357043E-05, }
...

 Integrated electronic density in atomic spheres:
 ------------------------------------------------
 Atom  Sphere_radius  Integrated_density
    1        2.20660          5.36380000
    2        2.20660          5.36380000
    3        2.30022          4.02294844
    4        1.80316          4.36846876
    5        2.30022          4.02294844
    6        1.80316          4.36003644
    7        1.80316          4.36003644
    8        1.80316          4.36846876
    9        2.21000          8.82570764

 PAW TEST:
 ==== Compensation charge inside spheres ============
 The following values must be close to each other ...
 Compensation charge over spherical meshes =     -5.789065481727723
 Compensation charge over fine fft grid    =     -5.789106379154703

 ==== Results concerning PAW augmentation regions ====

 Total pseudopotential strength Dij (hartree):
 Atom #  1
   0.42369  -0.14040  -0.00000   0.00000  -0.00000   0.00001  -0.00000   0.00000  -0.00000   0.00000   0.00000   0.00000 ...
  -0.14040   0.04219   0.00000  -0.00000   0.00000  -0.00000   0.00000  -0.00000   0.00000  -0.00000  -0.00000  -0.00000 ...
[...]
                       5.2864235157E+00  2.4493480464E+00  5.2383991197E+00
                       2.6088833249E+00  5.1166442125E+00  5.2137249803E+00
                       9.6082227179E-02  2.2874310700E-18 -9.6082227179E-02
           xangst10    2.6426533055E+00  2.4563213304E+00  2.5592402915E+00
                       7.8445469026E+00  7.6546863364E+00  7.7611338886E+00
                       5.1175899327E+00  5.0555038334E+00  2.7813697390E+00
                       5.2405216487E+00  5.0555038334E+00  7.8009208624E+00
                       7.6224174551E+00  5.0555038334E+00  5.2861972615E+00
                       5.2220174528E+00  7.6671551295E+00  5.1817697414E+00
                       5.2220174528E+00  2.4438525372E+00  5.1817697413E+00
                       2.6028663318E+00  5.0555038334E+00  5.1632655454E+00
                       1.0051829453E-01 -2.2671720379E-17 -1.0051829453E-01
            xcart1     5.5166982755E+00  5.1648011935E+00  5.3336921663E+00
                       1.6367088717E+01  1.5913090888E+01  1.6184082608E+01
                       1.0709603509E+01  1.0538946041E+01  5.5400464949E+00
                       1.1058883558E+01  1.0538946041E+01  1.6706076328E+01
                       1.6160734389E+01  1.0538946041E+01  1.0991177375E+01
                       1.0913570266E+01  1.6415479609E+01  1.0787210618E+01
                       1.0913570266E+01  4.6624124723E+00  1.0787210618E+01
                       4.9947045558E+00  1.0538946041E+01  1.0641897326E+01
                       1.6826999830E-01 -3.2142541163E-18 -1.6826999830E-01
            xcart2     5.4732239486E+00  5.0899292160E+00  5.2621397517E+00
                       1.6208587649E+01  1.5787649857E+01  1.5997503452E+01
                       1.0582590239E+01  1.0438789537E+01  5.5247113537E+00
                       1.0923378791E+01  1.0438789537E+01  1.6485088749E+01
                       1.5946016047E+01  1.0438789537E+01  1.0888137162E+01
                       1.0799720831E+01  1.6215318272E+01  1.0671006570E+01
                       1.0799720831E+01  4.6622608012E+00  1.0671006570E+01
                       4.9856386511E+00  1.0438789537E+01  1.0547348609E+01
                       1.6403261508E-01 -1.2491217586E-18 -1.6403261508E-01
            xcart3     5.4216490355E+00  5.0265556514E+00  5.2018542562E+00
                       1.6045152327E+01  1.5653828558E+01  1.5825357548E+01
                       1.0461820020E+01  1.0340192105E+01  5.5089847344E+00
                       1.0805064128E+01  1.0340192105E+01  1.6264411445E+01
                       1.5738021849E+01  1.0340192105E+01  1.0785186563E+01
                       1.0685626503E+01  1.6020197397E+01  1.0561380081E+01
                       1.0685626503E+01  4.6601868131E+00  1.0561380081E+01
                       4.9825951380E+00  1.0340192105E+01  1.0441942456E+01
                       1.6247083063E-01  9.6347916636E-18 -1.6247083063E-01
            xcart4     5.3628111403E+00  4.9687502572E+00  5.1466737703E+00
                       1.5872296051E+01  1.5495135361E+01  1.5656158681E+01
                       1.0343807379E+01  1.0231942809E+01  5.4827232684E+00
                       1.0674710560E+01  1.0231942809E+01  1.6044448264E+01
                       1.5536246553E+01  1.0231942809E+01  1.0675162442E+01
                       1.0574212265E+01  1.5805867891E+01  1.0444757556E+01
                       1.0574212265E+01  4.6580177276E+00  1.0444757556E+01
                       4.9745215572E+00  1.0231942809E+01  1.0344259261E+01
                       1.6306151420E-01 -4.4088834045E-17 -1.6306151420E-01
            xcart5     5.3075916767E+00  4.9078231343E+00  5.0899533527E+00
                       1.5705136706E+01  1.5341018787E+01  1.5487498382E+01
                       1.0228208920E+01  1.0124420960E+01  5.4573396526E+00
                       1.0553281310E+01  1.0124420960E+01  1.5827165844E+01
                       1.5337750406E+01  1.0124420960E+01  1.0566881139E+01
                       1.0458450216E+01  1.5594305683E+01  1.0336639843E+01
                       1.0458450216E+01  4.6545362382E+00  1.0336639843E+01
                       4.9679242146E+00  1.0124420960E+01  1.0241808749E+01
                       1.6356657025E-01  1.3703953724E-18 -1.6356657025E-01
            xcart6     5.2477751664E+00  4.8502912971E+00  5.0388619690E+00
                       1.5534412302E+01  1.5167287340E+01  1.5325499104E+01
                       1.0116139480E+01  1.0008789319E+01  5.4249662886E+00
                       1.0426806186E+01  1.0008789319E+01  1.5613365624E+01
                       1.5148307982E+01  1.0008789319E+01  1.0457134790E+01
                       1.0346780666E+01  1.5367321354E+01  1.0226493604E+01
                       1.0346780666E+01  4.6502572833E+00  1.0226493605E+01
                       4.9599086470E+00  1.0008789319E+01  1.0146468084E+01
                       1.6618598639E-01 -6.8609883725E-18 -1.6618598639E-01
            xcart7     5.1853927925E+00  4.7978121320E+00  4.9846456608E+00
                       1.5355431246E+01  1.5001273653E+01  1.5154684114E+01
                       1.0001152921E+01  9.8995428924E+00  5.3872058175E+00
                       1.0292022352E+01  9.8995428924E+00  1.5390885216E+01
                       1.4952871089E+01  9.8995428924E+00  1.0338923986E+01
                       1.0227223103E+01  1.5154620511E+01  1.0112853804E+01
                       1.0227223103E+01  4.6444652738E+00  1.0112853803E+01
                       4.9491916908E+00  9.8995428924E+00  1.0048054555E+01
                       1.6979932967E-01 -2.7062719674E-18 -1.6979932967E-01
            xcart8     5.1235062839E+00  4.7435988244E+00  4.9346991723E+00
                       1.5181711740E+01  1.4824097550E+01  1.4992904629E+01
                       9.8911813316E+00  9.7838481870E+00  5.3481587100E+00
                       1.0166835161E+01  9.7838481870E+00  1.5176256659E+01
                       1.4768252202E+01  9.7838481870E+00  1.0225229581E+01
                       1.0109636965E+01  1.4930333971E+01  1.0006773948E+01
                       1.0109636965E+01  4.6373624029E+00  1.0006773948E+01
                       4.9401542536E+00  9.7838481870E+00  9.9495757510E+00
                       1.7472874704E-01 -8.4572820675E-18 -1.7472874704E-01
            xcart9     5.0591261428E+00  4.6919528451E+00  4.8853900462E+00
                       1.5003642332E+01  1.4646159717E+01  1.4829906235E+01
                       9.7805252549E+00  9.6690562810E+00  5.3041460549E+00
                       1.0036520033E+01  9.6690562810E+00  1.4958957381E+01
                       1.4584886323E+01  9.6690562810E+00  1.0108507123E+01
                       9.9898926669E+00  1.4709515550E+01  9.8991397108E+00
                       9.9898926672E+00  4.6285970118E+00  9.8991397110E+00
                       4.9300749968E+00  9.6690562810E+00  9.8525123450E+00
                       1.8156909561E-01  4.3226182702E-18 -1.8156909561E-01
            xcart10    4.9938910116E+00  4.6417746087E+00  4.8362632592E+00
                       1.4824045283E+01  1.4465260809E+01  1.4666417530E+01
                       9.6708434332E+00  9.5535177088E+00  5.2560270811E+00
                       9.9031507095E+00  9.5535177088E+00  1.4741604014E+01
                       1.4404281461E+01  9.5535177088E+00  9.9894651086E+00
                       9.8681828469E+00  1.4488823413E+01  9.7921256948E+00
                       9.8681828469E+00  4.6182120045E+00  9.7921256948E+00
                       4.9187045276E+00  9.5535177088E+00  9.7571578322E+00
                       1.8995204802E-01 -4.2843342478E-17 -1.8995204802E-01
             xred1     2.3631298656E-01  2.5496595326E-01  2.5375510691E-01
                       7.4624489309E-01  7.4503404674E-01  7.6368701344E-01
                       2.5364747106E-01  2.4880485136E-01  7.4635252894E-01
                       7.6911401045E-01  7.7944519759E-01  2.3088598955E-01
                       2.5364747106E-01  7.5119514864E-01  7.4635252894E-01
                       7.7277921589E-01  2.2119918131E-01  7.8482242148E-01
                       2.1517757852E-01  7.7880081869E-01  2.2722078411E-01
                       7.6911401045E-01  2.2055480241E-01  2.3088598955E-01
                      -1.6037637079E-02 -4.2231718286E-19  1.6037637079E-02
             xred2     2.3363607616E-01  2.5620117648E-01  2.5396157088E-01
                       7.4603842912E-01  7.4379882352E-01  7.6636392384E-01
                       2.5648605606E-01  2.5019822533E-01  7.4351394394E-01
                       7.6777112654E-01  7.7655048800E-01  2.3222887346E-01
                       2.5648605606E-01  7.4980177467E-01  7.4351394394E-01
                       7.7048874704E-01  2.2331424467E-01  7.8288276362E-01
                       2.1711723638E-01  7.7668575533E-01  2.2951125296E-01
                       7.6777112654E-01  2.2344951200E-01  2.3222887346E-01
                      -1.5794853907E-02 -5.7133765077E-20  1.5794853907E-02
             xred3     2.3236202321E-01  2.5694089624E-01  2.5375618431E-01
                       7.4624381569E-01  7.4305910376E-01  7.6763797679E-01
                       2.5895297348E-01  2.5167316827E-01  7.4104702652E-01
                       7.6569820349E-01  7.7403714339E-01  2.3430179651E-01
                       2.5895297348E-01  7.4832683173E-01  7.4104702652E-01
                       7.6860977577E-01  2.2534333820E-01  7.8070354783E-01
                       2.1929645217E-01  7.7465666180E-01  2.3139022423E-01
                       7.6569820349E-01  2.2596285661E-01  2.3430179651E-01
                      -1.5814420774E-02 -1.8941252644E-18  1.5814420774E-02
             xred4     2.3218341217E-01  2.5719419323E-01  2.5342820137E-01
                       7.4657179863E-01  7.4280580677E-01  7.6781658783E-01
                       2.6109474445E-01  2.5296414536E-01  7.3890525555E-01
                       7.6390379781E-01  7.7119259657E-01  2.3609620219E-01
                       2.6109474445E-01  7.4703585464E-01  7.3890525555E-01
                       7.6601638223E-01  2.2762137232E-01  7.7874087312E-01
                       2.2125912688E-01  7.7237862768E-01  2.3398361777E-01
                       7.6390379781E-01  2.2880740343E-01  2.3609620219E-01
                      -1.6027804429E-02 -1.9988911819E-18  1.6027804429E-02
             xred5     2.3157031035E-01  2.5762450251E-01  2.5318068464E-01
                       7.4681931536E-01  7.4237549750E-01  7.6842968965E-01
                       2.6313852117E-01  2.5429096620E-01  7.3686147883E-01
                       7.6183490262E-01  7.6859018543E-01  2.3816509738E-01
                       2.6313852117E-01  7.4570903380E-01  7.3686147883E-01
                       7.6408563870E-01  2.2986678726E-01  7.7618078677E-01
                       2.2381921323E-01  7.7013321274E-01  2.3591436130E-01
                       7.6183490262E-01  2.3140981457E-01  2.3816509738E-01
                      -1.6241325237E-02 -1.2942422735E-18  1.6241325237E-02
             xred6     2.3183021597E-01  2.5769840174E-01  2.5277298055E-01
                       7.4722701945E-01  7.4230159826E-01  7.6816978403E-01
                       2.6486374011E-01  2.5540264347E-01  7.3513625989E-01
                       7.5996656655E-01  7.6572812220E-01  2.4003343345E-01
                       2.6486374011E-01  7.4459735653E-01  7.3513625989E-01
                       7.6166215592E-01  2.3230868066E-01  7.7372048276E-01
                       2.2627951724E-01  7.6769131934E-01  2.3833784408E-01
                       7.5996656655E-01  2.3427187780E-01  2.4003343345E-01
                      -1.6659521910E-02 -7.8665112685E-19  1.6659521910E-02
             xred7     2.3216466927E-01  2.5767506721E-01  2.5248519630E-01
                       7.4751480370E-01  7.4232493279E-01  7.6783533073E-01
                       2.6647776727E-01  2.5655361623E-01  7.3352223273E-01
                       7.5806490923E-01  7.6267504718E-01  2.4193509077E-01
                       2.6647776727E-01  7.4344638377E-01  7.3352223273E-01
                       7.5963172835E-01  2.3457978435E-01  7.7120870294E-01
                       2.2879129706E-01  7.6542021564E-01  2.4036827165E-01
                       7.5806490923E-01  2.3732495282E-01  2.4193509077E-01
                      -1.7187851396E-02  2.3041306384E-19  1.7187851396E-02
             xred8     2.3277156874E-01  2.5758010888E-01  2.5206821350E-01
                       7.4793178650E-01  7.4241989112E-01  7.6722843126E-01
                       2.6784483128E-01  2.5755760348E-01  7.3215516872E-01
                       7.5598884042E-01  7.5982174110E-01  2.4401115958E-01
                       2.6784483128E-01  7.4244239652E-01  7.3215516872E-01
                       7.5775283036E-01  2.3699071747E-01  7.6826573470E-01
                       2.3173426530E-01  7.6300928253E-01  2.4224716964E-01
                       7.5598884042E-01  2.4017825890E-01  2.4401115958E-01
                      -1.7857794305E-02 -8.1448880395E-19  1.7857794305E-02
             xred9     2.3366326898E-01  2.5737276169E-01  2.5159120765E-01
                       7.4840879235E-01  7.4262723831E-01  7.6633673102E-01
                       2.6903978695E-01  2.5844168903E-01  7.3096021305E-01
                       7.5397472553E-01  7.5674678079E-01  2.4602527447E-01
                       2.6903978695E-01  7.4155831097E-01  7.3096021305E-01
                       7.5596654993E-01  2.3935102234E-01  7.6533140539E-01
                       2.3466859461E-01  7.6064897766E-01  2.4403345007E-01
                       7.5397472553E-01  2.4325321921E-01  2.4602527447E-01
                      -1.8736230838E-02  2.8293060013E-19  1.8736230838E-02
             xred10    2.3472437405E-01  2.5706463576E-01  2.5114635443E-01
                       7.4885364557E-01  7.4293536424E-01  7.6527562595E-01
                       2.7002771905E-01  2.5923887372E-01  7.2997228095E-01
                       7.5203996135E-01  7.5352838036E-01  2.4796003865E-01
                       2.7002771905E-01  7.4076112628E-01  7.2997228095E-01
                       7.5433593119E-01  2.4170217428E-01  7.6225972025E-01
                       2.3774027975E-01  7.5829782572E-01  2.4566406881E-01
                       7.5203996135E-01  2.4647161964E-01  2.4796003865E-01
                      -1.9789591353E-02  3.4126502102E-19  1.9789591353E-02
            znucl       55.00000   53.00000   40.00000   17.00000

================================================================================


- Timing analysis has been suppressed with timopt=0



================================================================================

 Suggested references for the acknowledgment of ABINIT usage.

 The users of ABINIT have little formal obligations with respect to the ABINIT group
 (those specified in the GNU General Public License, http://www.gnu.org/copyleft/gpl.txt).
 However, it is common practice in the scientific literature,
 to acknowledge the efforts of people that have made the research possible.
 In this spirit, please find below suggested citations of work written by ABINIT developers,
 corresponding to implementations inside of ABINIT that you have used in the present run.
 Note also that it will be of great value to readers of publications presenting these results,
 to read papers enabling them to understand the theoretical formalism and details
 of the ABINIT implementation.
 For information on why they are suggested, see also https://docs.abinit.org/theory/acknowledgments.
-
- [1] Implementation of the Projector Augmented-Wave Method in the ABINIT code.
- M. Torrent, F. Jollet, F. Bottin, G. Zerah, and X. Gonze Comput. Mat. Science 42, 337, (2008).
- Comment: PAW calculations. Strong suggestion to cite this paper.
- DOI and bibtex: see https://docs.abinit.org/theory/bibliography/#torrent2008
-
- [2] Libxc: A library of exchange and correlation functionals for density functional theory.
- M.A.L. Marques, M.J.T. Oliveira, T. Burnus, Computer Physics Communications 183, 2227 (2012).
- Comment: to be cited when LibXC is used (negative value of ixc)
- Strong suggestion to cite this paper.
- DOI and bibtex: see https://docs.abinit.org/theory/bibliography/#marques2012
-
- [3] The Abinit project: Impact, environment and recent developments.
- Computer Phys. Comm. 248, 107042 (2020).
- X.Gonze, B. Amadon, G. Antonius, F.Arnardi, L.Baguet, J.-M.Beuken,
- J.Bieder, F.Bottin, J.Bouchet, E.Bousquet, N.Brouwer, F.Bruneval,
- G.Brunin, T.Cavignac, J.-B. Charraud, Wei Chen, M.Cote, S.Cottenier,
- J.Denier, G.Geneste, Ph.Ghosez, M.Giantomassi, Y.Gillet, O.Gingras,
- D.R.Hamann, G.Hautier, Xu He, N.Helbig, N.Holzwarth, Y.Jia, F.Jollet,
- W.Lafargue-Dit-Hauret, K.Lejaeghere, M.A.L.Marques, A.Martin, C.Martins,
- H.P.C. Miranda, F.Naccarato, K. Persson, G.Petretto, V.Planes, Y.Pouillon,
- S.Prokhorenko, F.Ricci, G.-M.Rignanese, A.H.Romero, M.M.Schmitt, M.Torrent,
- M.J.van Setten, B.Van Troeye, M.J.Verstraete, G.Zerah and J.W.Zwanzig
- Comment: the fifth generic paper describing the ABINIT project.
- Note that a version of this paper, that is not formatted for Computer Phys. Comm. 
- is available at https://www.abinit.org/sites/default/files/ABINIT20.pdf .
- The licence allows the authors to put it on the Web.
- DOI and bibtex: see https://docs.abinit.org/theory/bibliography/#gonze2020
-
- [4] ABINIT: Overview, and focus on selected capabilities
- J. Chem. Phys. 152, 124102 (2020).
- A. Romero, D.C. Allan, B. Amadon, G. Antonius, T. Applencourt, L.Baguet,
- J.Bieder, F.Bottin, J.Bouchet, E.Bousquet, F.Bruneval,
- G.Brunin, D.Caliste, M.Cote,
- J.Denier, C. Dreyer, Ph.Ghosez, M.Giantomassi, Y.Gillet, O.Gingras,
- D.R.Hamann, G.Hautier, F.Jollet, G. Jomard,
- A.Martin, 
- H.P.C. Miranda, F.Naccarato, G.Petretto, N.A. Pike, V.Planes,
- S.Prokhorenko, T. Rangel, F.Ricci, G.-M.Rignanese, M.Royo, M.Stengel, M.Torrent,
- M.J.van Setten, B.Van Troeye, M.J.Verstraete, J.Wiktor, J.W.Zwanziger, and X.Gonze.
- Comment: a global overview of ABINIT, with focus on selected capabilities .
- Note that a version of this paper, that is not formatted for J. Chem. Phys 
- is available at https://www.abinit.org/sites/default/files/ABINIT20_JPC.pdf .
- The licence allows the authors to put it on the Web.
- DOI and bibtex: see https://docs.abinit.org/theory/bibliography/#romero2020
-
- [5] Recent developments in the ABINIT software package.
- Computer Phys. Comm. 205, 106 (2016).
- X.Gonze, F.Jollet, F.Abreu Araujo, D.Adams, B.Amadon, T.Applencourt,
- C.Audouze, J.-M.Beuken, J.Bieder, A.Bokhanchuk, E.Bousquet, F.Bruneval
- D.Caliste, M.Cote, F.Dahm, F.Da Pieve, M.Delaveau, M.Di Gennaro,
- B.Dorado, C.Espejo, G.Geneste, L.Genovese, A.Gerossier, M.Giantomassi,
- Y.Gillet, D.R.Hamann, L.He, G.Jomard, J.Laflamme Janssen, S.Le Roux,
- A.Levitt, A.Lherbier, F.Liu, I.Lukacevic, A.Martin, C.Martins,
- M.J.T.Oliveira, S.Ponce, Y.Pouillon, T.Rangel, G.-M.Rignanese,
- A.H.Romero, B.Rousseau, O.Rubel, A.A.Shukri, M.Stankovski, M.Torrent,
- M.J.Van Setten, B.Van Troeye, M.J.Verstraete, D.Waroquier, J.Wiktor,
- B.Xu, A.Zhou, J.W.Zwanziger.
- Comment: the fourth generic paper describing the ABINIT project.
- Note that a version of this paper, that is not formatted for Computer Phys. Comm. 
- is available at https://www.abinit.org/sites/default/files/ABINIT16.pdf .
- The licence allows the authors to put it on the Web.
- DOI and bibtex: see https://docs.abinit.org/theory/bibliography/#gonze2016
-
- Proc.   0 individual time (sec): cpu=      20368.8  wall=      20471.8

================================================================================

 Calculation completed.
.Delivered   0 WARNINGs and   5 COMMENTs to log file.
+Overall time at end (sec) : cpu=     122313.4  wall=     122830.7
