
.Version 9.2.2 of ABINIT 
.(MPI version, prepared for a x86_64_linux_gnu9.3 computer) 

.Copyright (C) 1998-2020 ABINIT group . 
 ABINIT comes with ABSOLUTELY NO WARRANTY.
 It is free software, and you are welcome to redistribute it
 under certain conditions (GNU General Public License,
 see ~abinit/COPYING or http://www.gnu.org/copyleft/gpl.txt).

 ABINIT is a project of the Universite Catholique de Louvain,
 Corning Inc. and other collaborators, see ~abinit/doc/developers/contributors.txt .
 Please read https://docs.abinit.org/theory/acknowledgments for suggested
 acknowledgments of the ABINIT effort.
 For more information, see https://www.abinit.org .

.Starting date : Wed 26 Oct 2022.
- ( at 15h30 )
  
- input  file    -> Cs2TiI6.in
- output file    -> Cs2TiI6.out
- root for input  files -> Cs2TiI6i
- root for output files -> Cs2TiI6o

- inpspheads : Reading pseudopotential header in XML form from 
-   ../../../Psps_for_tests/ATOMICDATA/Cs.GGA_PBE-JTH.xml
- inpspheads : Reading pseudopotential header in XML form from 
-   ../../../Psps_for_tests/ATOMICDATA/I.GGA_PBE-JTH.xml
- inpspheads : Reading pseudopotential header in XML form from 
-   ../../../Psps_for_tests/ATOMICDATA/Hf.GGA_PBE-JTH.xml
- inpspheads : Reading pseudopotential header in XML form from 
-   ../../../Psps_for_tests/ATOMICDATA/Cl.GGA_PBE-JTH.xml

 DATASET    1 : space group I4 m m (#107); Bravais tI (body-center tetrag.)
================================================================================
 Values of the parameters that define the memory need for DATASET  1.
     intxc =       0    ionmov =       0      iscf =      17    lmnmax =      18
     lnmax =       6     mgfft =      54  mpssoang =       3    mqgrid =    3405
     natom =       9  nloc_mem =       2    nspden =       1   nspinor =       1
    nsppol =       1      nsym =       8    n1xccc =       1    ntypat =       4
    occopt =       1   xclevel =       2
-    mband =          42        mffmem =           1         mkmem =          41
       mpw =        6833          nfft =      157464          nkpt =         163
Pmy_natom=         3
 PAW method is used; the additional fine FFT grid is defined by:
   mgfftf=        90    nfftf =    729000
================================================================================
P This job should need less than                     405.621 Mbytes of memory.
  Rough estimation (10% accuracy) of disk space for files :
_ WF disk file :    713.789 Mbytes ; DEN or POT disk file :      5.564 Mbytes.
================================================================================


 DATASET    2 : space group I4 m m (#107); Bravais tI (body-center tetrag.)
================================================================================
 Values of the parameters that define the memory need for DATASET  2.
     intxc =       0    ionmov =       0      iscf =      17    lmnmax =      18
     lnmax =       6     mgfft =      54  mpssoang =       3    mqgrid =    3370
     natom =       9  nloc_mem =       2    nspden =       1   nspinor =       1
    nsppol =       1      nsym =       8    n1xccc =       1    ntypat =       4
    occopt =       1   xclevel =       2
-    mband =          42        mffmem =           1         mkmem =          41
       mpw =        6624          nfft =      157464          nkpt =         163
Pmy_natom=         3
 PAW method is used; the additional fine FFT grid is defined by:
   mgfftf=        90    nfftf =    729000
================================================================================
P This job should need less than                     399.598 Mbytes of memory.
  Rough estimation (10% accuracy) of disk space for files :
_ WF disk file :    691.956 Mbytes ; DEN or POT disk file :      5.564 Mbytes.
================================================================================


 DATASET    3 : space group I4 m m (#107); Bravais tI (body-center tetrag.)
================================================================================
 Values of the parameters that define the memory need for DATASET  3.
     intxc =       0    ionmov =       0      iscf =      17    lmnmax =      18
     lnmax =       6     mgfft =      54  mpssoang =       3    mqgrid =    3336
     natom =       9  nloc_mem =       2    nspden =       1   nspinor =       1
    nsppol =       1      nsym =       8    n1xccc =       1    ntypat =       4
    occopt =       1   xclevel =       2
-    mband =          42        mffmem =           1         mkmem =          41
       mpw =        6418          nfft =      157464          nkpt =         163
Pmy_natom=         3
 PAW method is used; the additional fine FFT grid is defined by:
   mgfftf=        90    nfftf =    729000
================================================================================
P This job should need less than                     393.671 Mbytes of memory.
  Rough estimation (10% accuracy) of disk space for files :
_ WF disk file :    670.437 Mbytes ; DEN or POT disk file :      5.564 Mbytes.
================================================================================


 DATASET    4 : space group I4 m m (#107); Bravais tI (body-center tetrag.)
================================================================================
 Values of the parameters that define the memory need for DATASET  4.
     intxc =       0    ionmov =       0      iscf =      17    lmnmax =      18
     lnmax =       6     mgfft =      54  mpssoang =       3    mqgrid =    3301
     natom =       9  nloc_mem =       2    nspden =       1   nspinor =       1
    nsppol =       1      nsym =       8    n1xccc =       1    ntypat =       4
    occopt =       1   xclevel =       2
-    mband =          42        mffmem =           1         mkmem =          41
       mpw =        6224          nfft =      157464          nkpt =         163
Pmy_natom=         3
 PAW method is used; the additional fine FFT grid is defined by:
   mgfftf=        90    nfftf =    729000
================================================================================
P This job should need less than                     388.105 Mbytes of memory.
  Rough estimation (10% accuracy) of disk space for files :
_ WF disk file :    650.171 Mbytes ; DEN or POT disk file :      5.564 Mbytes.
================================================================================


 DATASET    5 : space group I4 m m (#107); Bravais tI (body-center tetrag.)
================================================================================
 Values of the parameters that define the memory need for DATASET  5.
     intxc =       0    ionmov =       0      iscf =      17    lmnmax =      18
     lnmax =       6     mgfft =      54  mpssoang =       3    mqgrid =    3267
     natom =       9  nloc_mem =       2    nspden =       1   nspinor =       1
    nsppol =       1      nsym =       8    n1xccc =       1    ntypat =       4
    occopt =       1   xclevel =       2
-    mband =          42        mffmem =           1         mkmem =          41
       mpw =        6048          nfft =      157464          nkpt =         163
Pmy_natom=         3
 PAW method is used; the additional fine FFT grid is defined by:
   mgfftf=        90    nfftf =    729000
================================================================================
P This job should need less than                     383.079 Mbytes of memory.
  Rough estimation (10% accuracy) of disk space for files :
_ WF disk file :    631.786 Mbytes ; DEN or POT disk file :      5.564 Mbytes.
================================================================================


 DATASET    6 : space group I4 m m (#107); Bravais tI (body-center tetrag.)
================================================================================
 Values of the parameters that define the memory need for DATASET  6.
     intxc =       0    ionmov =       0      iscf =      17    lmnmax =      18
     lnmax =       6     mgfft =      54  mpssoang =       3    mqgrid =    3232
     natom =       9  nloc_mem =       2    nspden =       1   nspinor =       1
    nsppol =       1      nsym =       8    n1xccc =       1    ntypat =       4
    occopt =       1   xclevel =       2
-    mband =          42        mffmem =           1         mkmem =          41
       mpw =        5849          nfft =      157464          nkpt =         163
Pmy_natom=         3
 PAW method is used; the additional fine FFT grid is defined by:
   mgfftf=        90    nfftf =    729000
================================================================================
P This job should need less than                     377.381 Mbytes of memory.
  Rough estimation (10% accuracy) of disk space for files :
_ WF disk file :    610.998 Mbytes ; DEN or POT disk file :      5.564 Mbytes.
================================================================================


 DATASET    7 : space group I4 m m (#107); Bravais tI (body-center tetrag.)
================================================================================
 Values of the parameters that define the memory need for DATASET  7.
     intxc =       0    ionmov =       0      iscf =      17    lmnmax =      18
     lnmax =       6     mgfft =      54  mpssoang =       3    mqgrid =    3198
     natom =       9  nloc_mem =       2    nspden =       1   nspinor =       1
    nsppol =       1      nsym =       8    n1xccc =       1    ntypat =       4
    occopt =       1   xclevel =       2
-    mband =          42        mffmem =           1         mkmem =          41
       mpw =        5656          nfft =      157464          nkpt =         163
Pmy_natom=         3
 PAW method is used; the additional fine FFT grid is defined by:
   mgfftf=        80    nfftf =    512000
================================================================================
P This job should need less than                     319.433 Mbytes of memory.
  Rough estimation (10% accuracy) of disk space for files :
_ WF disk file :    590.837 Mbytes ; DEN or POT disk file :      3.908 Mbytes.
================================================================================


 DATASET    8 : space group I4 m m (#107); Bravais tI (body-center tetrag.)
================================================================================
 Values of the parameters that define the memory need for DATASET  8.
     intxc =       0    ionmov =       0      iscf =      17    lmnmax =      18
     lnmax =       6     mgfft =      50  mpssoang =       3    mqgrid =    3164
     natom =       9  nloc_mem =       2    nspden =       1   nspinor =       1
    nsppol =       1      nsym =       8    n1xccc =       1    ntypat =       4
    occopt =       1   xclevel =       2
-    mband =          42        mffmem =           1         mkmem =          41
       mpw =        5485          nfft =      125000          nkpt =         163
Pmy_natom=         3
 PAW method is used; the additional fine FFT grid is defined by:
   mgfftf=        80    nfftf =    512000
================================================================================
P This job should need less than                     309.685 Mbytes of memory.
  Rough estimation (10% accuracy) of disk space for files :
_ WF disk file :    572.974 Mbytes ; DEN or POT disk file :      3.908 Mbytes.
================================================================================


 DATASET    9 : space group I4 m m (#107); Bravais tI (body-center tetrag.)
================================================================================
 Values of the parameters that define the memory need for DATASET  9.
     intxc =       0    ionmov =       0      iscf =      17    lmnmax =      18
     lnmax =       6     mgfft =      50  mpssoang =       3    mqgrid =    3129
     natom =       9  nloc_mem =       2    nspden =       1   nspinor =       1
    nsppol =       1      nsym =       8    n1xccc =       1    ntypat =       4
    occopt =       1   xclevel =       2
-    mband =          42        mffmem =           1         mkmem =          41
       mpw =        5309          nfft =      125000          nkpt =         163
Pmy_natom=         3
 PAW method is used; the additional fine FFT grid is defined by:
   mgfftf=        80    nfftf =    512000
================================================================================
P This job should need less than                     304.629 Mbytes of memory.
  Rough estimation (10% accuracy) of disk space for files :
_ WF disk file :    554.589 Mbytes ; DEN or POT disk file :      3.908 Mbytes.
================================================================================


 DATASET   10 : space group I4 m m (#107); Bravais tI (body-center tetrag.)
================================================================================
 Values of the parameters that define the memory need for DATASET 10.
     intxc =       0    ionmov =       0      iscf =      17    lmnmax =      18
     lnmax =       6     mgfft =      50  mpssoang =       3    mqgrid =    3095
     natom =       9  nloc_mem =       2    nspden =       1   nspinor =       1
    nsppol =       1      nsym =       8    n1xccc =       1    ntypat =       4
    occopt =       1   xclevel =       2
-    mband =          42        mffmem =           1         mkmem =          41
       mpw =        5140          nfft =      125000          nkpt =         163
Pmy_natom=         3
 PAW method is used; the additional fine FFT grid is defined by:
   mgfftf=        80    nfftf =    512000
================================================================================
P This job should need less than                     299.786 Mbytes of memory.
  Rough estimation (10% accuracy) of disk space for files :
_ WF disk file :    536.935 Mbytes ; DEN or POT disk file :      3.908 Mbytes.
================================================================================

--------------------------------------------------------------------------------
------------- Echo of variables that govern the present computation ------------
--------------------------------------------------------------------------------
-
- outvars: echo of selected default values                                      
-   iomode0 =  0 , fftalg0 =112 , wfoptalg0 = 10
-
- outvars: echo of global parameters not present in the input file              
-  max_nthreads =    0
-
 -outvars: echo values of preprocessed input variables --------
            acell1     1.4587718699E+01  1.4771370105E+01  1.4587718699E+01 Bohr
            acell2     1.4433016377E+01  1.4638377990E+01  1.4433016377E+01 Bohr
            acell3     1.4277239678E+01  1.4508013379E+01  1.4277239678E+01 Bohr
            acell4     1.4123819821E+01  1.4372562829E+01  1.4123819821E+01 Bohr
            acell5     1.3969209267E+01  1.4240024632E+01  1.3969209267E+01 Bohr
            acell6     1.3819655799E+01  1.4095939928E+01  1.3819655799E+01 Bohr
            acell7     1.3672704657E+01  1.3945828833E+01  1.3672704657E+01 Bohr
            acell8     1.3527063728E+01  1.3792681182E+01  1.3527063728E+01 Bohr
            acell9     1.3381590117E+01  1.3639156137E+01  1.3381590117E+01 Bohr
            acell10    1.3239947130E+01  1.3476863724E+01  1.3239947130E+01 Bohr
              amu      1.32905430E+02  1.26904470E+02  1.78490000E+02
                       3.54527000E+01
           diemac      1.20000000E+01
             ecut      1.60000000E+01 Hartree
-          fftalg         112
           istwfk        2    0    0    0    0    0    3    0    0    0
                         0    0    0    0    0    0    0    0    0    0
                         0    0    0    0    0    0    0    0    0    0
                         0    0    0    0    0    0    0    0    0    0
                         0    0    7    0    0    0    0    0    0    0
                       outvar_i_n : Printing only first  50 k-points.
              ixc     -101130
           jdtset        1    2    3    4    5    6    7    8    9   10
              kpt      0.00000000E+00  0.00000000E+00  0.00000000E+00
                       8.33333333E-02  0.00000000E+00  0.00000000E+00
                       1.66666667E-01  0.00000000E+00  0.00000000E+00
                       2.50000000E-01  0.00000000E+00  0.00000000E+00
                       3.33333333E-01  0.00000000E+00  0.00000000E+00
                       4.16666667E-01  0.00000000E+00  0.00000000E+00
                       5.00000000E-01  0.00000000E+00  0.00000000E+00
                       8.33333333E-02  8.33333333E-02  0.00000000E+00
                       1.66666667E-01  8.33333333E-02  0.00000000E+00
                       2.50000000E-01  8.33333333E-02  0.00000000E+00
                       3.33333333E-01  8.33333333E-02  0.00000000E+00
                       4.16666667E-01  8.33333333E-02  0.00000000E+00
                       5.00000000E-01  8.33333333E-02  0.00000000E+00
                      -4.16666667E-01  8.33333333E-02  0.00000000E+00
                      -3.33333333E-01  8.33333333E-02  0.00000000E+00
                      -2.50000000E-01  8.33333333E-02  0.00000000E+00
                      -1.66666667E-01  8.33333333E-02  0.00000000E+00
                      -8.33333333E-02  8.33333333E-02  0.00000000E+00
                       1.66666667E-01  1.66666667E-01  0.00000000E+00
                       2.50000000E-01  1.66666667E-01  0.00000000E+00
                       3.33333333E-01  1.66666667E-01  0.00000000E+00
                       4.16666667E-01  1.66666667E-01  0.00000000E+00
                       5.00000000E-01  1.66666667E-01  0.00000000E+00
                      -4.16666667E-01  1.66666667E-01  0.00000000E+00
                      -3.33333333E-01  1.66666667E-01  0.00000000E+00
                      -2.50000000E-01  1.66666667E-01  0.00000000E+00
                      -1.66666667E-01  1.66666667E-01  0.00000000E+00
                       2.50000000E-01  2.50000000E-01  0.00000000E+00
                       3.33333333E-01  2.50000000E-01  0.00000000E+00
                       4.16666667E-01  2.50000000E-01  0.00000000E+00
                       5.00000000E-01  2.50000000E-01  0.00000000E+00
                      -4.16666667E-01  2.50000000E-01  0.00000000E+00
                      -3.33333333E-01  2.50000000E-01  0.00000000E+00
                      -2.50000000E-01  2.50000000E-01  0.00000000E+00
                       3.33333333E-01  3.33333333E-01  0.00000000E+00
                       4.16666667E-01  3.33333333E-01  0.00000000E+00
                       5.00000000E-01  3.33333333E-01  0.00000000E+00
                      -4.16666667E-01  3.33333333E-01  0.00000000E+00
                      -3.33333333E-01  3.33333333E-01  0.00000000E+00
                       4.16666667E-01  4.16666667E-01  0.00000000E+00
                       5.00000000E-01  4.16666667E-01  0.00000000E+00
                      -4.16666667E-01  4.16666667E-01  0.00000000E+00
                       5.00000000E-01  5.00000000E-01  0.00000000E+00
                       8.33333333E-02  0.00000000E+00  8.33333333E-02
                       1.66666667E-01  0.00000000E+00  8.33333333E-02
                       2.50000000E-01  0.00000000E+00  8.33333333E-02
                       3.33333333E-01  0.00000000E+00  8.33333333E-02
                       4.16666667E-01  0.00000000E+00  8.33333333E-02
                       5.00000000E-01  0.00000000E+00  8.33333333E-02
                      -4.16666667E-01  0.00000000E+00  8.33333333E-02
                       outvar_i_n : Printing only first  50 k-points.
         kptrlatt       12    0    0      0   12    0      0    0   12
          kptrlen1     1.75052624E+02
          kptrlen2     1.73196197E+02
          kptrlen3     1.71326876E+02
          kptrlen4     1.69485838E+02
          kptrlen5     1.67630511E+02
          kptrlen6     1.65835870E+02
          kptrlen7     1.64072456E+02
          kptrlen8     1.62324765E+02
          kptrlen9     1.60579081E+02
          kptrlen10    1.58879366E+02
P           mkmem          41
            natom           9
            nband          42
           ndtset          10
            ngfft1         54      54      54
            ngfft2         54      54      54
            ngfft3         54      54      54
            ngfft4         54      54      54
            ngfft5         54      54      54
            ngfft6         54      54      54
            ngfft7         54      54      54
            ngfft8         50      50      50
            ngfft9         50      50      50
            ngfft10        50      50      50
          ngfftdg1         90      90      90
          ngfftdg2         90      90      90
          ngfftdg3         90      90      90
          ngfftdg4         90      90      90
          ngfftdg5         90      90      90
          ngfftdg6         90      90      90
          ngfftdg7         80      80      80
          ngfftdg8         80      80      80
          ngfftdg9         80      80      80
          ngfftdg10        80      80      80
             nkpt         163
            nstep        2500
             nsym           8
           ntypat           4
              occ      2.000000  2.000000  2.000000  2.000000  2.000000  2.000000
                       2.000000  2.000000  2.000000  2.000000  2.000000  2.000000
                       2.000000  2.000000  2.000000  2.000000  2.000000  2.000000
                       2.000000  2.000000  2.000000  2.000000  2.000000  2.000000
                       2.000000  2.000000  2.000000  2.000000  2.000000  2.000000
                       2.000000  2.000000  2.000000  2.000000  2.000000  2.000000
                       0.000000  0.000000  0.000000  0.000000  0.000000  0.000000
        pawecutdg      4.00000000E+01 Hartree
            prtwf           0
            rprim1     0.0000000000E+00  6.9809118266E-01  7.1600886914E-01
                       7.0710678119E-01  0.0000000000E+00  7.0710678119E-01
                       7.1600886914E-01  6.9809118266E-01  0.0000000000E+00
            rprim2     0.0000000000E+00  6.9690040447E-01  7.1716792054E-01
                       7.0710678119E-01  0.0000000000E+00  7.0710678119E-01
                       7.1716792054E-01  6.9690040447E-01  0.0000000000E+00
            rprim3     0.0000000000E+00  6.9548948148E-01  7.1853627685E-01
                       7.0710678119E-01  0.0000000000E+00  7.0710678119E-01
                       7.1853627685E-01  6.9548948148E-01  0.0000000000E+00
            rprim4     0.0000000000E+00  6.9443021237E-01  7.1956006014E-01
                       7.0710678119E-01  0.0000000000E+00  7.0710678119E-01
                       7.1956006014E-01  6.9443021237E-01  0.0000000000E+00
            rprim5     0.0000000000E+00  6.9312732431E-01  7.2081517208E-01
                       7.0710678119E-01  0.0000000000E+00  7.0710678119E-01
                       7.2081517208E-01  6.9312732431E-01  0.0000000000E+00
            rprim6     0.0000000000E+00  6.9268177691E-01  7.2124334031E-01
                       7.0710678119E-01  0.0000000000E+00  7.0710678119E-01
                       7.2124334031E-01  6.9268177691E-01  0.0000000000E+00
            rprim7     0.0000000000E+00  6.9269373604E-01  7.2123185458E-01
                       7.0710678119E-01  0.0000000000E+00  7.0710678119E-01
                       7.2123185458E-01  6.9269373604E-01  0.0000000000E+00
            rprim8     0.0000000000E+00  6.9294387318E-01  7.2099153159E-01
                       7.0710678119E-01  0.0000000000E+00  7.0710678119E-01
                       7.2099153159E-01  6.9294387318E-01  0.0000000000E+00
            rprim9     0.0000000000E+00  6.9322937944E-01  7.2071702316E-01
                       7.0710678119E-01  0.0000000000E+00  7.0710678119E-01
                       7.2071702316E-01  6.9322937944E-01  0.0000000000E+00
            rprim10    0.0000000000E+00  6.9422318242E-01  7.1975980229E-01
                       7.0710678119E-01  0.0000000000E+00  7.0710678119E-01
                       7.1975980229E-01  6.9422318242E-01  0.0000000000E+00
          spgroup         107
           symrel      1  0  0   0  1  0   0  0  1       0  0  1   0  1  0   1  0  0
                       0 -1  1   0 -1  0   1 -1  0       1 -1  0   0 -1  0   0 -1  1
                       0 -1  1  -1  0  1   0  0  1       0  0  1  -1  0  1   0 -1  1
                       1  0  0   1  0 -1   1 -1  0       1 -1  0   1  0 -1   1  0  0
           toldfe      1.00000000E-08 Hartree
            typat      1  1  2  4  4  4  4  4  3
           useylm           1
              wtk        0.00058    0.00463    0.00463    0.00463    0.00463    0.00463
                         0.00231    0.00231    0.00926    0.00926    0.00926    0.00926
                         0.00926    0.00926    0.00926    0.00926    0.00926    0.00463
                         0.00231    0.00926    0.00926    0.00926    0.00926    0.00926
                         0.00926    0.00926    0.00463    0.00231    0.00926    0.00926
                         0.00926    0.00926    0.00926    0.00463    0.00231    0.00926
                         0.00926    0.00926    0.00463    0.00231    0.00926    0.00463
                         0.00116    0.00116    0.00463    0.00463    0.00463    0.00463
                         0.00463    0.00463
                       outvars : Printing only first  50 k-points.
           xangst1     2.7636110300E+00  2.7628638922E+00  2.7636110300E+00
                       8.2908330899E+00  8.1517705817E+00  8.2908330899E+00
                       5.5272220599E+00  7.9490017218E+00  5.5272220599E+00
                       5.5272220599E+00  5.4108620145E+00  2.4592474457E+00
                       5.5272220599E+00  5.4108620145E+00  8.5951966741E+00
                       5.5272220599E+00  2.5246522299E+00  5.5272220599E+00
                       8.5951966741E+00  5.4108620145E+00  5.5272220599E+00
                       2.4592474457E+00  5.4108620145E+00  5.5272220599E+00
                       1.1348606720E-12  7.9517032626E-02  1.1348606720E-12
           xangst2     2.7387292164E+00  2.7328761296E+00  2.7387292164E+00
                       8.2161876492E+00  8.0555389090E+00  8.2161876492E+00
                       5.4774584328E+00  7.8243122191E+00  5.4774584328E+00
                       5.4774584328E+00  5.3422370828E+00  2.4579564218E+00
                       5.4774584328E+00  5.3422370828E+00  8.4969604439E+00
                       5.4774584328E+00  2.5219389114E+00  5.4774584328E+00
                       8.4969604439E+00  5.3422370828E+00  5.4774584328E+00
                       2.4579564218E+00  5.3422370828E+00  5.4774584328E+00
                      -5.3520778953E-13  7.7687735381E-02 -5.3520778953E-13
           xangst3     2.7143389890E+00  2.6914591751E+00  2.7143389890E+00
                       8.1430169669E+00  7.9460142388E+00  8.1430169669E+00
                       5.4286779779E+00  7.6999520433E+00  5.4286779779E+00
                       5.4286779779E+00  5.2744215706E+00  2.4562469622E+00
                       5.4286779779E+00  5.2744215706E+00  8.4011089936E+00
                       5.4286779779E+00  2.5222581803E+00  5.4286779779E+00
                       8.4011089936E+00  5.2744215706E+00  5.4286779779E+00
                       2.4562469622E+00  5.2744215706E+00  5.4286779779E+00
                       1.5554492508E-13  7.9070590023E-02  1.5554492508E-13
           xangst4     2.6889972210E+00  2.6580589432E+00  2.6889972210E+00
                       8.0669916631E+00  7.8482328140E+00  8.0669916631E+00
                       5.3779944421E+00  7.5824855555E+00  5.3779944421E+00
                       5.3779944421E+00  5.2081889985E+00  2.4541692871E+00
                       5.3779944420E+00  5.2081889985E+00  8.3018195970E+00
                       5.3779944420E+00  2.5208426779E+00  5.3779944420E+00
                       8.3018195970E+00  5.2081889985E+00  5.3779944420E+00
                       2.4541692871E+00  5.2081889985E+00  5.3779944421E+00
                       1.3697542829E-12  7.9014981255E-02  1.3697542829E-12
           xangst5     2.6642003321E+00  2.6229030968E+00  2.6642003321E+00
                       7.9926009963E+00  7.7466300081E+00  7.9926009963E+00
                       5.3284006642E+00  7.4625327443E+00  5.3284006642E+00
                       5.3284006642E+00  5.1394258679E+00  2.4512983665E+00
                       5.3284006642E+00  5.1394258679E+00  8.2055029619E+00
                       5.3284006642E+00  2.5203316991E+00  5.3284006642E+00
                       8.2055029619E+00  5.1394258679E+00  5.3284006642E+00
                       2.4512983665E+00  5.1394258679E+00  5.3284006642E+00
                       5.8876526084E-14  7.9714269859E-02  5.8876526084E-14
           xangst6     2.6372431796E+00  2.5905579375E+00  2.6372431796E+00
                       7.9117295387E+00  7.6561722446E+00  7.9117295387E+00
                       5.2744863591E+00  7.3605400892E+00  5.2744863591E+00
                       5.2744863591E+00  5.0794140361E+00  2.4482016078E+00
                       5.2744863591E+00  5.0794140361E+00  8.1007711104E+00
                       5.2744863591E+00  2.5193527065E+00  5.2744863591E+00
                       8.1007711104E+00  5.0794140361E+00  5.2744863591E+00
                       2.4482016078E+00  5.0794140361E+00  5.2744863591E+00
                       2.9287744638E-13  8.0635334005E-02  2.9287744638E-13
           xangst7     2.6091585350E+00  2.5612063916E+00  2.6091585350E+00
                       7.8274756051E+00  7.5730420782E+00  7.8274756051E+00
                       5.2183170701E+00  7.2688778731E+00  5.2183170701E+00
                       5.2183170700E+00  5.0224439987E+00  2.4444337945E+00
                       5.2183170701E+00  5.0224439987E+00  7.9922003457E+00
                       5.2183170701E+00  2.5190014396E+00  5.2183170701E+00
                       7.9922003457E+00  5.0224439987E+00  5.2183170701E+00
                       2.4444337945E+00  5.0224439987E+00  5.2183170700E+00
                      -1.0340375214E-12  8.2781715187E-02 -1.0340375214E-12
           xangst8     2.5805057741E+00  2.5321882468E+00  2.5805057741E+00
                       7.7415173224E+00  7.4924286590E+00  7.7415173224E+00
                       5.1610115483E+00  7.1826731256E+00  5.1610115483E+00
                       5.1610115483E+00  4.9679326917E+00  2.4400738347E+00
                       5.1610115482E+00  4.9679326917E+00  7.8819492618E+00
                       5.1610115482E+00  2.5181183978E+00  5.1610115482E+00
                       7.8819492618E+00  4.9679326917E+00  5.1610115482E+00
                       2.4400738347E+00  4.9679326917E+00  5.1610115483E+00
                       2.6337036948E-12  8.4784101930E-02  2.6337036948E-12
           xangst9     2.5517824055E+00  2.5028520208E+00  2.5517824055E+00
                       7.6553472165E+00  7.4117704357E+00  7.6553472165E+00
                       5.1035648110E+00  7.0985438904E+00  5.1035648110E+00
                       5.1035648110E+00  4.9132199846E+00  2.4346739984E+00
                       5.1035648110E+00  4.9132199846E+00  7.7724556236E+00
                       5.1035648110E+00  2.5174778809E+00  5.1035648110E+00
                       7.7724556236E+00  4.9132199846E+00  5.1035648110E+00
                       2.4346739984E+00  4.9132199846E+00  5.1035648110E+00
                       4.2419002149E-13  8.7823152478E-02  4.2419002149E-13
           xangst10    2.5214187291E+00  2.4765719823E+00  2.5214187291E+00
                       7.5642561872E+00  7.3404927758E+00  7.5642561872E+00
                       5.0428374582E+00  7.0282899183E+00  5.0428374582E+00
                       5.0428374582E+00  4.8644558106E+00  2.4286335430E+00
                       5.0428374581E+00  4.8644558106E+00  7.6570413732E+00
                       5.0428374581E+00  2.5165148942E+00  5.0428374581E+00
                       7.6570413732E+00  4.8644558106E+00  5.0428374581E+00
                       2.4286335430E+00  4.8644558106E+00  5.0428374582E+00
                       1.0219850529E-12  9.1673534613E-02  1.0219850529E-12
            xcart1     5.2224679844E+00  5.2210560986E+00  5.2224679844E+00
                       1.5667403953E+01  1.5404613898E+01  1.5667403953E+01
                       1.0444935969E+01  1.5021436284E+01  1.0444935969E+01
                       1.0444935969E+01  1.0225047350E+01  4.6473041654E+00
                       1.0444935969E+01  1.0225047350E+01  1.6242567772E+01
                       1.0444935969E+01  4.7709012952E+00  1.0444935969E+01
                       1.6242567772E+01  1.0225047350E+01  1.0444935969E+01
                       4.6473041654E+00  1.0225047350E+01  1.0444935969E+01
                       2.1445758690E-12  1.5026541456E-01  2.1445758690E-12
            xcart2     5.1754481711E+00  5.1643874400E+00  5.1754481711E+00
                       1.5526344513E+01  1.5222762391E+01  1.5526344513E+01
                       1.0350896342E+01  1.4785807272E+01  1.0350896342E+01
                       1.0350896342E+01  1.0095365023E+01  4.6448644837E+00
                       1.0350896342E+01  1.0095365023E+01  1.6056928201E+01
                       1.0350896342E+01  4.7657738665E+00  1.0350896342E+01
                       1.6056928201E+01  1.0095365023E+01  1.0350896342E+01
                       4.6448644837E+00  1.0095365023E+01  1.0350896342E+01
                      -1.0113961464E-12  1.4680854375E-01 -1.0113961464E-12
            xcart3     5.1293573210E+00  5.0861207388E+00  5.1293573210E+00
                       1.5388071963E+01  1.5015790759E+01  1.5388071963E+01
                       1.0258714642E+01  1.4550800598E+01  1.0258714642E+01
                       1.0258714642E+01  9.9672122778E+00  4.6416340733E+00
                       1.0258714642E+01  9.9672122778E+00  1.5875795211E+01
                       1.0258714642E+01  4.7663771972E+00  1.0258714642E+01
                       1.5875795211E+01  9.9672122778E+00  1.0258714642E+01
                       4.6416340733E+00  9.9672122778E+00  1.0258714642E+01
                       2.9393730977E-13  1.4942176031E-01  2.9393730977E-13
            xcart4     5.0814683198E+00  5.0230034478E+00  5.0814683198E+00
                       1.5244404959E+01  1.4831010646E+01  1.5244404959E+01
                       1.0162936640E+01  1.4328821107E+01  1.0162936640E+01
                       1.0162936640E+01  9.8420508555E+00  4.6377078363E+00
                       1.0162936640E+01  9.8420508555E+00  1.5688165443E+01
                       1.0162936640E+01  4.7637022853E+00  1.0162936640E+01
                       1.5688165443E+01  9.8420508555E+00  1.0162936640E+01
                       4.6377078363E+00  9.8420508555E+00  1.0162936640E+01
                       2.5884604641E-12  1.4931667497E-01  2.5884604641E-12
            xcart5     5.0346089908E+00  4.9565685260E+00  5.0346089908E+00
                       1.5103826972E+01  1.4639009168E+01  1.5103826972E+01
                       1.0069217982E+01  1.4102143145E+01  1.0069217982E+01
                       1.0069217982E+01  9.7121073706E+00  4.6322825826E+00
                       1.0069217982E+01  9.7121073706E+00  1.5506153381E+01
                       1.0069217982E+01  4.7627366754E+00  1.0069217982E+01
                       1.5506153381E+01  9.7121073706E+00  1.0069217982E+01
                       4.6322825826E+00  9.7121073706E+00  1.0069217982E+01
                       1.1126050996E-13  1.5063813892E-01  1.1126050996E-13
            xcart6     4.9836673552E+00  4.8954450333E+00  4.9836673552E+00
                       1.4951002066E+01  1.4468068768E+01  1.4951002066E+01
                       9.9673347104E+00  1.3909404959E+01  9.9673347104E+00
                       9.9673347104E+00  9.5987014438E+00  4.6264305568E+00
                       9.9673347104E+00  9.5987014438E+00  1.5308238864E+01
                       9.9673347104E+00  4.7608866475E+00  9.9673347104E+00
                       1.5308238864E+01  9.5987014438E+00  9.9673347104E+00
                       4.6264305568E+00  9.5987014438E+00  9.9673347104E+00
                       5.5345816415E-13  1.5237869790E-01  5.5345816415E-13
            xcart7     4.9305950685E+00  4.8399786499E+00  4.9305950685E+00
                       1.4791785206E+01  1.4310975521E+01  1.4791785206E+01
                       9.8611901370E+00  1.3736188474E+01  9.8611901370E+00
                       9.8611901369E+00  9.4910436754E+00  4.6193104215E+00
                       9.8611901371E+00  9.4910436754E+00  1.5103069853E+01
                       9.8611901371E+00  4.7602228492E+00  9.8611901371E+00
                       1.5103069853E+01  9.4910436754E+00  9.8611901371E+00
                       4.6193104215E+00  9.4910436754E+00  9.8611901369E+00
                      -1.9540477267E-12  1.5643477051E-01 -1.9540477267E-12
            xcart8     4.8764491974E+00  4.7851423033E+00  4.8764491974E+00
                       1.4629347592E+01  1.4158638236E+01  1.4629347592E+01
                       9.7528983950E+00  1.3573285109E+01  9.7528983950E+00
                       9.7528983950E+00  9.3880322340E+00  4.6110712916E+00
                       9.7528983947E+00  9.3880322340E+00  1.4894725498E+01
                       9.7528983947E+00  4.7585541421E+00  9.7528983947E+00
                       1.4894725498E+01  9.3880322340E+00  9.7528983947E+00
                       4.6110712916E+00  9.3880322340E+00  9.7528983950E+00
                       4.9769786984E-12  1.6021873307E-01  4.9769786984E-12
            xcart9     4.8221698971E+00  4.7297048705E+00  4.8221698971E+00
                       1.4466509691E+01  1.4006216283E+01  1.4466509691E+01
                       9.6443397942E+00  1.3414303895E+01  9.6443397942E+00
                       9.6443397943E+00  9.2846402015E+00  4.6008670798E+00
                       9.6443397942E+00  9.2846402015E+00  1.4687812509E+01
                       9.6443397942E+00  4.7573437406E+00  9.6443397942E+00
                       1.4687812509E+01  9.2846402015E+00  9.6443397942E+00
                       4.6008670798E+00  9.2846402015E+00  9.6443397943E+00
                       8.0160296892E-13  1.6596170631E-01  8.0160296892E-13
            xcart10    4.7647908643E+00  4.6800427950E+00  4.7647908643E+00
                       1.4294372593E+01  1.3871521027E+01  1.4294372593E+01
                       9.5295817286E+00  1.3281543128E+01  9.5295817286E+00
                       9.5295817286E+00  9.1924892676E+00  4.5894522734E+00
                       9.5295817285E+00  9.1924892676E+00  1.4469711184E+01
                       9.5295817285E+00  4.7555239594E+00  9.5295817285E+00
                       1.4469711184E+01  9.1924892676E+00  9.5295817285E+00
                       4.5894522734E+00  9.1924892676E+00  9.5295817286E+00
                       1.9312718619E-12  1.7323787405E-01  1.9312718619E-12
             xred1     2.5634734941E-01  2.4365265059E-01  2.5634734941E-01
                       7.5634734941E-01  7.4365265059E-01  7.5634734941E-01
                       7.3753380600E-01  2.6246619400E-01  7.3753380600E-01
                       2.2450394287E-01  2.2042977231E-01  7.7957022769E-01
                       7.7957022769E-01  7.7549605713E-01  2.2450394287E-01
                       2.3424530942E-01  7.6575469058E-01  2.3424530942E-01
                       2.2450394287E-01  7.7549605713E-01  7.7957022769E-01
                       7.7957022769E-01  2.2042977231E-01  2.2450394287E-01
                       7.3778446359E-03 -7.3778446359E-03  7.3778446359E-03
             xred2     2.5672076579E-01  2.4327923421E-01  2.5672076579E-01
                       7.5672076579E-01  7.4327923421E-01  7.5672076579E-01
                       7.3499980586E-01  2.6500019414E-01  7.3499980586E-01
                       2.2620892725E-01  2.2253138761E-01  7.7746861239E-01
                       7.7746861239E-01  7.7379107275E-01  2.2620892725E-01
                       2.3690575713E-01  7.6309424287E-01  2.3690575713E-01
                       2.2620892725E-01  7.7379107275E-01  7.7746861239E-01
                       7.7746861239E-01  2.2253138761E-01  2.2620892725E-01
                       7.2978261633E-03 -7.2978261633E-03  7.2978261633E-03
             xred3     2.5610723862E-01  2.4389276138E-01  2.5610723862E-01
                       7.5610723862E-01  7.4389276138E-01  7.5610723862E-01
                       7.3269305868E-01  2.6730694132E-01  7.3269305868E-01
                       2.2811924062E-01  2.2433842443E-01  7.7566157557E-01
                       7.7566157557E-01  7.7188075938E-01  2.2811924062E-01
                       2.4000682738E-01  7.5999317262E-01  2.4000682738E-01
                       2.2811924062E-01  7.7188075938E-01  7.7566157557E-01
                       7.7566157557E-01  2.2433842443E-01  2.2811924062E-01
                       7.5240043223E-03 -7.5240043223E-03  7.5240043223E-03
             xred4     2.5606646419E-01  2.4393353581E-01  2.5606646419E-01
                       7.5606646419E-01  7.4393353581E-01  7.5606646419E-01
                       7.3046546651E-01  2.6953453349E-01  7.3046546651E-01
                       2.2990320722E-01  2.2643220062E-01  7.7356779938E-01
                       7.7356779938E-01  7.7009679278E-01  2.2990320722E-01
                       2.4284761365E-01  7.5715238635E-01  2.4284761365E-01
                       2.2990320722E-01  7.7009679278E-01  7.7356779938E-01
                       7.7356779938E-01  2.2643220062E-01  2.2990320722E-01
                       7.6119782519E-03 -7.6119782519E-03  7.6119782519E-03
             xred5     2.5595656660E-01  2.4404343340E-01  2.5595656660E-01
                       7.5595656660E-01  7.4404343340E-01  7.5595656660E-01
                       7.2823287361E-01  2.7176712639E-01  7.2823287361E-01
                       2.3155394961E-01  2.2848997744E-01  7.7151002256E-01
                       7.7151002256E-01  7.6844605039E-01  2.3155394961E-01
                       2.4594711455E-01  7.5405288545E-01  2.4594711455E-01
                       2.3155394961E-01  7.6844605039E-01  7.7151002256E-01
                       7.7151002256E-01  2.2848997744E-01  2.3155394961E-01
                       7.7789342836E-03 -7.7789342836E-03  7.7789342836E-03
             xred6     2.5570027449E-01  2.4429972551E-01  2.5570027449E-01
                       7.5570027449E-01  7.4429972551E-01  7.5570027449E-01
                       7.2651998781E-01  2.7348001219E-01  7.2651998781E-01
                       2.3344172093E-01  2.3071752437E-01  7.6928247563E-01
                       7.6928247563E-01  7.6655827907E-01  2.3344172093E-01
                       2.4867198269E-01  7.5132801731E-01  2.4867198269E-01
                       2.3344172093E-01  7.6655827907E-01  7.6928247563E-01
                       7.6928247563E-01  2.3071752437E-01  2.3344172093E-01
                       7.9590873996E-03 -7.9590873996E-03  7.9590873996E-03
             xred7     2.5551579818E-01  2.4448420182E-01  2.5551579818E-01
                       7.5551579818E-01  7.4448420182E-01  7.5551579818E-01
                       7.2517120749E-01  2.7482879251E-01  7.2517120749E-01
                       2.3527500561E-01  2.3315835358E-01  7.6684164642E-01
                       7.6684164642E-01  7.6472499439E-01  2.3527500561E-01
                       2.5130526988E-01  7.4869473012E-01  2.5130526988E-01
                       2.3527500561E-01  7.6472499439E-01  7.6684164642E-01
                       7.6684164642E-01  2.3315835358E-01  2.3527500561E-01
                       8.2586222259E-03 -8.2586222259E-03  8.2586222259E-03
             xred8     2.5524854002E-01  2.4475145998E-01  2.5524854002E-01
                       7.5524854002E-01  7.4475145998E-01  7.5524854002E-01
                       7.2402469726E-01  2.7597530274E-01  7.2402469726E-01
                       2.3717031484E-01  2.3561952721E-01  7.6438047279E-01
                       7.6438047279E-01  7.6282968516E-01  2.3717031484E-01
                       2.5383027722E-01  7.4616972278E-01  2.5383027722E-01
                       2.3717031484E-01  7.6282968516E-01  7.6438047279E-01
                       7.6438047279E-01  2.3561952721E-01  2.3717031484E-01
                       8.5463702244E-03 -8.5463702244E-03  8.5463702244E-03
             xred9     2.5492907086E-01  2.4507092914E-01  2.5492907086E-01
                       7.5492907086E-01  7.4507092914E-01  7.5492907086E-01
                       7.2302524615E-01  2.7697475385E-01  7.2302524615E-01
                       2.3896494142E-01  2.3808866494E-01  7.6191133506E-01
                       7.6191133506E-01  7.6103505858E-01  2.3896494142E-01
                       2.5641879414E-01  7.4358120586E-01  2.5641879414E-01
                       2.3896494142E-01  7.6103505858E-01  7.6191133506E-01
                       7.6191133506E-01  2.3808866494E-01  2.3896494142E-01
                       8.9452650315E-03 -8.9452650315E-03  8.9452650315E-03
             xred10    2.5458596958E-01  2.4541403042E-01  2.5458596958E-01
                       7.5458596958E-01  7.4541403042E-01  7.5458596958E-01
                       7.2249222559E-01  2.7750777441E-01  7.2249222559E-01
                       2.4085529830E-01  2.4074530120E-01  7.5925469880E-01
                       7.5925469880E-01  7.5914470170E-01  2.4085529830E-01
                       2.5869201012E-01  7.4130798988E-01  2.5869201012E-01
                       2.4085529830E-01  7.5914470170E-01  7.5925469880E-01
                       7.5925469880E-01  2.4074530120E-01  2.4085529830E-01
                       9.4238309489E-03 -9.4238309489E-03  9.4238309489E-03
            znucl       55.00000   53.00000   72.00000   17.00000

================================================================================

 chkinp: Checking input parameters for consistency, jdtset=   1.

 chkinp: Checking input parameters for consistency, jdtset=   2.

 chkinp: Checking input parameters for consistency, jdtset=   3.

 chkinp: Checking input parameters for consistency, jdtset=   4.

 chkinp: Checking input parameters for consistency, jdtset=   5.

 chkinp: Checking input parameters for consistency, jdtset=   6.

 chkinp: Checking input parameters for consistency, jdtset=   7.

 chkinp: Checking input parameters for consistency, jdtset=   8.

 chkinp: Checking input parameters for consistency, jdtset=   9.

 chkinp: Checking input parameters for consistency, jdtset=  10.

================================================================================
== DATASET  1 ==================================================================
-   mpi_nproc: 4, omp_nthreads: -1 (-1 if OMP is not activated)


--- !DatasetInfo
iteration_state: {dtset: 1, }
dimensions: {natom: 9, nkpt: 163, mband: 42, nsppol: 1, nspinor: 1, nspden: 1, mpw: 6833, }
cutoff_energies: {ecut:  16.0, pawecutdg:  40.0, }
electrons: {nelect:   7.20000000E+01, charge:   0.00000000E+00, occopt:   1.00000000E+00, tsmear:   1.00000000E-02, }
meta: {optdriver: 0, ionmov: 0, optcell: 0, iscf: 17, paral_kgb: 0, }
...

 Real(R)+Recip(G) space primitive vectors, cartesian coordinates (Bohr,Bohr^-1):
 R(1)=  0.0000000 10.1835578 10.4449360  G(1)= -0.0478701  0.0490988  0.0478701
 R(2)= 10.4449360  0.0000000 10.4449360  G(2)=  0.0478701 -0.0490988  0.0478701
 R(3)= 10.4449360 10.1835578  0.0000000  G(3)=  0.0478701  0.0490988 -0.0478701
 Unit cell volume ucvol=  2.2219848E+03 bohr^3
 Angles (23,13,12)=  5.95826630E+01  6.08346740E+01  5.95826630E+01 degrees

 Coarse grid specifications (used for wave-functions):

 getcut: wavevector=  0.0000  0.0000  0.0000  ngfft=  54  54  54
         ecut(hartree)=     16.000   => boxcut(ratio)=   2.03097

 Fine grid specifications (used for densities):

 getcut: wavevector=  0.0000  0.0000  0.0000  ngfft=  90  90  90
         ecut(hartree)=     40.000   => boxcut(ratio)=   2.14034

--- Pseudopotential description ------------------------------------------------
- pspini: atom type   1  psp file is ../../../Psps_for_tests/ATOMICDATA/Cs.GGA_PBE-JTH.xml
- pspatm: opening atomic psp file    ../../../Psps_for_tests/ATOMICDATA/Cs.GGA_PBE-JTH.xml
- pspatm : Reading pseudopotential header in XML form from ../../../Psps_for_tests/ATOMICDATA/Cs.GGA_PBE-JTH.xml
 Pseudopotential format is: paw10
 basis_size (lnmax)=  6 (lmn_size= 18), orbitals=   0   0   1   1   2   2
 Spheres core radius: rc_sph= 2.20660278
 1 radial meshes are used:
  - mesh 1: r(i)=AA*[exp(BB*(i-1))-1], size=1500 , AA= 0.15922E-03 BB= 0.87573E-02
 Shapefunction is SIN type: shapef(r)=[sin(pi*r/rshp)/(pi*r/rshp)]**2
 Radius for shape functions =  2.00394208
 mmax= 1500
 Radial grid used for partial waves is grid 1
 Radial grid used for projectors is grid 1
 Radial grid used for (t)core density is grid 1
 Radial grid used for Vloc is grid 1
 Radial grid used for pseudo valence density is grid 1
 Mesh size for Vloc has been set to 1341 to avoid numerical noise.
 Compensation charge density is not taken into account in XC energy/potential
 pspatm: atomic psp has been read  and splines computed

- pspini: atom type   2  psp file is ../../../Psps_for_tests/ATOMICDATA/I.GGA_PBE-JTH.xml
- pspatm: opening atomic psp file    ../../../Psps_for_tests/ATOMICDATA/I.GGA_PBE-JTH.xml
- pspatm : Reading pseudopotential header in XML form from ../../../Psps_for_tests/ATOMICDATA/I.GGA_PBE-JTH.xml
 Pseudopotential format is: paw10
 basis_size (lnmax)=  4 (lmn_size=  8), orbitals=   0   0   1   1
 Spheres core radius: rc_sph= 2.30022271
 1 radial meshes are used:
  - mesh 1: r(i)=AA*[exp(BB*(i-1))-1], size=2000 , AA= 0.12610E-03 BB= 0.66836E-02
 Shapefunction is SIN type: shapef(r)=[sin(pi*r/rshp)/(pi*r/rshp)]**2
 Radius for shape functions =  2.10879093
 mmax= 2000
 Radial grid used for partial waves is grid 1
 Radial grid used for projectors is grid 1
 Radial grid used for (t)core density is grid 1
 Radial grid used for Vloc is grid 1
 Radial grid used for pseudo valence density is grid 1
 Mesh size for Vloc has been set to 1792 to avoid numerical noise.
 Compensation charge density is not taken into account in XC energy/potential
 pspatm: atomic psp has been read  and splines computed

- pspini: atom type   3  psp file is ../../../Psps_for_tests/ATOMICDATA/Hf.GGA_PBE-JTH.xml
- pspatm: opening atomic psp file    ../../../Psps_for_tests/ATOMICDATA/Hf.GGA_PBE-JTH.xml
- pspatm : Reading pseudopotential header in XML form from ../../../Psps_for_tests/ATOMICDATA/Hf.GGA_PBE-JTH.xml
 Pseudopotential format is: paw10
 basis_size (lnmax)=  6 (lmn_size= 18), orbitals=   0   0   1   1   2   2
 Spheres core radius: rc_sph= 2.41000000
 1 radial meshes are used:
  - mesh 1: r(i)=AA*[exp(BB*(i-1))-1], size= 972 , AA= 0.19796E-03 BB= 0.14253E-01
 Shapefunction is SIN type: shapef(r)=[sin(pi*r/rshp)/(pi*r/rshp)]**2
 Radius for shape functions =  2.41000000
 mmax=  972
 Radial grid used for partial waves is grid 1
 Radial grid used for projectors is grid 1
 Radial grid used for (t)core density is grid 1
 Radial grid used for Vloc is grid 1
 Radial grid used for pseudo valence density is grid 1
 Mesh size for Vloc has been set to  809 to avoid numerical noise.
 Compensation charge density is not taken into account in XC energy/potential
 pspatm: atomic psp has been read  and splines computed

- pspini: atom type   4  psp file is ../../../Psps_for_tests/ATOMICDATA/Cl.GGA_PBE-JTH.xml
- pspatm: opening atomic psp file    ../../../Psps_for_tests/ATOMICDATA/Cl.GGA_PBE-JTH.xml
- pspatm : Reading pseudopotential header in XML form from ../../../Psps_for_tests/ATOMICDATA/Cl.GGA_PBE-JTH.xml
 Pseudopotential format is: paw10
 basis_size (lnmax)=  4 (lmn_size=  8), orbitals=   0   0   1   1
 Spheres core radius: rc_sph= 1.80315674
 1 radial meshes are used:
  - mesh 1: r(i)=AA*[exp(BB*(i-1))-1], size=1400 , AA= 0.50355E-03 BB= 0.85603E-02
 Shapefunction is SIN type: shapef(r)=[sin(pi*r/rshp)/(pi*r/rshp)]**2
 Radius for shape functions =  1.61320365
 mmax= 1400
 Radial grid used for partial waves is grid 1
 Radial grid used for projectors is grid 1
 Radial grid used for (t)core density is grid 1
 Radial grid used for Vloc is grid 1
 Radial grid used for pseudo valence density is grid 1
 Mesh size for Vloc has been set to 1238 to avoid numerical noise.
 Compensation charge density is not taken into account in XC energy/potential
 pspatm: atomic psp has been read  and splines computed

   2.14177064E+04                                ecore*ucvol(ha*bohr**3)
--------------------------------------------------------------------------------

_setup2: Arith. and geom. avg. npw (full set) are    6792.612    6792.605

================================================================================

--- !BeginCycle
iteration_state: {dtset: 1, }
solver: {iscf: 17, nstep: 2500, nline: 4, wfoptalg: 10, }
tolerances: {toldfe: 1.00E-08, }
...

     iter   Etot(hartree)      deltaE(h)  residm     nres2
 ETOT  1  -176.99778209377    -1.770E+02 7.339E+00 6.950E+00
 ETOT  2  -178.87581762639    -1.878E+00 3.549E-02 4.886E+00
 ETOT  3  -178.85223796826     2.358E-02 1.734E-02 6.615E-01
 ETOT  4  -178.85307437725    -8.364E-04 6.508E-03 1.569E-01
 ETOT  5  -178.85327396185    -1.996E-04 3.775E-03 2.166E-02
 ETOT  6  -178.85334563669    -7.167E-05 5.147E-03 3.105E-03
 ETOT  7  -178.85335987680    -1.424E-05 3.796E-03 7.565E-04
 ETOT  8  -178.85336495920    -5.082E-06 2.046E-03 1.481E-04
 ETOT  9  -178.85336506200    -1.028E-07 1.902E-03 2.685E-05
 ETOT 10  -178.85336514149    -7.950E-08 1.611E-03 7.040E-06
 ETOT 11  -178.85336512611     1.538E-08 8.419E-04 1.363E-06
 ETOT 12  -178.85336513600    -9.891E-09 9.523E-04 9.474E-07
 ETOT 13  -178.85336513308     2.919E-09 6.568E-04 5.976E-08

 At SCF step   13, etot is converged : 
  for the second time, diff in etot=  2.919E-09 < toldfe=  1.000E-08

 Cartesian components of stress tensor (hartree/bohr^3)
  sigma(1 1)= -3.07379894E-06  sigma(3 2)= -6.18683495E-14
  sigma(2 2)= -3.06758237E-06  sigma(3 1)=  1.20639807E-13
  sigma(3 3)= -3.07379894E-06  sigma(2 1)= -6.18676430E-14


--- !ResultsGS
iteration_state: {dtset: 1, }
comment   : Summary of ground state results
lattice_vectors:
- [  0.0000000,  10.1835578,  10.4449360, ]
- [ 10.4449360,   0.0000000,  10.4449360, ]
- [ 10.4449360,  10.1835578,   0.0000000, ]
lattice_lengths: [  14.58772,   14.77137,   14.58772, ]
lattice_angles: [ 59.583,  60.835,  59.583, ] # degrees, (23, 13, 12)
lattice_volume:   2.2219848E+03
convergence: {deltae:  2.919E-09, res2:  5.976E-08, residm:  6.568E-04, diffor: null, }
etotal    :  -1.78853365E+02
entropy   :   0.00000000E+00
fermie    :  -4.32201644E-02
cartesian_stress_tensor: # hartree/bohr^3
- [ -3.07379894E-06,  -6.18676430E-14,   1.20639807E-13, ]
- [ -6.18676430E-14,  -3.06758237E-06,  -6.18683495E-14, ]
- [  1.20639807E-13,  -6.18683495E-14,  -3.07379894E-06, ]
pressure_GPa:   9.0373E-02
xred      :
- [  2.5635E-01,   2.4365E-01,   2.5635E-01, Cs]
- [  7.5635E-01,   7.4365E-01,   7.5635E-01, Cs]
- [  7.3753E-01,   2.6247E-01,   7.3753E-01,  I]
- [  2.2450E-01,   2.2043E-01,   7.7957E-01, Cl]
- [  7.7957E-01,   7.7550E-01,   2.2450E-01, Cl]
- [  2.3425E-01,   7.6575E-01,   2.3425E-01, Cl]
- [  2.2450E-01,   7.7550E-01,   7.7957E-01, Cl]
- [  7.7957E-01,   2.2043E-01,   2.2450E-01, Cl]
- [  7.3778E-03,  -7.3778E-03,   7.3778E-03, Hf]
cartesian_forces: # hartree/bohr
- [  2.93333626E-22,  -7.23176952E-05,  -1.34364726E-21, ]
- [  2.93333626E-22,  -7.23176952E-05,  -1.34364726E-21, ]
- [ -1.35752016E-22,  -4.99133055E-05,  -9.14561618E-22, ]
- [  3.69606746E-16,   5.29857287E-05,   2.65620117E-05, ]
- [ -3.69609071E-16,   5.29857287E-05,  -2.65620117E-05, ]
- [ -6.01887360E-22,   8.26193298E-07,  -4.48426275E-22, ]
- [ -2.65620117E-05,   5.29857287E-05,  -3.69605081E-16, ]
- [  2.65620117E-05,   5.29857287E-05,   3.69612082E-16, ]
- [  6.68718936E-22,  -1.82204121E-05,  -1.71903257E-21, ]
force_length_stats: {min:   8.26193298E-07, max:   7.23176952E-05, mean:   5.00753897E-05, }
...

 Integrated electronic density in atomic spheres:
 ------------------------------------------------
 Atom  Sphere_radius  Integrated_density
    1        2.20660          5.36759227
    2        2.20660          5.36759227
    3        2.30022          4.02793856
    4        1.80316          4.37408052
    5        1.80316          4.37408052
    6        1.80316          4.36511549
    7        1.80316          4.37408052
    8        1.80316          4.37408052
    9        2.41000          9.31589422

 PAW TEST:
 ==== Compensation charge inside spheres ============
 The following values must be close to each other ...
 Compensation charge over spherical meshes =     -1.306683520752483
 Compensation charge over fine fft grid    =     -1.306723660819932

 ==== Results concerning PAW augmentation regions ====

 Total pseudopotential strength Dij (hartree):
 Atom #  1
   0.42492  -0.14080  -0.00000   0.00000   0.00000   0.00000   0.00000   0.00000   0.00000   0.00000  -0.00000   0.00000 ...
  -0.14080   0.04232   0.00000   0.00000   0.00000  -0.00000   0.00000   0.00000   0.00000   0.00000   0.00000  -0.00000 ...
  -0.00000   0.00000  -0.09171   0.00000   0.00000  -0.16766   0.00000   0.00000   0.00000   0.00000   0.00000  -0.00000 ...
   0.00000   0.00000   0.00000  -0.09171   0.00000   0.00000  -0.16766  -0.00000  -0.00000  -0.00000   0.00000   0.00000 ...
   0.00000   0.00000   0.00000   0.00000  -0.09171   0.00000  -0.00000  -0.16766  -0.00000  -0.00000   0.00000   0.00000 ...
   0.00000  -0.00000  -0.16766   0.00000   0.00000   0.39935   0.00000   0.00000   0.00000   0.00000  -0.00000   0.00000 ...
   0.00000   0.00000   0.00000  -0.16766  -0.00000   0.00000   0.39933   0.00002   0.00000   0.00000   0.00000   0.00000 ...
   0.00000   0.00000   0.00000  -0.00000  -0.16766   0.00000   0.00002   0.39933   0.00000   0.00000   0.00000   0.00000 ...
   0.00000   0.00000   0.00000  -0.00000  -0.00000   0.00000   0.00000   0.00000   0.00549   0.00000   0.00000   0.00000 ...
   0.00000   0.00000   0.00000  -0.00000  -0.00000   0.00000   0.00000   0.00000   0.00000   0.00549   0.00000   0.00000 ...
  -0.00000   0.00000   0.00000   0.00000   0.00000  -0.00000   0.00000   0.00000   0.00000   0.00000   0.00549   0.00000 ...
   0.00000  -0.00000  -0.00000   0.00000   0.00000   0.00000   0.00000   0.00000   0.00000   0.00000   0.00000   0.00549 ...
   ...  only 12  components have been written...
 Atom #  9
  -3.49441   0.41969   0.00028   0.00000   0.00000  -0.00005   0.00000   0.00000   0.00000   0.00000   0.00008   0.00000 ...
   0.41969   0.00450  -0.00001   0.00000   0.00000   0.00000   0.00000   0.00000   0.00000   0.00000  -0.00001   0.00000 ...
   0.00028  -0.00001  -1.41709   0.00000   0.00000   0.11556   0.00000   0.00000   0.00000   0.00000  -0.00008   0.00000 ...
   0.00000   0.00000   0.00000  -1.41654   0.00000   0.00000   0.11547   0.00000   0.00000   0.00014   0.00000   0.00000 ...
   0.00000   0.00000   0.00000   0.00000  -1.41654   0.00000   0.00000   0.11547   0.00014   0.00000   0.00000   0.00000 ...
  -0.00005   0.00000   0.11556   0.00000   0.00000   0.01467   0.00000   0.00000   0.00000   0.00000   0.00001   0.00000 ...
   0.00000   0.00000   0.00000   0.11547   0.00000   0.00000   0.01468   0.00000   0.00000  -0.00002   0.00000   0.00000 ...
   0.00000   0.00000   0.00000   0.00000   0.11547   0.00000   0.00000   0.01468  -0.00002   0.00000   0.00000   0.00000 ...
   0.00000   0.00000   0.00000   0.00000   0.00014   0.00000   0.00000  -0.00002  -0.38650   0.00000   0.00000   0.00000 ...
   0.00000   0.00000   0.00000   0.00014   0.00000   0.00000  -0.00002   0.00000   0.00000  -0.38650   0.00000   0.00000 ...
   0.00008  -0.00001  -0.00008   0.00000   0.00000   0.00001   0.00000   0.00000   0.00000   0.00000  -0.38579   0.00000 ...
   0.00000   0.00000   0.00000   0.00000   0.00000   0.00000   0.00000   0.00000   0.00000   0.00000   0.00000  -0.38640 ...
   ...  only 12  components have been written...


 Augmentation waves occupancies Rhoij:
 Atom #  1
   1.99763  -0.01500   0.00002   0.00000   0.00000  -0.00001   0.00000   0.00000   0.00000   0.00000  -0.00135   0.00454 ...
  -0.01500   0.11630  -0.00090   0.00000   0.00000  -0.00001   0.00000   0.00000   0.00000   0.00000   0.00855  -0.03056 ...
   0.00002  -0.00090   2.00819   0.00000   0.00000  -0.00461   0.00000   0.00000   0.00000   0.00000   0.00112   0.00063 ...
   0.00000   0.00000   0.00000   2.01139  -0.00320   0.00000  -0.00509   0.00048   0.00059   0.00011   0.00000   0.00000 ...
   0.00000   0.00000   0.00000  -0.00320   2.01139   0.00000   0.00048  -0.00509   0.00011   0.00059   0.00000   0.00000 ...
  -0.00001  -0.00001  -0.00461   0.00000   0.00000   0.00007   0.00000   0.00000   0.00000   0.00000  -0.00005  -0.00004 ...
   0.00000   0.00000   0.00000  -0.00509   0.00048   0.00000   0.00010  -0.00003  -0.00004  -0.00005   0.00000   0.00000 ...
   0.00000   0.00000   0.00000   0.00048  -0.00509   0.00000  -0.00003   0.00010  -0.00005  -0.00004   0.00000   0.00000 ...
   0.00000   0.00000   0.00000   0.00059   0.00011   0.00000  -0.00004  -0.00005   0.02861  -0.00141   0.00000   0.00000 ...
   0.00000   0.00000   0.00000   0.00011   0.00059   0.00000  -0.00005  -0.00004  -0.00141   0.02861   0.00000   0.00000 ...
  -0.00135   0.00855   0.00112   0.00000   0.00000  -0.00005   0.00000   0.00000   0.00000   0.00000   0.02115  -0.00867 ...
   0.00454  -0.03056   0.00063   0.00000   0.00000  -0.00004   0.00000   0.00000   0.00000   0.00000  -0.00867   0.05229 ...
   ...  only 12  components have been written...
 Atom #  9
   1.99774  -0.02405  -0.00010   0.00000   0.00000  -0.00097   0.00000   0.00000   0.00000   0.00000   0.00021   0.00000 ...
  -0.02405   0.99683  -0.00336   0.00000   0.00000   0.04949   0.00000   0.00000   0.00000   0.00000   0.01839   0.00000 ...
  -0.00010  -0.00336   1.99198   0.00000   0.00000  -0.07070   0.00000   0.00000   0.00000   0.00000   0.00005   0.00000 ...
   0.00000   0.00000   0.00000   1.99162   0.00000   0.00000  -0.07647   0.00000   0.00000   0.00097   0.00000   0.00000 ...
   0.00000   0.00000   0.00000   0.00000   1.99162   0.00000   0.00000  -0.07647   0.00097   0.00000   0.00000   0.00000 ...
  -0.00097   0.04949  -0.07070   0.00000   0.00000   1.28604   0.00000   0.00000   0.00000   0.00000  -0.09837   0.00000 ...
   0.00000   0.00000   0.00000  -0.07647   0.00000   0.00000   1.44860   0.00000   0.00000  -0.03132   0.00000   0.00000 ...
   0.00000   0.00000   0.00000   0.00000  -0.07647   0.00000   0.00000   1.44860  -0.03132   0.00000   0.00000   0.00000 ...
   0.00000   0.00000   0.00000   0.00000   0.00097   0.00000   0.00000  -0.03132   0.51007   0.00000   0.00000   0.00000 ...
   0.00000   0.00000   0.00000   0.00097   0.00000   0.00000  -0.03132   0.00000   0.00000   0.51007   0.00000   0.00000 ...
   0.00021   0.01839   0.00005   0.00000   0.00000  -0.09837   0.00000   0.00000   0.00000   0.00000   1.64177   0.00000 ...
   0.00000   0.00000   0.00000   0.00000   0.00000   0.00000   0.00000   0.00000   0.00000   0.00000   0.00000   0.53385 ...
   ...  only 12  components have been written...


================================================================================

 ----iterations are completed or convergence reached----

 Mean square residual over all n,k,spin=   25.857E-07; max=  65.683E-05
 reduced coordinates (array xred) for    9 atoms
       0.256347349410      0.243652650590      0.256347349410
       0.756347349410      0.743652650590      0.756347349410
       0.737533806000      0.262466194000      0.737533806000
       0.224503942870      0.220429772310      0.779570227690
       0.779570227690      0.775496057130      0.224503942870
       0.234245309420      0.765754690580      0.234245309420
       0.224503942870      0.775496057130      0.779570227690
       0.779570227690      0.220429772310      0.224503942870
       0.007377844636     -0.007377844636      0.007377844636
 rms dE/dt=  5.5235E-04; max dE/dt=  3.6100E-04; dE/dt below (all hartree)
    1       0.000361001396      0.000000000000      0.000361001396
    2       0.000361001396      0.000000000000      0.000361001396
    3       0.000132844998      0.000000000000      0.000132844998
    4      -0.001192471775     -0.000277438512     -0.000915033264
    5      -0.000637594752      0.000277438512     -0.000915033264
    6      -0.000383863620      0.000000000000     -0.000383863620
    7      -0.000915033264      0.000277438512     -0.000637594752
    8      -0.000915033264     -0.000277438512     -0.001192471775
    9      -0.000189901414      0.000000000000     -0.000189901414

 cartesian coordinates (angstrom) at end:
    1      2.76361102995178     2.76286389216016     2.76361102995178
    2      8.29083308985339     8.15177058169504     8.29083308985339
    3      5.52722205993814     7.94900172182303     5.52722205993814
    4      5.52722205994461     5.41086201451996     2.45924744573719
    5      5.52722205985923     5.41086201451996     8.59519667406665
    6      5.52722205986073     2.52465222985121     5.52722205986073
    7      8.59519667406665     5.41086201451996     5.52722205985923
    8      2.45924744573719     5.41086201451996     5.52722205994461
    9      0.00000000000113     0.07951703262550     0.00000000000113

 cartesian forces (hartree/bohr) at end:
    1      0.00000000000000    -0.00007231769521    -0.00000000000000
    2      0.00000000000000    -0.00007231769521    -0.00000000000000
    3     -0.00000000000000    -0.00004991330550    -0.00000000000000
    4      0.00000000000000     0.00005298572868     0.00002656201173
    5     -0.00000000000000     0.00005298572868    -0.00002656201173
    6     -0.00000000000000     0.00000082619330    -0.00000000000000
    7     -0.00002656201173     0.00005298572868    -0.00000000000000
    8      0.00002656201173     0.00005298572868     0.00000000000000
    9      0.00000000000000    -0.00001822041208    -0.00000000000000
 frms,max,avg= 3.1818824E-05 7.2317695E-05   0.000E+00  3.687E-05  0.000E+00 h/b

 cartesian forces (eV/Angstrom) at end:
    1      0.00000000000000    -0.00371872509310    -0.00000000000000
    2      0.00000000000000    -0.00371872509310    -0.00000000000000
    3     -0.00000000000000    -0.00256664514960    -0.00000000000000
    4      0.00000000000002     0.00272463548827     0.00136587344544
    5     -0.00000000000002     0.00272463548831    -0.00136587344544
    6     -0.00000000000000     0.00004248456400    -0.00000000000000
    7     -0.00136587344544     0.00272463548831    -0.00000000000002
    8      0.00136587344544     0.00272463548827     0.00000000000002
    9      0.00000000000000    -0.00093693118135    -0.00000000000000
 frms,max,avg= 1.6361896E-03 3.7187251E-03   0.000E+00  1.896E-03  0.000E+00 e/A
 length scales= 14.587718699000 14.771370105000 14.587718699000 bohr
              =  7.719488260833  7.816672399214  7.719488260833 angstroms
 prteigrs : about to open file Cs2TiI6o_DS1_EIG
 Fermi (or HOMO) energy (hartree) =  -0.04322   Average Vxc (hartree)=  -0.28516
 Eigenvalues (hartree) for nkpt= 163  k points:
 kpt#   1, nband= 42, wtk=  0.00058, kpt=  0.0000  0.0000  0.0000 (reduced coord)
  -2.32477   -1.16992   -1.16992   -1.16969   -0.77781   -0.77749   -0.56325   -0.54897
  -0.54780   -0.54488   -0.54488   -0.43478   -0.29681   -0.29660   -0.29660   -0.29344
  -0.29344   -0.29309   -0.19201   -0.15435   -0.14799   -0.14662   -0.14338   -0.14338
  -0.13649   -0.13649   -0.12634   -0.10232   -0.09860   -0.09860   -0.08882   -0.08882
  -0.08155   -0.06075   -0.04322   -0.04322    0.07313    0.07313    0.07879    0.12694
   0.15384    0.15680
 prteigrs : prtvol=0 or 1, do not print more k-points.


--- !EnergyTerms
iteration_state     : {dtset: 1, }
comment             : Components of total free energy in Hartree
kinetic             :  5.15105450822773E+01
hartree             :  4.63405857331309E+01
xc                  : -5.59973263190957E+01
Ewald energy        : -1.19103001600666E+02
psp_core            :  9.63899751431495E+00
local_psp           : -1.22663509906690E+02
spherical_terms     :  1.14203260502345E+01
total_energy        : -1.78853383446494E+02
total_energy_eV     : -4.86684807162233E+03
...


--- !EnergyTermsDC
iteration_state     : {dtset: 1, }
comment             : '"Double-counting" decomposition of free energy'
band_energy         : -2.88482752269678E+01
Ewald energy        : -1.19103001600666E+02
psp_core            :  9.63899751431495E+00
xc_dc               : -6.10579357633385E+01
spherical_terms     :  2.05168499435766E+01
total_energy_dc     : -1.78853365133081E+02
total_energy_dc_eV  : -4.86684757328901E+03
...


 Cartesian components of stress tensor (hartree/bohr^3)
  sigma(1 1)= -3.07379894E-06  sigma(3 2)= -6.18683495E-14
  sigma(2 2)= -3.06758237E-06  sigma(3 1)=  1.20639807E-13
  sigma(3 3)= -3.07379894E-06  sigma(2 1)= -6.18676430E-14

-Cartesian components of stress tensor (GPa)         [Pressure=  9.0373E-02 GPa]
- sigma(1 1)= -9.04342719E-02  sigma(3 2)= -1.82022938E-09
- sigma(2 2)= -9.02513741E-02  sigma(3 1)=  3.54934505E-09
- sigma(3 3)= -9.04342719E-02  sigma(2 1)= -1.82020859E-09

================================================================================
== DATASET  2 ==================================================================
-   mpi_nproc: 4, omp_nthreads: -1 (-1 if OMP is not activated)


--- !DatasetInfo
iteration_state: {dtset: 2, }
dimensions: {natom: 9, nkpt: 163, mband: 42, nsppol: 1, nspinor: 1, nspden: 1, mpw: 6624, }
cutoff_energies: {ecut:  16.0, pawecutdg:  40.0, }
electrons: {nelect:   7.20000000E+01, charge:   0.00000000E+00, occopt:   1.00000000E+00, tsmear:   1.00000000E-02, }
meta: {optdriver: 0, ionmov: 0, optcell: 0, iscf: 17, paral_kgb: 0, }
...

 Real(R)+Recip(G) space primitive vectors, cartesian coordinates (Bohr,Bohr^-1):
 R(1)=  0.0000000 10.0583750 10.3508963  G(1)= -0.0483050  0.0497098  0.0483050
 R(2)= 10.3508963  0.0000000 10.3508963  G(2)=  0.0483050 -0.0497098  0.0483050
 R(3)= 10.3508963 10.0583750  0.0000000  G(3)=  0.0483050  0.0497098 -0.0483050
 Unit cell volume ucvol=  2.1553298E+03 bohr^3
 Angles (23,13,12)=  5.95281949E+01  6.09436103E+01  5.95281949E+01 degrees

 Coarse grid specifications (used for wave-functions):

 getcut: wavevector=  0.0000  0.0000  0.0000  ngfft=  54  54  54
         ecut(hartree)=     16.000   => boxcut(ratio)=   2.04943

 Fine grid specifications (used for densities):

 getcut: wavevector=  0.0000  0.0000  0.0000  ngfft=  90  90  90
         ecut(hartree)=     40.000   => boxcut(ratio)=   2.15979

--- Pseudopotential description ------------------------------------------------
- pspini: atom type   1  psp file is ../../../Psps_for_tests/ATOMICDATA/Cs.GGA_PBE-JTH.xml
- pspatm: opening atomic psp file    ../../../Psps_for_tests/ATOMICDATA/Cs.GGA_PBE-JTH.xml
- pspatm : Reading pseudopotential header in XML form from ../../../Psps_for_tests/ATOMICDATA/Cs.GGA_PBE-JTH.xml
 Pseudopotential format is: paw10
 basis_size (lnmax)=  6 (lmn_size= 18), orbitals=   0   0   1   1   2   2
 Spheres core radius: rc_sph= 2.20660278
 1 radial meshes are used:
  - mesh 1: r(i)=AA*[exp(BB*(i-1))-1], size=1500 , AA= 0.15922E-03 BB= 0.87573E-02
 Shapefunction is SIN type: shapef(r)=[sin(pi*r/rshp)/(pi*r/rshp)]**2
 Radius for shape functions =  2.00394208
 mmax= 1500
 Radial grid used for partial waves is grid 1
 Radial grid used for projectors is grid 1
 Radial grid used for (t)core density is grid 1
 Radial grid used for Vloc is grid 1
 Radial grid used for pseudo valence density is grid 1
 Mesh size for Vloc has been set to 1341 to avoid numerical noise.
 Compensation charge density is not taken into account in XC energy/potential
 pspatm: atomic psp has been read  and splines computed

- pspini: atom type   2  psp file is ../../../Psps_for_tests/ATOMICDATA/I.GGA_PBE-JTH.xml
- pspatm: opening atomic psp file    ../../../Psps_for_tests/ATOMICDATA/I.GGA_PBE-JTH.xml
- pspatm : Reading pseudopotential header in XML form from ../../../Psps_for_tests/ATOMICDATA/I.GGA_PBE-JTH.xml
 Pseudopotential format is: paw10
 basis_size (lnmax)=  4 (lmn_size=  8), orbitals=   0   0   1   1
 Spheres core radius: rc_sph= 2.30022271
 1 radial meshes are used:
  - mesh 1: r(i)=AA*[exp(BB*(i-1))-1], size=2000 , AA= 0.12610E-03 BB= 0.66836E-02
 Shapefunction is SIN type: shapef(r)=[sin(pi*r/rshp)/(pi*r/rshp)]**2
 Radius for shape functions =  2.10879093
 mmax= 2000
 Radial grid used for partial waves is grid 1
 Radial grid used for projectors is grid 1
 Radial grid used for (t)core density is grid 1
 Radial grid used for Vloc is grid 1
 Radial grid used for pseudo valence density is grid 1
 Mesh size for Vloc has been set to 1792 to avoid numerical noise.
 Compensation charge density is not taken into account in XC energy/potential
 pspatm: atomic psp has been read  and splines computed

- pspini: atom type   3  psp file is ../../../Psps_for_tests/ATOMICDATA/Hf.GGA_PBE-JTH.xml
- pspatm: opening atomic psp file    ../../../Psps_for_tests/ATOMICDATA/Hf.GGA_PBE-JTH.xml
- pspatm : Reading pseudopotential header in XML form from ../../../Psps_for_tests/ATOMICDATA/Hf.GGA_PBE-JTH.xml
 Pseudopotential format is: paw10
 basis_size (lnmax)=  6 (lmn_size= 18), orbitals=   0   0   1   1   2   2
 Spheres core radius: rc_sph= 2.41000000
 1 radial meshes are used:
  - mesh 1: r(i)=AA*[exp(BB*(i-1))-1], size= 972 , AA= 0.19796E-03 BB= 0.14253E-01
 Shapefunction is SIN type: shapef(r)=[sin(pi*r/rshp)/(pi*r/rshp)]**2
 Radius for shape functions =  2.41000000
 mmax=  972
 Radial grid used for partial waves is grid 1
 Radial grid used for projectors is grid 1
 Radial grid used for (t)core density is grid 1
 Radial grid used for Vloc is grid 1
 Radial grid used for pseudo valence density is grid 1
 Mesh size for Vloc has been set to  809 to avoid numerical noise.
 Compensation charge density is not taken into account in XC energy/potential
 pspatm: atomic psp has been read  and splines computed

- pspini: atom type   4  psp file is ../../../Psps_for_tests/ATOMICDATA/Cl.GGA_PBE-JTH.xml
- pspatm: opening atomic psp file    ../../../Psps_for_tests/ATOMICDATA/Cl.GGA_PBE-JTH.xml
- pspatm : Reading pseudopotential header in XML form from ../../../Psps_for_tests/ATOMICDATA/Cl.GGA_PBE-JTH.xml
 Pseudopotential format is: paw10
 basis_size (lnmax)=  4 (lmn_size=  8), orbitals=   0   0   1   1
 Spheres core radius: rc_sph= 1.80315674
 1 radial meshes are used:
  - mesh 1: r(i)=AA*[exp(BB*(i-1))-1], size=1400 , AA= 0.50355E-03 BB= 0.85603E-02
 Shapefunction is SIN type: shapef(r)=[sin(pi*r/rshp)/(pi*r/rshp)]**2
 Radius for shape functions =  1.61320365
 mmax= 1400
 Radial grid used for partial waves is grid 1
 Radial grid used for projectors is grid 1
 Radial grid used for (t)core density is grid 1
 Radial grid used for Vloc is grid 1
 Radial grid used for pseudo valence density is grid 1
 Mesh size for Vloc has been set to 1238 to avoid numerical noise.
 Compensation charge density is not taken into account in XC energy/potential
 pspatm: atomic psp has been read  and splines computed

--------------------------------------------------------------------------------

_setup2: Arith. and geom. avg. npw (full set) are    6588.496    6588.485

================================================================================

--- !BeginCycle
iteration_state: {dtset: 2, }
solver: {iscf: 17, nstep: 2500, nline: 4, wfoptalg: 10, }
tolerances: {toldfe: 1.00E-08, }
...

     iter   Etot(hartree)      deltaE(h)  residm     nres2
 ETOT  1  -176.97292644093    -1.770E+02 7.277E+00 7.183E+00
 ETOT  2  -178.87406298582    -1.901E+00 4.008E-02 4.925E+00
 ETOT  3  -178.85108521757     2.298E-02 2.181E-02 6.648E-01
 ETOT  4  -178.85217284450    -1.088E-03 8.616E-03 1.597E-01
 ETOT  5  -178.85239631601    -2.235E-04 4.223E-03 2.012E-02
 ETOT  6  -178.85246577184    -6.946E-05 3.456E-03 2.622E-03
 ETOT  7  -178.85248214718    -1.638E-05 2.751E-03 5.850E-04
 ETOT  8  -178.85248657943    -4.432E-06 1.739E-03 1.078E-04
 ETOT  9  -178.85248671364    -1.342E-07 1.693E-03 2.058E-05
 ETOT 10  -178.85248678653    -7.288E-08 1.788E-03 5.632E-06
 ETOT 11  -178.85248677628     1.024E-08 1.178E-03 1.411E-06
 ETOT 12  -178.85248678312    -6.840E-09 1.053E-03 6.753E-07
 ETOT 13  -178.85248678133     1.798E-09 7.543E-04 7.048E-08

 At SCF step   13, etot is converged : 
  for the second time, diff in etot=  1.798E-09 < toldfe=  1.000E-08

 Cartesian components of stress tensor (hartree/bohr^3)
  sigma(1 1)= -1.30310029E-05  sigma(3 2)=  3.16725504E-14
  sigma(2 2)= -1.30676318E-05  sigma(3 1)= -6.15551415E-14
  sigma(3 3)= -1.30310029E-05  sigma(2 1)=  3.16723866E-14


--- !ResultsGS
iteration_state: {dtset: 2, }
comment   : Summary of ground state results
lattice_vectors:
- [  0.0000000,  10.0583750,  10.3508963, ]
- [ 10.3508963,   0.0000000,  10.3508963, ]
- [ 10.3508963,  10.0583750,   0.0000000, ]
lattice_lengths: [  14.43302,   14.63838,   14.43302, ]
lattice_angles: [ 59.528,  60.944,  59.528, ] # degrees, (23, 13, 12)
lattice_volume:   2.1553298E+03
convergence: {deltae:  1.798E-09, res2:  7.048E-08, residm:  7.543E-04, diffor: null, }
etotal    :  -1.78852487E+02
entropy   :   0.00000000E+00
fermie    :  -3.69946428E-02
cartesian_stress_tensor: # hartree/bohr^3
- [ -1.30310029E-05,   3.16723866E-14,  -6.15551415E-14, ]
- [  3.16723866E-14,  -1.30676318E-05,   3.16725504E-14, ]
- [ -6.15551415E-14,   3.16725504E-14,  -1.30310029E-05, ]
pressure_GPa:   3.8374E-01
xred      :
- [  2.5672E-01,   2.4328E-01,   2.5672E-01, Cs]
- [  7.5672E-01,   7.4328E-01,   7.5672E-01, Cs]
- [  7.3500E-01,   2.6500E-01,   7.3500E-01,  I]
- [  2.2621E-01,   2.2253E-01,   7.7747E-01, Cl]
- [  7.7747E-01,   7.7379E-01,   2.2621E-01, Cl]
- [  2.3691E-01,   7.6309E-01,   2.3691E-01, Cl]
- [  2.2621E-01,   7.7379E-01,   7.7747E-01, Cl]
- [  7.7747E-01,   2.2253E-01,   2.2621E-01, Cl]
- [  7.2978E-03,  -7.2978E-03,   7.2978E-03, Hf]
cartesian_forces: # hartree/bohr
- [  3.38417457E-21,  -5.46610026E-05,  -3.27373624E-21, ]
- [ -3.95721732E-24,  -5.46610026E-05,   1.14395551E-22, ]
- [ -1.61183402E-21,  -2.16952807E-05,   1.72227236E-21, ]
- [ -1.04447275E-16,   1.67417425E-05,   1.56022879E-05, ]
- [  1.04448376E-16,   1.67417425E-05,  -1.56022879E-05, ]
- [ -5.95639896E-22,   5.88644953E-05,   7.06078230E-22, ]
- [ -1.56022879E-05,   1.67417425E-05,   1.04452323E-16, ]
- [  1.56022879E-05,   1.67417425E-05,  -1.04451365E-16, ]
- [ -5.72255832E-22,   5.18582075E-06,   6.82694165E-22, ]
force_length_stats: {min:   5.18582075E-06, max:   5.88644953E-05, mean:   3.18452319E-05, }
...

 Integrated electronic density in atomic spheres:
 ------------------------------------------------
 Atom  Sphere_radius  Integrated_density
    1        2.20660          5.35750669
    2        2.20660          5.35750669
    3        2.30022          4.03233501
    4        1.80316          4.37347630
    5        1.80316          4.37347630
    6        1.80316          4.37303008
    7        1.80316          4.37347630
    8        1.80316          4.37347630
    9        2.41000          9.32038948

 PAW TEST:
 ==== Compensation charge inside spheres ============
 The following values must be close to each other ...
 Compensation charge over spherical meshes =     -1.307650132566645
 Compensation charge over fine fft grid    =     -1.307660459712525

 ==== Results concerning PAW augmentation regions ====

 Total pseudopotential strength Dij (hartree):
 Atom #  1
   0.42306  -0.14019  -0.00000   0.00000   0.00000   0.00001   0.00000   0.00000   0.00000   0.00000  -0.00000   0.00000 ...
[...]
                       7.7724556236E+00  4.9132199846E+00  5.1035648110E+00
                       2.4346739984E+00  4.9132199846E+00  5.1035648110E+00
                       4.2419002149E-13  8.7823152478E-02  4.2419002149E-13
           xangst10    2.5214187291E+00  2.4765719823E+00  2.5214187291E+00
                       7.5642561872E+00  7.3404927758E+00  7.5642561872E+00
                       5.0428374582E+00  7.0282899183E+00  5.0428374582E+00
                       5.0428374582E+00  4.8644558106E+00  2.4286335430E+00
                       5.0428374581E+00  4.8644558106E+00  7.6570413732E+00
                       5.0428374581E+00  2.5165148942E+00  5.0428374581E+00
                       7.6570413732E+00  4.8644558106E+00  5.0428374581E+00
                       2.4286335430E+00  4.8644558106E+00  5.0428374582E+00
                       1.0219850529E-12  9.1673534613E-02  1.0219850529E-12
            xcart1     5.2224679844E+00  5.2210560986E+00  5.2224679844E+00
                       1.5667403953E+01  1.5404613898E+01  1.5667403953E+01
                       1.0444935969E+01  1.5021436284E+01  1.0444935969E+01
                       1.0444935969E+01  1.0225047350E+01  4.6473041654E+00
                       1.0444935969E+01  1.0225047350E+01  1.6242567772E+01
                       1.0444935969E+01  4.7709012952E+00  1.0444935969E+01
                       1.6242567772E+01  1.0225047350E+01  1.0444935969E+01
                       4.6473041654E+00  1.0225047350E+01  1.0444935969E+01
                       2.1445758690E-12  1.5026541456E-01  2.1445758690E-12
            xcart2     5.1754481711E+00  5.1643874400E+00  5.1754481711E+00
                       1.5526344513E+01  1.5222762391E+01  1.5526344513E+01
                       1.0350896342E+01  1.4785807272E+01  1.0350896342E+01
                       1.0350896342E+01  1.0095365023E+01  4.6448644837E+00
                       1.0350896342E+01  1.0095365023E+01  1.6056928201E+01
                       1.0350896342E+01  4.7657738665E+00  1.0350896342E+01
                       1.6056928201E+01  1.0095365023E+01  1.0350896342E+01
                       4.6448644837E+00  1.0095365023E+01  1.0350896342E+01
                      -1.0113961464E-12  1.4680854375E-01 -1.0113961464E-12
            xcart3     5.1293573210E+00  5.0861207388E+00  5.1293573210E+00
                       1.5388071963E+01  1.5015790759E+01  1.5388071963E+01
                       1.0258714642E+01  1.4550800598E+01  1.0258714642E+01
                       1.0258714642E+01  9.9672122778E+00  4.6416340733E+00
                       1.0258714642E+01  9.9672122778E+00  1.5875795211E+01
                       1.0258714642E+01  4.7663771972E+00  1.0258714642E+01
                       1.5875795211E+01  9.9672122778E+00  1.0258714642E+01
                       4.6416340733E+00  9.9672122778E+00  1.0258714642E+01
                       2.9393730977E-13  1.4942176031E-01  2.9393730977E-13
            xcart4     5.0814683198E+00  5.0230034478E+00  5.0814683198E+00
                       1.5244404959E+01  1.4831010646E+01  1.5244404959E+01
                       1.0162936640E+01  1.4328821107E+01  1.0162936640E+01
                       1.0162936640E+01  9.8420508555E+00  4.6377078363E+00
                       1.0162936640E+01  9.8420508555E+00  1.5688165443E+01
                       1.0162936640E+01  4.7637022853E+00  1.0162936640E+01
                       1.5688165443E+01  9.8420508555E+00  1.0162936640E+01
                       4.6377078363E+00  9.8420508555E+00  1.0162936640E+01
                       2.5884604641E-12  1.4931667497E-01  2.5884604641E-12
            xcart5     5.0346089908E+00  4.9565685260E+00  5.0346089908E+00
                       1.5103826972E+01  1.4639009168E+01  1.5103826972E+01
                       1.0069217982E+01  1.4102143145E+01  1.0069217982E+01
                       1.0069217982E+01  9.7121073706E+00  4.6322825826E+00
                       1.0069217982E+01  9.7121073706E+00  1.5506153381E+01
                       1.0069217982E+01  4.7627366754E+00  1.0069217982E+01
                       1.5506153381E+01  9.7121073706E+00  1.0069217982E+01
                       4.6322825826E+00  9.7121073706E+00  1.0069217982E+01
                       1.1126050996E-13  1.5063813892E-01  1.1126050996E-13
            xcart6     4.9836673552E+00  4.8954450333E+00  4.9836673552E+00
                       1.4951002066E+01  1.4468068768E+01  1.4951002066E+01
                       9.9673347104E+00  1.3909404959E+01  9.9673347104E+00
                       9.9673347104E+00  9.5987014438E+00  4.6264305568E+00
                       9.9673347104E+00  9.5987014438E+00  1.5308238864E+01
                       9.9673347104E+00  4.7608866475E+00  9.9673347104E+00
                       1.5308238864E+01  9.5987014438E+00  9.9673347104E+00
                       4.6264305568E+00  9.5987014438E+00  9.9673347104E+00
                       5.5345816415E-13  1.5237869790E-01  5.5345816415E-13
            xcart7     4.9305950685E+00  4.8399786499E+00  4.9305950685E+00
                       1.4791785206E+01  1.4310975521E+01  1.4791785206E+01
                       9.8611901370E+00  1.3736188474E+01  9.8611901370E+00
                       9.8611901369E+00  9.4910436754E+00  4.6193104215E+00
                       9.8611901371E+00  9.4910436754E+00  1.5103069853E+01
                       9.8611901371E+00  4.7602228492E+00  9.8611901371E+00
                       1.5103069853E+01  9.4910436754E+00  9.8611901371E+00
                       4.6193104215E+00  9.4910436754E+00  9.8611901369E+00
                      -1.9540477267E-12  1.5643477051E-01 -1.9540477267E-12
            xcart8     4.8764491974E+00  4.7851423033E+00  4.8764491974E+00
                       1.4629347592E+01  1.4158638236E+01  1.4629347592E+01
                       9.7528983950E+00  1.3573285109E+01  9.7528983950E+00
                       9.7528983950E+00  9.3880322340E+00  4.6110712916E+00
                       9.7528983947E+00  9.3880322340E+00  1.4894725498E+01
                       9.7528983947E+00  4.7585541421E+00  9.7528983947E+00
                       1.4894725498E+01  9.3880322340E+00  9.7528983947E+00
                       4.6110712916E+00  9.3880322340E+00  9.7528983950E+00
                       4.9769786984E-12  1.6021873307E-01  4.9769786984E-12
            xcart9     4.8221698971E+00  4.7297048705E+00  4.8221698971E+00
                       1.4466509691E+01  1.4006216283E+01  1.4466509691E+01
                       9.6443397942E+00  1.3414303895E+01  9.6443397942E+00
                       9.6443397943E+00  9.2846402015E+00  4.6008670798E+00
                       9.6443397942E+00  9.2846402015E+00  1.4687812509E+01
                       9.6443397942E+00  4.7573437406E+00  9.6443397942E+00
                       1.4687812509E+01  9.2846402015E+00  9.6443397942E+00
                       4.6008670798E+00  9.2846402015E+00  9.6443397943E+00
                       8.0160296892E-13  1.6596170631E-01  8.0160296892E-13
            xcart10    4.7647908643E+00  4.6800427950E+00  4.7647908643E+00
                       1.4294372593E+01  1.3871521027E+01  1.4294372593E+01
                       9.5295817286E+00  1.3281543128E+01  9.5295817286E+00
                       9.5295817286E+00  9.1924892676E+00  4.5894522734E+00
                       9.5295817285E+00  9.1924892676E+00  1.4469711184E+01
                       9.5295817285E+00  4.7555239594E+00  9.5295817285E+00
                       1.4469711184E+01  9.1924892676E+00  9.5295817285E+00
                       4.5894522734E+00  9.1924892676E+00  9.5295817286E+00
                       1.9312718619E-12  1.7323787405E-01  1.9312718619E-12
             xred1     2.5634734941E-01  2.4365265059E-01  2.5634734941E-01
                       7.5634734941E-01  7.4365265059E-01  7.5634734941E-01
                       7.3753380600E-01  2.6246619400E-01  7.3753380600E-01
                       2.2450394287E-01  2.2042977231E-01  7.7957022769E-01
                       7.7957022769E-01  7.7549605713E-01  2.2450394287E-01
                       2.3424530942E-01  7.6575469058E-01  2.3424530942E-01
                       2.2450394287E-01  7.7549605713E-01  7.7957022769E-01
                       7.7957022769E-01  2.2042977231E-01  2.2450394287E-01
                       7.3778446359E-03 -7.3778446359E-03  7.3778446359E-03
             xred2     2.5672076579E-01  2.4327923421E-01  2.5672076579E-01
                       7.5672076579E-01  7.4327923421E-01  7.5672076579E-01
                       7.3499980586E-01  2.6500019414E-01  7.3499980586E-01
                       2.2620892725E-01  2.2253138761E-01  7.7746861239E-01
                       7.7746861239E-01  7.7379107275E-01  2.2620892725E-01
                       2.3690575713E-01  7.6309424287E-01  2.3690575713E-01
                       2.2620892725E-01  7.7379107275E-01  7.7746861239E-01
                       7.7746861239E-01  2.2253138761E-01  2.2620892725E-01
                       7.2978261633E-03 -7.2978261633E-03  7.2978261633E-03
             xred3     2.5610723862E-01  2.4389276138E-01  2.5610723862E-01
                       7.5610723862E-01  7.4389276138E-01  7.5610723862E-01
                       7.3269305868E-01  2.6730694132E-01  7.3269305868E-01
                       2.2811924062E-01  2.2433842443E-01  7.7566157557E-01
                       7.7566157557E-01  7.7188075938E-01  2.2811924062E-01
                       2.4000682738E-01  7.5999317262E-01  2.4000682738E-01
                       2.2811924062E-01  7.7188075938E-01  7.7566157557E-01
                       7.7566157557E-01  2.2433842443E-01  2.2811924062E-01
                       7.5240043223E-03 -7.5240043223E-03  7.5240043223E-03
             xred4     2.5606646419E-01  2.4393353581E-01  2.5606646419E-01
                       7.5606646419E-01  7.4393353581E-01  7.5606646419E-01
                       7.3046546651E-01  2.6953453349E-01  7.3046546651E-01
                       2.2990320722E-01  2.2643220062E-01  7.7356779938E-01
                       7.7356779938E-01  7.7009679278E-01  2.2990320722E-01
                       2.4284761365E-01  7.5715238635E-01  2.4284761365E-01
                       2.2990320722E-01  7.7009679278E-01  7.7356779938E-01
                       7.7356779938E-01  2.2643220062E-01  2.2990320722E-01
                       7.6119782519E-03 -7.6119782519E-03  7.6119782519E-03
             xred5     2.5595656660E-01  2.4404343340E-01  2.5595656660E-01
                       7.5595656660E-01  7.4404343340E-01  7.5595656660E-01
                       7.2823287361E-01  2.7176712639E-01  7.2823287361E-01
                       2.3155394961E-01  2.2848997744E-01  7.7151002256E-01
                       7.7151002256E-01  7.6844605039E-01  2.3155394961E-01
                       2.4594711455E-01  7.5405288545E-01  2.4594711455E-01
                       2.3155394961E-01  7.6844605039E-01  7.7151002256E-01
                       7.7151002256E-01  2.2848997744E-01  2.3155394961E-01
                       7.7789342836E-03 -7.7789342836E-03  7.7789342836E-03
             xred6     2.5570027449E-01  2.4429972551E-01  2.5570027449E-01
                       7.5570027449E-01  7.4429972551E-01  7.5570027449E-01
                       7.2651998781E-01  2.7348001219E-01  7.2651998781E-01
                       2.3344172093E-01  2.3071752437E-01  7.6928247563E-01
                       7.6928247563E-01  7.6655827907E-01  2.3344172093E-01
                       2.4867198269E-01  7.5132801731E-01  2.4867198269E-01
                       2.3344172093E-01  7.6655827907E-01  7.6928247563E-01
                       7.6928247563E-01  2.3071752437E-01  2.3344172093E-01
                       7.9590873996E-03 -7.9590873996E-03  7.9590873996E-03
             xred7     2.5551579818E-01  2.4448420182E-01  2.5551579818E-01
                       7.5551579818E-01  7.4448420182E-01  7.5551579818E-01
                       7.2517120749E-01  2.7482879251E-01  7.2517120749E-01
                       2.3527500561E-01  2.3315835358E-01  7.6684164642E-01
                       7.6684164642E-01  7.6472499439E-01  2.3527500561E-01
                       2.5130526988E-01  7.4869473012E-01  2.5130526988E-01
                       2.3527500561E-01  7.6472499439E-01  7.6684164642E-01
                       7.6684164642E-01  2.3315835358E-01  2.3527500561E-01
                       8.2586222259E-03 -8.2586222259E-03  8.2586222259E-03
             xred8     2.5524854002E-01  2.4475145998E-01  2.5524854002E-01
                       7.5524854002E-01  7.4475145998E-01  7.5524854002E-01
                       7.2402469726E-01  2.7597530274E-01  7.2402469726E-01
                       2.3717031484E-01  2.3561952721E-01  7.6438047279E-01
                       7.6438047279E-01  7.6282968516E-01  2.3717031484E-01
                       2.5383027722E-01  7.4616972278E-01  2.5383027722E-01
                       2.3717031484E-01  7.6282968516E-01  7.6438047279E-01
                       7.6438047279E-01  2.3561952721E-01  2.3717031484E-01
                       8.5463702244E-03 -8.5463702244E-03  8.5463702244E-03
             xred9     2.5492907086E-01  2.4507092914E-01  2.5492907086E-01
                       7.5492907086E-01  7.4507092914E-01  7.5492907086E-01
                       7.2302524615E-01  2.7697475385E-01  7.2302524615E-01
                       2.3896494142E-01  2.3808866494E-01  7.6191133506E-01
                       7.6191133506E-01  7.6103505858E-01  2.3896494142E-01
                       2.5641879414E-01  7.4358120586E-01  2.5641879414E-01
                       2.3896494142E-01  7.6103505858E-01  7.6191133506E-01
                       7.6191133506E-01  2.3808866494E-01  2.3896494142E-01
                       8.9452650315E-03 -8.9452650315E-03  8.9452650315E-03
             xred10    2.5458596958E-01  2.4541403042E-01  2.5458596958E-01
                       7.5458596958E-01  7.4541403042E-01  7.5458596958E-01
                       7.2249222559E-01  2.7750777441E-01  7.2249222559E-01
                       2.4085529830E-01  2.4074530120E-01  7.5925469880E-01
                       7.5925469880E-01  7.5914470170E-01  2.4085529830E-01
                       2.5869201012E-01  7.4130798988E-01  2.5869201012E-01
                       2.4085529830E-01  7.5914470170E-01  7.5925469880E-01
                       7.5925469880E-01  2.4074530120E-01  2.4085529830E-01
                       9.4238309489E-03 -9.4238309489E-03  9.4238309489E-03
            znucl       55.00000   53.00000   72.00000   17.00000

================================================================================


- Timing analysis has been suppressed with timopt=0



================================================================================

 Suggested references for the acknowledgment of ABINIT usage.

 The users of ABINIT have little formal obligations with respect to the ABINIT group
 (those specified in the GNU General Public License, http://www.gnu.org/copyleft/gpl.txt).
 However, it is common practice in the scientific literature,
 to acknowledge the efforts of people that have made the research possible.
 In this spirit, please find below suggested citations of work written by ABINIT developers,
 corresponding to implementations inside of ABINIT that you have used in the present run.
 Note also that it will be of great value to readers of publications presenting these results,
 to read papers enabling them to understand the theoretical formalism and details
 of the ABINIT implementation.
 For information on why they are suggested, see also https://docs.abinit.org/theory/acknowledgments.
-
- [1] Implementation of the Projector Augmented-Wave Method in the ABINIT code.
- M. Torrent, F. Jollet, F. Bottin, G. Zerah, and X. Gonze Comput. Mat. Science 42, 337, (2008).
- Comment: PAW calculations. Strong suggestion to cite this paper.
- DOI and bibtex: see https://docs.abinit.org/theory/bibliography/#torrent2008
-
- [2] Libxc: A library of exchange and correlation functionals for density functional theory.
- M.A.L. Marques, M.J.T. Oliveira, T. Burnus, Computer Physics Communications 183, 2227 (2012).
- Comment: to be cited when LibXC is used (negative value of ixc)
- Strong suggestion to cite this paper.
- DOI and bibtex: see https://docs.abinit.org/theory/bibliography/#marques2012
-
- [3] The Abinit project: Impact, environment and recent developments.
- Computer Phys. Comm. 248, 107042 (2020).
- X.Gonze, B. Amadon, G. Antonius, F.Arnardi, L.Baguet, J.-M.Beuken,
- J.Bieder, F.Bottin, J.Bouchet, E.Bousquet, N.Brouwer, F.Bruneval,
- G.Brunin, T.Cavignac, J.-B. Charraud, Wei Chen, M.Cote, S.Cottenier,
- J.Denier, G.Geneste, Ph.Ghosez, M.Giantomassi, Y.Gillet, O.Gingras,
- D.R.Hamann, G.Hautier, Xu He, N.Helbig, N.Holzwarth, Y.Jia, F.Jollet,
- W.Lafargue-Dit-Hauret, K.Lejaeghere, M.A.L.Marques, A.Martin, C.Martins,
- H.P.C. Miranda, F.Naccarato, K. Persson, G.Petretto, V.Planes, Y.Pouillon,
- S.Prokhorenko, F.Ricci, G.-M.Rignanese, A.H.Romero, M.M.Schmitt, M.Torrent,
- M.J.van Setten, B.Van Troeye, M.J.Verstraete, G.Zerah and J.W.Zwanzig
- Comment: the fifth generic paper describing the ABINIT project.
- Note that a version of this paper, that is not formatted for Computer Phys. Comm. 
- is available at https://www.abinit.org/sites/default/files/ABINIT20.pdf .
- The licence allows the authors to put it on the Web.
- DOI and bibtex: see https://docs.abinit.org/theory/bibliography/#gonze2020
-
- [4] ABINIT: Overview, and focus on selected capabilities
- J. Chem. Phys. 152, 124102 (2020).
- A. Romero, D.C. Allan, B. Amadon, G. Antonius, T. Applencourt, L.Baguet,
- J.Bieder, F.Bottin, J.Bouchet, E.Bousquet, F.Bruneval,
- G.Brunin, D.Caliste, M.Cote,
- J.Denier, C. Dreyer, Ph.Ghosez, M.Giantomassi, Y.Gillet, O.Gingras,
- D.R.Hamann, G.Hautier, F.Jollet, G. Jomard,
- A.Martin, 
- H.P.C. Miranda, F.Naccarato, G.Petretto, N.A. Pike, V.Planes,
- S.Prokhorenko, T. Rangel, F.Ricci, G.-M.Rignanese, M.Royo, M.Stengel, M.Torrent,
- M.J.van Setten, B.Van Troeye, M.J.Verstraete, J.Wiktor, J.W.Zwanziger, and X.Gonze.
- Comment: a global overview of ABINIT, with focus on selected capabilities .
- Note that a version of this paper, that is not formatted for J. Chem. Phys 
- is available at https://www.abinit.org/sites/default/files/ABINIT20_JPC.pdf .
- The licence allows the authors to put it on the Web.
- DOI and bibtex: see https://docs.abinit.org/theory/bibliography/#romero2020
-
- [5] Recent developments in the ABINIT software package.
- Computer Phys. Comm. 205, 106 (2016).
- X.Gonze, F.Jollet, F.Abreu Araujo, D.Adams, B.Amadon, T.Applencourt,
- C.Audouze, J.-M.Beuken, J.Bieder, A.Bokhanchuk, E.Bousquet, F.Bruneval
- D.Caliste, M.Cote, F.Dahm, F.Da Pieve, M.Delaveau, M.Di Gennaro,
- B.Dorado, C.Espejo, G.Geneste, L.Genovese, A.Gerossier, M.Giantomassi,
- Y.Gillet, D.R.Hamann, L.He, G.Jomard, J.Laflamme Janssen, S.Le Roux,
- A.Levitt, A.Lherbier, F.Liu, I.Lukacevic, A.Martin, C.Martins,
- M.J.T.Oliveira, S.Ponce, Y.Pouillon, T.Rangel, G.-M.Rignanese,
- A.H.Romero, B.Rousseau, O.Rubel, A.A.Shukri, M.Stankovski, M.Torrent,
- M.J.Van Setten, B.Van Troeye, M.J.Verstraete, D.Waroquier, J.Wiktor,
- B.Xu, A.Zhou, J.W.Zwanziger.
- Comment: the fourth generic paper describing the ABINIT project.
- Note that a version of this paper, that is not formatted for Computer Phys. Comm. 
- is available at https://www.abinit.org/sites/default/files/ABINIT16.pdf .
- The licence allows the authors to put it on the Web.
- DOI and bibtex: see https://docs.abinit.org/theory/bibliography/#gonze2016
-
- Proc.   0 individual time (sec): cpu=       9070.4  wall=      18222.3

================================================================================

 Calculation completed.
.Delivered   0 WARNINGs and   4 COMMENTs to log file.
+Overall time at end (sec) : cpu=      36275.7  wall=      72889.1
