
.Version 9.2.2 of ABINIT 
.(MPI version, prepared for a x86_64_linux_gnu9.3 computer) 

.Copyright (C) 1998-2020 ABINIT group . 
 ABINIT comes with ABSOLUTELY NO WARRANTY.
 It is free software, and you are welcome to redistribute it
 under certain conditions (GNU General Public License,
 see ~abinit/COPYING or http://www.gnu.org/copyleft/gpl.txt).

 ABINIT is a project of the Universite Catholique de Louvain,
 Corning Inc. and other collaborators, see ~abinit/doc/developers/contributors.txt .
 Please read https://docs.abinit.org/theory/acknowledgments for suggested
 acknowledgments of the ABINIT effort.
 For more information, see https://www.abinit.org .

.Starting date : Fri  9 Sep 2022.
- ( at 20h01 )
  
- input  file    -> Cs2TiI6.in
- output file    -> Cs2TiI6.out
- root for input  files -> Cs2TiI6i
- root for output files -> Cs2TiI6o

- inpspheads : Reading pseudopotential header in XML form from 
-   ../../../Psps_for_tests/ATOMICDATA/Cs.GGA_PBE-JTH.xml
- inpspheads : Reading pseudopotential header in XML form from 
-   ../../../Psps_for_tests/ATOMICDATA/I.GGA_PBE-JTH.xml
- inpspheads : Reading pseudopotential header in XML form from 
-   ../../../Psps_for_tests/ATOMICDATA/Zr.GGA_PBE-JTH.xml

 DATASET    1 : space group Fm -3 m (#225); Bravais cF (face-center cubic)
================================================================================
 Values of the parameters that define the memory need for DATASET  1.
     intxc =       0    ionmov =       0      iscf =       7    lmnmax =      18
     lnmax =       6     mgfft =      54  mpssoang =       3    mqgrid =    3360
     natom =       9  nloc_mem =       2    nspden =       1   nspinor =       1
    nsppol =       1      nsym =      48    n1xccc =       1    ntypat =       3
    occopt =       1   xclevel =       2
-    mband =          42        mffmem =           1         mkmem =           2
       mpw =        6540          nfft =      157464          nkpt =          10
Pmy_natom=         2
 PAW method is used; the additional fine FFT grid is defined by:
   mgfftf=        90    nfftf =    729000
================================================================================
P This job should need less than                     194.632 Mbytes of memory.
  Rough estimation (10% accuracy) of disk space for files :
_ WF disk file :     41.915 Mbytes ; DEN or POT disk file :      5.564 Mbytes.
================================================================================


 DATASET    2 : space group Fm -3 m (#225); Bravais cF (face-center cubic)
================================================================================
 Values of the parameters that define the memory need for DATASET  2 (RF).
     intxc =       0      iscf =      -3    lmnmax =      18     lnmax =       6
     mgfft =      54  mpssoang =       3    mqgrid =    3001     natom =       9
  nloc_mem =       2    nspden =       1   nspinor =       1    nsppol =       1
      nsym =      48    n1xccc =       1    ntypat =       3    occopt =       1
   xclevel =       2
-    mband =          42        mffmem =           1         mkmem =          22
-   mkqmem =          22        mk1mem =          22           mpw =        6540
      nfft =      157464          nkpt =         128
Pmy_natom=         2
================================================================================
P This job should need less than                     384.500 Mbytes of memory.
  Rough estimation (10% accuracy) of disk space for files :
_ WF disk file :    536.486 Mbytes ; DEN or POT disk file :      1.203 Mbytes.
================================================================================


 DATASET    3 : space group Fm -3 m (#225); Bravais cF (face-center cubic)
================================================================================
 Values of the parameters that define the memory need for DATASET  3 (RF).
     intxc =       0      iscf =       7    lmnmax =      18     lnmax =       6
     mgfft =      54  mpssoang =       3    mqgrid =    3001     natom =       9
  nloc_mem =       2    nspden =       1   nspinor =       1    nsppol =       1
      nsym =      48    n1xccc =       1    ntypat =       3    occopt =       1
   xclevel =       2
-    mband =          42        mffmem =           1         mkmem =          22
-   mkqmem =          22        mk1mem =          22           mpw =        6540
      nfft =      157464          nkpt =         128
Pmy_natom=         2
================================================================================
P This job should need less than                     512.039 Mbytes of memory.
  Rough estimation (10% accuracy) of disk space for files :
_ WF disk file :    536.486 Mbytes ; DEN or POT disk file :      1.203 Mbytes.
================================================================================


 DATASET    4 : space group Fm -3 m (#225); Bravais cF (face-center cubic)
================================================================================
 Values of the parameters that define the memory need for DATASET  4 (RF).
     intxc =       0      iscf =       7    lmnmax =      18     lnmax =       6
     mgfft =      54  mpssoang =       3    mqgrid =    3001     natom =       9
  nloc_mem =       2    nspden =       1   nspinor =       1    nsppol =       1
      nsym =      48    n1xccc =       1    ntypat =       3    occopt =       1
   xclevel =       2
-    mband =          42        mffmem =           1         mkmem =          43
-   mkqmem =          43        mk1mem =          43           mpw =        6540
      nfft =      157464          nkpt =         256
Pmy_natom=         2
================================================================================
P This job should need less than                     800.898 Mbytes of memory.
  Rough estimation (10% accuracy) of disk space for files :
_ WF disk file :   1072.971 Mbytes ; DEN or POT disk file :      1.203 Mbytes.
================================================================================


 DATASET    5 : space group Fm -3 m (#225); Bravais cF (face-center cubic)
================================================================================
 Values of the parameters that define the memory need for DATASET  5 (RF).
     intxc =       0      iscf =       7    lmnmax =      18     lnmax =       6
     mgfft =      54  mpssoang =       3    mqgrid =    3001     natom =       9
  nloc_mem =       2    nspden =       1   nspinor =       1    nsppol =       1
      nsym =      48    n1xccc =       1    ntypat =       3    occopt =       1
   xclevel =       2
-    mband =          42        mffmem =           1         mkmem =          43
-   mkqmem =          43        mk1mem =          43           mpw =        6540
      nfft =      157464          nkpt =         256
Pmy_natom=         2
================================================================================
P This job should need less than                     800.898 Mbytes of memory.
  Rough estimation (10% accuracy) of disk space for files :
_ WF disk file :   1072.971 Mbytes ; DEN or POT disk file :      1.203 Mbytes.
================================================================================


 DATASET    6 : space group Fm -3 m (#225); Bravais cF (face-center cubic)
================================================================================
 Values of the parameters that define the memory need for DATASET  6 (RF).
     intxc =       0      iscf =       7    lmnmax =      18     lnmax =       6
     mgfft =      54  mpssoang =       3    mqgrid =    3001     natom =       9
  nloc_mem =       2    nspden =       1   nspinor =       1    nsppol =       1
      nsym =      48    n1xccc =       1    ntypat =       3    occopt =       1
   xclevel =       2
-    mband =          42        mffmem =           1         mkmem =          43
-   mkqmem =          43        mk1mem =          43           mpw =        6540
      nfft =      157464          nkpt =         256
Pmy_natom=         2
================================================================================
P This job should need less than                     800.898 Mbytes of memory.
  Rough estimation (10% accuracy) of disk space for files :
_ WF disk file :   1072.971 Mbytes ; DEN or POT disk file :      1.203 Mbytes.
================================================================================


 DATASET    7 : space group Fm -3 m (#225); Bravais cF (face-center cubic)
================================================================================
 Values of the parameters that define the memory need for DATASET  7 (RF).
     intxc =       0      iscf =       7    lmnmax =      18     lnmax =       6
     mgfft =      54  mpssoang =       3    mqgrid =    3001     natom =       9
  nloc_mem =       2    nspden =       1   nspinor =       1    nsppol =       1
      nsym =      48    n1xccc =       1    ntypat =       3    occopt =       1
   xclevel =       2
-    mband =          42        mffmem =           1         mkmem =          43
-   mkqmem =          43        mk1mem =          43           mpw =        6540
      nfft =      157464          nkpt =         256
Pmy_natom=         2
================================================================================
P This job should need less than                     800.898 Mbytes of memory.
  Rough estimation (10% accuracy) of disk space for files :
_ WF disk file :   1072.971 Mbytes ; DEN or POT disk file :      1.203 Mbytes.
================================================================================


 DATASET    8 : space group Fm -3 m (#225); Bravais cF (face-center cubic)
================================================================================
 Values of the parameters that define the memory need for DATASET  8 (RF).
     intxc =       0      iscf =       7    lmnmax =      18     lnmax =       6
     mgfft =      54  mpssoang =       3    mqgrid =    3001     natom =       9
  nloc_mem =       2    nspden =       1   nspinor =       1    nsppol =       1
      nsym =      48    n1xccc =       1    ntypat =       3    occopt =       1
   xclevel =       2
-    mband =          42        mffmem =           1         mkmem =          43
-   mkqmem =          43        mk1mem =          43           mpw =        6540
      nfft =      157464          nkpt =         256
Pmy_natom=         2
================================================================================
P This job should need less than                     800.898 Mbytes of memory.
  Rough estimation (10% accuracy) of disk space for files :
_ WF disk file :   1072.971 Mbytes ; DEN or POT disk file :      1.203 Mbytes.
================================================================================


 DATASET    9 : space group Fm -3 m (#225); Bravais cF (face-center cubic)
================================================================================
 Values of the parameters that define the memory need for DATASET  9 (RF).
     intxc =       0      iscf =       7    lmnmax =      18     lnmax =       6
     mgfft =      54  mpssoang =       3    mqgrid =    3001     natom =       9
  nloc_mem =       2    nspden =       1   nspinor =       1    nsppol =       1
      nsym =      48    n1xccc =       1    ntypat =       3    occopt =       1
   xclevel =       2
-    mband =          42        mffmem =           1         mkmem =          43
-   mkqmem =          43        mk1mem =          43           mpw =        6540
      nfft =      157464          nkpt =         256
Pmy_natom=         2
================================================================================
P This job should need less than                     800.898 Mbytes of memory.
  Rough estimation (10% accuracy) of disk space for files :
_ WF disk file :   1072.971 Mbytes ; DEN or POT disk file :      1.203 Mbytes.
================================================================================


 DATASET   10 : space group Fm -3 m (#225); Bravais cF (face-center cubic)
================================================================================
 Values of the parameters that define the memory need for DATASET 10 (RF).
     intxc =       0      iscf =       7    lmnmax =      18     lnmax =       6
     mgfft =      54  mpssoang =       3    mqgrid =    3001     natom =       9
  nloc_mem =       2    nspden =       1   nspinor =       1    nsppol =       1
      nsym =      48    n1xccc =       1    ntypat =       3    occopt =       1
   xclevel =       2
-    mband =          42        mffmem =           1         mkmem =          43
-   mkqmem =          43        mk1mem =          43           mpw =        6540
      nfft =      157464          nkpt =         256
Pmy_natom=         2
================================================================================
P This job should need less than                     800.898 Mbytes of memory.
  Rough estimation (10% accuracy) of disk space for files :
_ WF disk file :   1072.971 Mbytes ; DEN or POT disk file :      1.203 Mbytes.
================================================================================

--------------------------------------------------------------------------------
------------- Echo of variables that govern the present computation ------------
--------------------------------------------------------------------------------
-
- outvars: echo of selected default values                                      
-   iomode0 =  0 , fftalg0 =112 , wfoptalg0 = 10
-
- outvars: echo of global parameters not present in the input file              
-  max_nthreads =    0
-
 -outvars: echo values of preprocessed input variables --------
            acell      1.6056750671E+01  1.6056750671E+01  1.6056750671E+01 Bohr
              amu      1.32905430E+02  1.26904470E+02  9.12240000E+01
          chkprim           0
           diemac      1.20000000E+01
             ecut      1.60000000E+01 Hartree
-          fftalg         112
           getddk1          0
           getddk2          0
           getddk3          2
           getddk4          0
           getddk5          0
           getddk6          0
           getddk7          0
           getddk8          0
           getddk9          0
           getddk10         0
           getwfk1          0
           getwfk2          1
           getwfk3          1
           getwfk4          1
           getwfk5          1
           getwfk6          1
           getwfk7          1
           getwfk8          1
           getwfk9          1
           getwfk10         1
             iscf1          7
             iscf2         -3
             iscf3          7
             iscf4          7
             iscf5          7
             iscf6          7
             iscf7          7
             iscf8          7
             iscf9          7
             iscf10         7
              ixc     -101130
           jdtset        1    2    3    4    5    6    7    8    9   10
              kpt1    -1.25000000E-01 -2.50000000E-01  0.00000000E+00
                      -1.25000000E-01  5.00000000E-01  0.00000000E+00
                      -2.50000000E-01 -3.75000000E-01  0.00000000E+00
                      -1.25000000E-01 -3.75000000E-01  1.25000000E-01
                      -1.25000000E-01  2.50000000E-01  0.00000000E+00
                      -2.50000000E-01  3.75000000E-01  0.00000000E+00
                      -3.75000000E-01  5.00000000E-01  0.00000000E+00
                      -2.50000000E-01  5.00000000E-01  1.25000000E-01
                      -1.25000000E-01  0.00000000E+00  0.00000000E+00
                      -3.75000000E-01  0.00000000E+00  0.00000000E+00
              kpt2    -1.25000000E-01 -2.50000000E-01  0.00000000E+00
                      -2.50000000E-01 -1.25000000E-01  0.00000000E+00
                      -1.25000000E-01 -1.25000000E-01  1.25000000E-01
                      -1.25000000E-01  5.00000000E-01  0.00000000E+00
                      -2.50000000E-01 -3.75000000E-01  0.00000000E+00
                      -1.25000000E-01 -3.75000000E-01  1.25000000E-01
                      -3.75000000E-01 -2.50000000E-01  0.00000000E+00
                      -2.50000000E-01 -2.50000000E-01  1.25000000E-01
                      -1.25000000E-01 -2.50000000E-01  2.50000000E-01
                       5.00000000E-01 -1.25000000E-01  0.00000000E+00
                      -3.75000000E-01 -1.25000000E-01  1.25000000E-01
                      -2.50000000E-01 -1.25000000E-01  2.50000000E-01
                      -1.25000000E-01 -1.25000000E-01  3.75000000E-01
                      -1.25000000E-01  2.50000000E-01  0.00000000E+00
                      -2.50000000E-01  3.75000000E-01  0.00000000E+00
                      -1.25000000E-01  3.75000000E-01  1.25000000E-01
                      -3.75000000E-01  5.00000000E-01  0.00000000E+00
                      -2.50000000E-01  5.00000000E-01  1.25000000E-01
                      -1.25000000E-01  5.00000000E-01  2.50000000E-01
                       5.00000000E-01 -3.75000000E-01  0.00000000E+00
                      -3.75000000E-01 -3.75000000E-01  1.25000000E-01
                      -2.50000000E-01 -3.75000000E-01  2.50000000E-01
                      -1.25000000E-01 -3.75000000E-01  3.75000000E-01
                       3.75000000E-01 -2.50000000E-01  0.00000000E+00
                       5.00000000E-01 -2.50000000E-01  1.25000000E-01
                      -3.75000000E-01 -2.50000000E-01  2.50000000E-01
                      -2.50000000E-01 -2.50000000E-01  3.75000000E-01
                      -1.25000000E-01 -2.50000000E-01  5.00000000E-01
                       2.50000000E-01 -1.25000000E-01  0.00000000E+00
                       3.75000000E-01 -1.25000000E-01  1.25000000E-01
                       5.00000000E-01 -1.25000000E-01  2.50000000E-01
                      -3.75000000E-01 -1.25000000E-01  3.75000000E-01
                      -2.50000000E-01 -1.25000000E-01  5.00000000E-01
                      -1.25000000E-01 -1.25000000E-01 -3.75000000E-01
                      -1.25000000E-01  0.00000000E+00  0.00000000E+00
                      -1.25000000E-01  1.25000000E-01  1.25000000E-01
                      -2.50000000E-01  2.50000000E-01  1.25000000E-01
                      -1.25000000E-01  2.50000000E-01  2.50000000E-01
                      -3.75000000E-01  3.75000000E-01  1.25000000E-01
                      -2.50000000E-01  3.75000000E-01  2.50000000E-01
                      -1.25000000E-01  3.75000000E-01  3.75000000E-01
                       5.00000000E-01  5.00000000E-01  1.25000000E-01
                      -3.75000000E-01  5.00000000E-01  2.50000000E-01
                      -2.50000000E-01  5.00000000E-01  3.75000000E-01
                      -1.25000000E-01  5.00000000E-01  5.00000000E-01
                       3.75000000E-01 -3.75000000E-01  1.25000000E-01
                       5.00000000E-01 -3.75000000E-01  2.50000000E-01
                      -3.75000000E-01 -3.75000000E-01  3.75000000E-01
                      -2.50000000E-01 -3.75000000E-01  5.00000000E-01
                      -1.25000000E-01 -3.75000000E-01 -3.75000000E-01
              kpt3    -1.25000000E-01 -2.50000000E-01  0.00000000E+00
                      -2.50000000E-01 -1.25000000E-01  0.00000000E+00
                      -1.25000000E-01 -1.25000000E-01  1.25000000E-01
                      -1.25000000E-01  5.00000000E-01  0.00000000E+00
                      -2.50000000E-01 -3.75000000E-01  0.00000000E+00
                      -1.25000000E-01 -3.75000000E-01  1.25000000E-01
                      -3.75000000E-01 -2.50000000E-01  0.00000000E+00
                      -2.50000000E-01 -2.50000000E-01  1.25000000E-01
                      -1.25000000E-01 -2.50000000E-01  2.50000000E-01
                       5.00000000E-01 -1.25000000E-01  0.00000000E+00
                      -3.75000000E-01 -1.25000000E-01  1.25000000E-01
                      -2.50000000E-01 -1.25000000E-01  2.50000000E-01
                      -1.25000000E-01 -1.25000000E-01  3.75000000E-01
                      -1.25000000E-01  2.50000000E-01  0.00000000E+00
                      -2.50000000E-01  3.75000000E-01  0.00000000E+00
                      -1.25000000E-01  3.75000000E-01  1.25000000E-01
                      -3.75000000E-01  5.00000000E-01  0.00000000E+00
                      -2.50000000E-01  5.00000000E-01  1.25000000E-01
                      -1.25000000E-01  5.00000000E-01  2.50000000E-01
                       5.00000000E-01 -3.75000000E-01  0.00000000E+00
                      -3.75000000E-01 -3.75000000E-01  1.25000000E-01
                      -2.50000000E-01 -3.75000000E-01  2.50000000E-01
                      -1.25000000E-01 -3.75000000E-01  3.75000000E-01
                       3.75000000E-01 -2.50000000E-01  0.00000000E+00
                       5.00000000E-01 -2.50000000E-01  1.25000000E-01
                      -3.75000000E-01 -2.50000000E-01  2.50000000E-01
                      -2.50000000E-01 -2.50000000E-01  3.75000000E-01
                      -1.25000000E-01 -2.50000000E-01  5.00000000E-01
                       2.50000000E-01 -1.25000000E-01  0.00000000E+00
                       3.75000000E-01 -1.25000000E-01  1.25000000E-01
                       5.00000000E-01 -1.25000000E-01  2.50000000E-01
                      -3.75000000E-01 -1.25000000E-01  3.75000000E-01
                      -2.50000000E-01 -1.25000000E-01  5.00000000E-01
                      -1.25000000E-01 -1.25000000E-01 -3.75000000E-01
                      -1.25000000E-01  0.00000000E+00  0.00000000E+00
                      -1.25000000E-01  1.25000000E-01  1.25000000E-01
                      -2.50000000E-01  2.50000000E-01  1.25000000E-01
                      -1.25000000E-01  2.50000000E-01  2.50000000E-01
                      -3.75000000E-01  3.75000000E-01  1.25000000E-01
                      -2.50000000E-01  3.75000000E-01  2.50000000E-01
                      -1.25000000E-01  3.75000000E-01  3.75000000E-01
                       5.00000000E-01  5.00000000E-01  1.25000000E-01
                      -3.75000000E-01  5.00000000E-01  2.50000000E-01
                      -2.50000000E-01  5.00000000E-01  3.75000000E-01
                      -1.25000000E-01  5.00000000E-01  5.00000000E-01
                       3.75000000E-01 -3.75000000E-01  1.25000000E-01
                       5.00000000E-01 -3.75000000E-01  2.50000000E-01
                      -3.75000000E-01 -3.75000000E-01  3.75000000E-01
                      -2.50000000E-01 -3.75000000E-01  5.00000000E-01
                      -1.25000000E-01 -3.75000000E-01 -3.75000000E-01
              kpt4    -1.25000000E-01 -2.50000000E-01  0.00000000E+00
                      -2.50000000E-01 -1.25000000E-01  0.00000000E+00
                      -1.25000000E-01 -1.25000000E-01  1.25000000E-01
                      -1.25000000E-01  5.00000000E-01  0.00000000E+00
                      -2.50000000E-01 -3.75000000E-01  0.00000000E+00
                      -1.25000000E-01 -3.75000000E-01  1.25000000E-01
                      -3.75000000E-01 -2.50000000E-01  0.00000000E+00
                      -2.50000000E-01 -2.50000000E-01  1.25000000E-01
                      -1.25000000E-01 -2.50000000E-01  2.50000000E-01
                       5.00000000E-01 -1.25000000E-01  0.00000000E+00
                      -3.75000000E-01 -1.25000000E-01  1.25000000E-01
                      -2.50000000E-01 -1.25000000E-01  2.50000000E-01
                      -1.25000000E-01 -1.25000000E-01  3.75000000E-01
                      -1.25000000E-01  2.50000000E-01  0.00000000E+00
                      -2.50000000E-01  3.75000000E-01  0.00000000E+00
                      -1.25000000E-01  3.75000000E-01  1.25000000E-01
                      -3.75000000E-01  5.00000000E-01  0.00000000E+00
                      -2.50000000E-01  5.00000000E-01  1.25000000E-01
                      -1.25000000E-01  5.00000000E-01  2.50000000E-01
                       5.00000000E-01 -3.75000000E-01  0.00000000E+00
                      -3.75000000E-01 -3.75000000E-01  1.25000000E-01
                      -2.50000000E-01 -3.75000000E-01  2.50000000E-01
                      -1.25000000E-01 -3.75000000E-01  3.75000000E-01
                       3.75000000E-01 -2.50000000E-01  0.00000000E+00
                       5.00000000E-01 -2.50000000E-01  1.25000000E-01
                      -3.75000000E-01 -2.50000000E-01  2.50000000E-01
                      -2.50000000E-01 -2.50000000E-01  3.75000000E-01
                      -1.25000000E-01 -2.50000000E-01  5.00000000E-01
                       2.50000000E-01 -1.25000000E-01  0.00000000E+00
                       3.75000000E-01 -1.25000000E-01  1.25000000E-01
                       5.00000000E-01 -1.25000000E-01  2.50000000E-01
                      -3.75000000E-01 -1.25000000E-01  3.75000000E-01
                      -2.50000000E-01 -1.25000000E-01  5.00000000E-01
                      -1.25000000E-01 -1.25000000E-01 -3.75000000E-01
                      -1.25000000E-01  0.00000000E+00  0.00000000E+00
                      -2.50000000E-01  1.25000000E-01  0.00000000E+00
                      -1.25000000E-01  1.25000000E-01  1.25000000E-01
                      -3.75000000E-01  2.50000000E-01  0.00000000E+00
                      -2.50000000E-01  2.50000000E-01  1.25000000E-01
                      -1.25000000E-01  2.50000000E-01  2.50000000E-01
                       5.00000000E-01  3.75000000E-01  0.00000000E+00
                      -3.75000000E-01  3.75000000E-01  1.25000000E-01
                      -2.50000000E-01  3.75000000E-01  2.50000000E-01
                      -1.25000000E-01  3.75000000E-01  3.75000000E-01
                       3.75000000E-01  5.00000000E-01  0.00000000E+00
                       5.00000000E-01  5.00000000E-01  1.25000000E-01
                      -3.75000000E-01  5.00000000E-01  2.50000000E-01
                      -2.50000000E-01  5.00000000E-01  3.75000000E-01
                      -1.25000000E-01  5.00000000E-01  5.00000000E-01
                       2.50000000E-01 -3.75000000E-01  0.00000000E+00
              kpt5    -1.25000000E-01 -2.50000000E-01  0.00000000E+00
                      -2.50000000E-01 -1.25000000E-01  0.00000000E+00
                      -1.25000000E-01 -1.25000000E-01  1.25000000E-01
                      -1.25000000E-01  5.00000000E-01  0.00000000E+00
                      -2.50000000E-01 -3.75000000E-01  0.00000000E+00
                      -1.25000000E-01 -3.75000000E-01  1.25000000E-01
                      -3.75000000E-01 -2.50000000E-01  0.00000000E+00
                      -2.50000000E-01 -2.50000000E-01  1.25000000E-01
                      -1.25000000E-01 -2.50000000E-01  2.50000000E-01
                       5.00000000E-01 -1.25000000E-01  0.00000000E+00
                      -3.75000000E-01 -1.25000000E-01  1.25000000E-01
                      -2.50000000E-01 -1.25000000E-01  2.50000000E-01
                      -1.25000000E-01 -1.25000000E-01  3.75000000E-01
                      -1.25000000E-01  2.50000000E-01  0.00000000E+00
                      -2.50000000E-01  3.75000000E-01  0.00000000E+00
                      -1.25000000E-01  3.75000000E-01  1.25000000E-01
                      -3.75000000E-01  5.00000000E-01  0.00000000E+00
                      -2.50000000E-01  5.00000000E-01  1.25000000E-01
                      -1.25000000E-01  5.00000000E-01  2.50000000E-01
                       5.00000000E-01 -3.75000000E-01  0.00000000E+00
                      -3.75000000E-01 -3.75000000E-01  1.25000000E-01
                      -2.50000000E-01 -3.75000000E-01  2.50000000E-01
                      -1.25000000E-01 -3.75000000E-01  3.75000000E-01
                       3.75000000E-01 -2.50000000E-01  0.00000000E+00
                       5.00000000E-01 -2.50000000E-01  1.25000000E-01
                      -3.75000000E-01 -2.50000000E-01  2.50000000E-01
                      -2.50000000E-01 -2.50000000E-01  3.75000000E-01
                      -1.25000000E-01 -2.50000000E-01  5.00000000E-01
                       2.50000000E-01 -1.25000000E-01  0.00000000E+00
                       3.75000000E-01 -1.25000000E-01  1.25000000E-01
                       5.00000000E-01 -1.25000000E-01  2.50000000E-01
                      -3.75000000E-01 -1.25000000E-01  3.75000000E-01
                      -2.50000000E-01 -1.25000000E-01  5.00000000E-01
                      -1.25000000E-01 -1.25000000E-01 -3.75000000E-01
                      -1.25000000E-01  0.00000000E+00  0.00000000E+00
                      -2.50000000E-01  1.25000000E-01  0.00000000E+00
                      -1.25000000E-01  1.25000000E-01  1.25000000E-01
                      -3.75000000E-01  2.50000000E-01  0.00000000E+00
                      -2.50000000E-01  2.50000000E-01  1.25000000E-01
                      -1.25000000E-01  2.50000000E-01  2.50000000E-01
                       5.00000000E-01  3.75000000E-01  0.00000000E+00
                      -3.75000000E-01  3.75000000E-01  1.25000000E-01
                      -2.50000000E-01  3.75000000E-01  2.50000000E-01
                      -1.25000000E-01  3.75000000E-01  3.75000000E-01
                       3.75000000E-01  5.00000000E-01  0.00000000E+00
                       5.00000000E-01  5.00000000E-01  1.25000000E-01
                      -3.75000000E-01  5.00000000E-01  2.50000000E-01
                      -2.50000000E-01  5.00000000E-01  3.75000000E-01
                      -1.25000000E-01  5.00000000E-01  5.00000000E-01
                       2.50000000E-01 -3.75000000E-01  0.00000000E+00
              kpt6    -1.25000000E-01 -2.50000000E-01  0.00000000E+00
                      -2.50000000E-01 -1.25000000E-01  0.00000000E+00
                      -1.25000000E-01 -1.25000000E-01  1.25000000E-01
                      -1.25000000E-01  5.00000000E-01  0.00000000E+00
                      -2.50000000E-01 -3.75000000E-01  0.00000000E+00
                      -1.25000000E-01 -3.75000000E-01  1.25000000E-01
                      -3.75000000E-01 -2.50000000E-01  0.00000000E+00
                      -2.50000000E-01 -2.50000000E-01  1.25000000E-01
                      -1.25000000E-01 -2.50000000E-01  2.50000000E-01
                       5.00000000E-01 -1.25000000E-01  0.00000000E+00
                      -3.75000000E-01 -1.25000000E-01  1.25000000E-01
                      -2.50000000E-01 -1.25000000E-01  2.50000000E-01
                      -1.25000000E-01 -1.25000000E-01  3.75000000E-01
                      -1.25000000E-01  2.50000000E-01  0.00000000E+00
                      -2.50000000E-01  3.75000000E-01  0.00000000E+00
                      -1.25000000E-01  3.75000000E-01  1.25000000E-01
                      -3.75000000E-01  5.00000000E-01  0.00000000E+00
                      -2.50000000E-01  5.00000000E-01  1.25000000E-01
                      -1.25000000E-01  5.00000000E-01  2.50000000E-01
                       5.00000000E-01 -3.75000000E-01  0.00000000E+00
                      -3.75000000E-01 -3.75000000E-01  1.25000000E-01
                      -2.50000000E-01 -3.75000000E-01  2.50000000E-01
                      -1.25000000E-01 -3.75000000E-01  3.75000000E-01
                       3.75000000E-01 -2.50000000E-01  0.00000000E+00
                       5.00000000E-01 -2.50000000E-01  1.25000000E-01
                      -3.75000000E-01 -2.50000000E-01  2.50000000E-01
                      -2.50000000E-01 -2.50000000E-01  3.75000000E-01
                      -1.25000000E-01 -2.50000000E-01  5.00000000E-01
                       2.50000000E-01 -1.25000000E-01  0.00000000E+00
                       3.75000000E-01 -1.25000000E-01  1.25000000E-01
                       5.00000000E-01 -1.25000000E-01  2.50000000E-01
                      -3.75000000E-01 -1.25000000E-01  3.75000000E-01
                      -2.50000000E-01 -1.25000000E-01  5.00000000E-01
                      -1.25000000E-01 -1.25000000E-01 -3.75000000E-01
                      -1.25000000E-01  0.00000000E+00  0.00000000E+00
                      -2.50000000E-01  1.25000000E-01  0.00000000E+00
                      -1.25000000E-01  1.25000000E-01  1.25000000E-01
                      -3.75000000E-01  2.50000000E-01  0.00000000E+00
                      -2.50000000E-01  2.50000000E-01  1.25000000E-01
                      -1.25000000E-01  2.50000000E-01  2.50000000E-01
                       5.00000000E-01  3.75000000E-01  0.00000000E+00
                      -3.75000000E-01  3.75000000E-01  1.25000000E-01
                      -2.50000000E-01  3.75000000E-01  2.50000000E-01
                      -1.25000000E-01  3.75000000E-01  3.75000000E-01
                       3.75000000E-01  5.00000000E-01  0.00000000E+00
                       5.00000000E-01  5.00000000E-01  1.25000000E-01
                      -3.75000000E-01  5.00000000E-01  2.50000000E-01
                      -2.50000000E-01  5.00000000E-01  3.75000000E-01
                      -1.25000000E-01  5.00000000E-01  5.00000000E-01
                       2.50000000E-01 -3.75000000E-01  0.00000000E+00
              kpt7    -1.25000000E-01 -2.50000000E-01  0.00000000E+00
                      -2.50000000E-01 -1.25000000E-01  0.00000000E+00
                      -1.25000000E-01 -1.25000000E-01  1.25000000E-01
                      -1.25000000E-01  5.00000000E-01  0.00000000E+00
                      -2.50000000E-01 -3.75000000E-01  0.00000000E+00
                      -1.25000000E-01 -3.75000000E-01  1.25000000E-01
                      -3.75000000E-01 -2.50000000E-01  0.00000000E+00
                      -2.50000000E-01 -2.50000000E-01  1.25000000E-01
                      -1.25000000E-01 -2.50000000E-01  2.50000000E-01
                       5.00000000E-01 -1.25000000E-01  0.00000000E+00
                      -3.75000000E-01 -1.25000000E-01  1.25000000E-01
                      -2.50000000E-01 -1.25000000E-01  2.50000000E-01
                      -1.25000000E-01 -1.25000000E-01  3.75000000E-01
                      -1.25000000E-01  2.50000000E-01  0.00000000E+00
                      -2.50000000E-01  3.75000000E-01  0.00000000E+00
                      -1.25000000E-01  3.75000000E-01  1.25000000E-01
                      -3.75000000E-01  5.00000000E-01  0.00000000E+00
                      -2.50000000E-01  5.00000000E-01  1.25000000E-01
                      -1.25000000E-01  5.00000000E-01  2.50000000E-01
                       5.00000000E-01 -3.75000000E-01  0.00000000E+00
                      -3.75000000E-01 -3.75000000E-01  1.25000000E-01
                      -2.50000000E-01 -3.75000000E-01  2.50000000E-01
                      -1.25000000E-01 -3.75000000E-01  3.75000000E-01
                       3.75000000E-01 -2.50000000E-01  0.00000000E+00
                       5.00000000E-01 -2.50000000E-01  1.25000000E-01
                      -3.75000000E-01 -2.50000000E-01  2.50000000E-01
                      -2.50000000E-01 -2.50000000E-01  3.75000000E-01
                      -1.25000000E-01 -2.50000000E-01  5.00000000E-01
                       2.50000000E-01 -1.25000000E-01  0.00000000E+00
                       3.75000000E-01 -1.25000000E-01  1.25000000E-01
                       5.00000000E-01 -1.25000000E-01  2.50000000E-01
                      -3.75000000E-01 -1.25000000E-01  3.75000000E-01
                      -2.50000000E-01 -1.25000000E-01  5.00000000E-01
                      -1.25000000E-01 -1.25000000E-01 -3.75000000E-01
                      -1.25000000E-01  0.00000000E+00  0.00000000E+00
                      -2.50000000E-01  1.25000000E-01  0.00000000E+00
                      -1.25000000E-01  1.25000000E-01  1.25000000E-01
                      -3.75000000E-01  2.50000000E-01  0.00000000E+00
                      -2.50000000E-01  2.50000000E-01  1.25000000E-01
                      -1.25000000E-01  2.50000000E-01  2.50000000E-01
                       5.00000000E-01  3.75000000E-01  0.00000000E+00
                      -3.75000000E-01  3.75000000E-01  1.25000000E-01
                      -2.50000000E-01  3.75000000E-01  2.50000000E-01
                      -1.25000000E-01  3.75000000E-01  3.75000000E-01
                       3.75000000E-01  5.00000000E-01  0.00000000E+00
                       5.00000000E-01  5.00000000E-01  1.25000000E-01
                      -3.75000000E-01  5.00000000E-01  2.50000000E-01
                      -2.50000000E-01  5.00000000E-01  3.75000000E-01
                      -1.25000000E-01  5.00000000E-01  5.00000000E-01
                       2.50000000E-01 -3.75000000E-01  0.00000000E+00
              kpt8    -1.25000000E-01 -2.50000000E-01  0.00000000E+00
                      -2.50000000E-01 -1.25000000E-01  0.00000000E+00
                      -1.25000000E-01 -1.25000000E-01  1.25000000E-01
                      -1.25000000E-01  5.00000000E-01  0.00000000E+00
                      -2.50000000E-01 -3.75000000E-01  0.00000000E+00
                      -1.25000000E-01 -3.75000000E-01  1.25000000E-01
                      -3.75000000E-01 -2.50000000E-01  0.00000000E+00
                      -2.50000000E-01 -2.50000000E-01  1.25000000E-01
                      -1.25000000E-01 -2.50000000E-01  2.50000000E-01
                       5.00000000E-01 -1.25000000E-01  0.00000000E+00
                      -3.75000000E-01 -1.25000000E-01  1.25000000E-01
                      -2.50000000E-01 -1.25000000E-01  2.50000000E-01
                      -1.25000000E-01 -1.25000000E-01  3.75000000E-01
                      -1.25000000E-01  2.50000000E-01  0.00000000E+00
                      -2.50000000E-01  3.75000000E-01  0.00000000E+00
                      -1.25000000E-01  3.75000000E-01  1.25000000E-01
                      -3.75000000E-01  5.00000000E-01  0.00000000E+00
                      -2.50000000E-01  5.00000000E-01  1.25000000E-01
                      -1.25000000E-01  5.00000000E-01  2.50000000E-01
                       5.00000000E-01 -3.75000000E-01  0.00000000E+00
                      -3.75000000E-01 -3.75000000E-01  1.25000000E-01
                      -2.50000000E-01 -3.75000000E-01  2.50000000E-01
                      -1.25000000E-01 -3.75000000E-01  3.75000000E-01
                       3.75000000E-01 -2.50000000E-01  0.00000000E+00
                       5.00000000E-01 -2.50000000E-01  1.25000000E-01
                      -3.75000000E-01 -2.50000000E-01  2.50000000E-01
                      -2.50000000E-01 -2.50000000E-01  3.75000000E-01
                      -1.25000000E-01 -2.50000000E-01  5.00000000E-01
                       2.50000000E-01 -1.25000000E-01  0.00000000E+00
                       3.75000000E-01 -1.25000000E-01  1.25000000E-01
                       5.00000000E-01 -1.25000000E-01  2.50000000E-01
                      -3.75000000E-01 -1.25000000E-01  3.75000000E-01
                      -2.50000000E-01 -1.25000000E-01  5.00000000E-01
                      -1.25000000E-01 -1.25000000E-01 -3.75000000E-01
                      -1.25000000E-01  0.00000000E+00  0.00000000E+00
                      -2.50000000E-01  1.25000000E-01  0.00000000E+00
                      -1.25000000E-01  1.25000000E-01  1.25000000E-01
                      -3.75000000E-01  2.50000000E-01  0.00000000E+00
                      -2.50000000E-01  2.50000000E-01  1.25000000E-01
                      -1.25000000E-01  2.50000000E-01  2.50000000E-01
                       5.00000000E-01  3.75000000E-01  0.00000000E+00
                      -3.75000000E-01  3.75000000E-01  1.25000000E-01
                      -2.50000000E-01  3.75000000E-01  2.50000000E-01
                      -1.25000000E-01  3.75000000E-01  3.75000000E-01
                       3.75000000E-01  5.00000000E-01  0.00000000E+00
                       5.00000000E-01  5.00000000E-01  1.25000000E-01
                      -3.75000000E-01  5.00000000E-01  2.50000000E-01
                      -2.50000000E-01  5.00000000E-01  3.75000000E-01
                      -1.25000000E-01  5.00000000E-01  5.00000000E-01
                       2.50000000E-01 -3.75000000E-01  0.00000000E+00
              kpt9    -1.25000000E-01 -2.50000000E-01  0.00000000E+00
                      -2.50000000E-01 -1.25000000E-01  0.00000000E+00
                      -1.25000000E-01 -1.25000000E-01  1.25000000E-01
                      -1.25000000E-01  5.00000000E-01  0.00000000E+00
                      -2.50000000E-01 -3.75000000E-01  0.00000000E+00
                      -1.25000000E-01 -3.75000000E-01  1.25000000E-01
                      -3.75000000E-01 -2.50000000E-01  0.00000000E+00
                      -2.50000000E-01 -2.50000000E-01  1.25000000E-01
                      -1.25000000E-01 -2.50000000E-01  2.50000000E-01
                       5.00000000E-01 -1.25000000E-01  0.00000000E+00
                      -3.75000000E-01 -1.25000000E-01  1.25000000E-01
                      -2.50000000E-01 -1.25000000E-01  2.50000000E-01
                      -1.25000000E-01 -1.25000000E-01  3.75000000E-01
                      -1.25000000E-01  2.50000000E-01  0.00000000E+00
                      -2.50000000E-01  3.75000000E-01  0.00000000E+00
                      -1.25000000E-01  3.75000000E-01  1.25000000E-01
                      -3.75000000E-01  5.00000000E-01  0.00000000E+00
                      -2.50000000E-01  5.00000000E-01  1.25000000E-01
                      -1.25000000E-01  5.00000000E-01  2.50000000E-01
                       5.00000000E-01 -3.75000000E-01  0.00000000E+00
                      -3.75000000E-01 -3.75000000E-01  1.25000000E-01
                      -2.50000000E-01 -3.75000000E-01  2.50000000E-01
                      -1.25000000E-01 -3.75000000E-01  3.75000000E-01
                       3.75000000E-01 -2.50000000E-01  0.00000000E+00
                       5.00000000E-01 -2.50000000E-01  1.25000000E-01
                      -3.75000000E-01 -2.50000000E-01  2.50000000E-01
                      -2.50000000E-01 -2.50000000E-01  3.75000000E-01
                      -1.25000000E-01 -2.50000000E-01  5.00000000E-01
                       2.50000000E-01 -1.25000000E-01  0.00000000E+00
                       3.75000000E-01 -1.25000000E-01  1.25000000E-01
                       5.00000000E-01 -1.25000000E-01  2.50000000E-01
                      -3.75000000E-01 -1.25000000E-01  3.75000000E-01
                      -2.50000000E-01 -1.25000000E-01  5.00000000E-01
                      -1.25000000E-01 -1.25000000E-01 -3.75000000E-01
                      -1.25000000E-01  0.00000000E+00  0.00000000E+00
                      -2.50000000E-01  1.25000000E-01  0.00000000E+00
                      -1.25000000E-01  1.25000000E-01  1.25000000E-01
                      -3.75000000E-01  2.50000000E-01  0.00000000E+00
                      -2.50000000E-01  2.50000000E-01  1.25000000E-01
                      -1.25000000E-01  2.50000000E-01  2.50000000E-01
                       5.00000000E-01  3.75000000E-01  0.00000000E+00
                      -3.75000000E-01  3.75000000E-01  1.25000000E-01
                      -2.50000000E-01  3.75000000E-01  2.50000000E-01
                      -1.25000000E-01  3.75000000E-01  3.75000000E-01
                       3.75000000E-01  5.00000000E-01  0.00000000E+00
                       5.00000000E-01  5.00000000E-01  1.25000000E-01
                      -3.75000000E-01  5.00000000E-01  2.50000000E-01
                      -2.50000000E-01  5.00000000E-01  3.75000000E-01
                      -1.25000000E-01  5.00000000E-01  5.00000000E-01
                       2.50000000E-01 -3.75000000E-01  0.00000000E+00
              kpt10   -1.25000000E-01 -2.50000000E-01  0.00000000E+00
                      -2.50000000E-01 -1.25000000E-01  0.00000000E+00
                      -1.25000000E-01 -1.25000000E-01  1.25000000E-01
                      -1.25000000E-01  5.00000000E-01  0.00000000E+00
                      -2.50000000E-01 -3.75000000E-01  0.00000000E+00
                      -1.25000000E-01 -3.75000000E-01  1.25000000E-01
                      -3.75000000E-01 -2.50000000E-01  0.00000000E+00
                      -2.50000000E-01 -2.50000000E-01  1.25000000E-01
                      -1.25000000E-01 -2.50000000E-01  2.50000000E-01
                       5.00000000E-01 -1.25000000E-01  0.00000000E+00
                      -3.75000000E-01 -1.25000000E-01  1.25000000E-01
                      -2.50000000E-01 -1.25000000E-01  2.50000000E-01
                      -1.25000000E-01 -1.25000000E-01  3.75000000E-01
                      -1.25000000E-01  2.50000000E-01  0.00000000E+00
                      -2.50000000E-01  3.75000000E-01  0.00000000E+00
                      -1.25000000E-01  3.75000000E-01  1.25000000E-01
                      -3.75000000E-01  5.00000000E-01  0.00000000E+00
                      -2.50000000E-01  5.00000000E-01  1.25000000E-01
                      -1.25000000E-01  5.00000000E-01  2.50000000E-01
                       5.00000000E-01 -3.75000000E-01  0.00000000E+00
                      -3.75000000E-01 -3.75000000E-01  1.25000000E-01
                      -2.50000000E-01 -3.75000000E-01  2.50000000E-01
                      -1.25000000E-01 -3.75000000E-01  3.75000000E-01
                       3.75000000E-01 -2.50000000E-01  0.00000000E+00
                       5.00000000E-01 -2.50000000E-01  1.25000000E-01
                      -3.75000000E-01 -2.50000000E-01  2.50000000E-01
                      -2.50000000E-01 -2.50000000E-01  3.75000000E-01
                      -1.25000000E-01 -2.50000000E-01  5.00000000E-01
                       2.50000000E-01 -1.25000000E-01  0.00000000E+00
                       3.75000000E-01 -1.25000000E-01  1.25000000E-01
                       5.00000000E-01 -1.25000000E-01  2.50000000E-01
                      -3.75000000E-01 -1.25000000E-01  3.75000000E-01
                      -2.50000000E-01 -1.25000000E-01  5.00000000E-01
                      -1.25000000E-01 -1.25000000E-01 -3.75000000E-01
                      -1.25000000E-01  0.00000000E+00  0.00000000E+00
                      -2.50000000E-01  1.25000000E-01  0.00000000E+00
                      -1.25000000E-01  1.25000000E-01  1.25000000E-01
                      -3.75000000E-01  2.50000000E-01  0.00000000E+00
                      -2.50000000E-01  2.50000000E-01  1.25000000E-01
                      -1.25000000E-01  2.50000000E-01  2.50000000E-01
                       5.00000000E-01  3.75000000E-01  0.00000000E+00
                      -3.75000000E-01  3.75000000E-01  1.25000000E-01
                      -2.50000000E-01  3.75000000E-01  2.50000000E-01
                      -1.25000000E-01  3.75000000E-01  3.75000000E-01
                       3.75000000E-01  5.00000000E-01  0.00000000E+00
                       5.00000000E-01  5.00000000E-01  1.25000000E-01
                      -3.75000000E-01  5.00000000E-01  2.50000000E-01
                      -2.50000000E-01  5.00000000E-01  3.75000000E-01
                      -1.25000000E-01  5.00000000E-01  5.00000000E-01
                       2.50000000E-01 -3.75000000E-01  0.00000000E+00
                       outvar_i_n : Printing only first  50 k-points.
           kptopt1          1
           kptopt2          2
           kptopt3          2
           kptopt4          3
           kptopt5          3
           kptopt6          3
           kptopt7          3
           kptopt8          3
           kptopt9          3
           kptopt10         3
         kptrlatt        4   -4    4     -4    4    4     -4   -4    4
          kptrlen      8.17476284E+01
P           mkmem1          2
P           mkmem2         22
P           mkmem3         22
P           mkmem4         43
P           mkmem5         43
P           mkmem6         43
P           mkmem7         43
P           mkmem8         43
P           mkmem9         43
P           mkmem10        43
P          mkqmem1          2
P          mkqmem2         22
P          mkqmem3         22
P          mkqmem4         43
P          mkqmem5         43
P          mkqmem6         43
P          mkqmem7         43
P          mkqmem8         43
P          mkqmem9         43
P          mkqmem10        43
P          mk1mem1          2
P          mk1mem2         22
P          mk1mem3         22
P          mk1mem4         43
P          mk1mem5         43
P          mk1mem6         43
P          mk1mem7         43
P          mk1mem8         43
P          mk1mem9         43
P          mk1mem10        43
            natom           9
            nband1         42
            nband2         42
            nband3         42
            nband4         42
            nband5         42
            nband6         42
            nband7         42
            nband8         42
            nband9         42
            nband10        42
           ndtset          10
            ngfft          54      54      54
          ngfftdg          90      90      90
             nkpt1         10
             nkpt2        128
             nkpt3        128
             nkpt4        256
             nkpt5        256
             nkpt6        256
             nkpt7        256
             nkpt8        256
             nkpt9        256
             nkpt10       256
             nqpt1          0
             nqpt2          1
             nqpt3          1
             nqpt4          1
             nqpt5          1
             nqpt6          1
             nqpt7          1
             nqpt8          1
             nqpt9          1
             nqpt10         1
            nstep         200
             nsym          48
           ntypat           3
              occ1     2.000000  2.000000  2.000000  2.000000  2.000000  2.000000
                       2.000000  2.000000  2.000000  2.000000  2.000000  2.000000
                       2.000000  2.000000  2.000000  2.000000  2.000000  2.000000
                       2.000000  2.000000  2.000000  2.000000  2.000000  2.000000
                       2.000000  2.000000  2.000000  2.000000  2.000000  2.000000
                       2.000000  2.000000  2.000000  2.000000  2.000000  2.000000
                       0.000000  0.000000  0.000000  0.000000  0.000000  0.000000
              occ2     2.000000  2.000000  2.000000  2.000000  2.000000  2.000000
                       2.000000  2.000000  2.000000  2.000000  2.000000  2.000000
                       2.000000  2.000000  2.000000  2.000000  2.000000  2.000000
                       2.000000  2.000000  2.000000  2.000000  2.000000  2.000000
                       2.000000  2.000000  2.000000  2.000000  2.000000  2.000000
                       2.000000  2.000000  2.000000  2.000000  2.000000  2.000000
                       0.000000  0.000000  0.000000  0.000000  0.000000  0.000000
              occ3     2.000000  2.000000  2.000000  2.000000  2.000000  2.000000
                       2.000000  2.000000  2.000000  2.000000  2.000000  2.000000
                       2.000000  2.000000  2.000000  2.000000  2.000000  2.000000
                       2.000000  2.000000  2.000000  2.000000  2.000000  2.000000
                       2.000000  2.000000  2.000000  2.000000  2.000000  2.000000
                       2.000000  2.000000  2.000000  2.000000  2.000000  2.000000
                       0.000000  0.000000  0.000000  0.000000  0.000000  0.000000
              occ4     2.000000  2.000000  2.000000  2.000000  2.000000  2.000000
                       2.000000  2.000000  2.000000  2.000000  2.000000  2.000000
                       2.000000  2.000000  2.000000  2.000000  2.000000  2.000000
                       2.000000  2.000000  2.000000  2.000000  2.000000  2.000000
                       2.000000  2.000000  2.000000  2.000000  2.000000  2.000000
                       2.000000  2.000000  2.000000  2.000000  2.000000  2.000000
                       0.000000  0.000000  0.000000  0.000000  0.000000  0.000000
              occ5     2.000000  2.000000  2.000000  2.000000  2.000000  2.000000
                       2.000000  2.000000  2.000000  2.000000  2.000000  2.000000
                       2.000000  2.000000  2.000000  2.000000  2.000000  2.000000
                       2.000000  2.000000  2.000000  2.000000  2.000000  2.000000
                       2.000000  2.000000  2.000000  2.000000  2.000000  2.000000
                       2.000000  2.000000  2.000000  2.000000  2.000000  2.000000
                       0.000000  0.000000  0.000000  0.000000  0.000000  0.000000
              occ6     2.000000  2.000000  2.000000  2.000000  2.000000  2.000000
                       2.000000  2.000000  2.000000  2.000000  2.000000  2.000000
                       2.000000  2.000000  2.000000  2.000000  2.000000  2.000000
                       2.000000  2.000000  2.000000  2.000000  2.000000  2.000000
                       2.000000  2.000000  2.000000  2.000000  2.000000  2.000000
                       2.000000  2.000000  2.000000  2.000000  2.000000  2.000000
                       0.000000  0.000000  0.000000  0.000000  0.000000  0.000000
              occ7     2.000000  2.000000  2.000000  2.000000  2.000000  2.000000
                       2.000000  2.000000  2.000000  2.000000  2.000000  2.000000
                       2.000000  2.000000  2.000000  2.000000  2.000000  2.000000
                       2.000000  2.000000  2.000000  2.000000  2.000000  2.000000
                       2.000000  2.000000  2.000000  2.000000  2.000000  2.000000
                       2.000000  2.000000  2.000000  2.000000  2.000000  2.000000
                       0.000000  0.000000  0.000000  0.000000  0.000000  0.000000
              occ8     2.000000  2.000000  2.000000  2.000000  2.000000  2.000000
                       2.000000  2.000000  2.000000  2.000000  2.000000  2.000000
                       2.000000  2.000000  2.000000  2.000000  2.000000  2.000000
                       2.000000  2.000000  2.000000  2.000000  2.000000  2.000000
                       2.000000  2.000000  2.000000  2.000000  2.000000  2.000000
                       2.000000  2.000000  2.000000  2.000000  2.000000  2.000000
                       0.000000  0.000000  0.000000  0.000000  0.000000  0.000000
              occ9     2.000000  2.000000  2.000000  2.000000  2.000000  2.000000
                       2.000000  2.000000  2.000000  2.000000  2.000000  2.000000
                       2.000000  2.000000  2.000000  2.000000  2.000000  2.000000
                       2.000000  2.000000  2.000000  2.000000  2.000000  2.000000
                       2.000000  2.000000  2.000000  2.000000  2.000000  2.000000
                       2.000000  2.000000  2.000000  2.000000  2.000000  2.000000
                       0.000000  0.000000  0.000000  0.000000  0.000000  0.000000
              occ10    2.000000  2.000000  2.000000  2.000000  2.000000  2.000000
                       2.000000  2.000000  2.000000  2.000000  2.000000  2.000000
                       2.000000  2.000000  2.000000  2.000000  2.000000  2.000000
                       2.000000  2.000000  2.000000  2.000000  2.000000  2.000000
                       2.000000  2.000000  2.000000  2.000000  2.000000  2.000000
                       2.000000  2.000000  2.000000  2.000000  2.000000  2.000000
                       0.000000  0.000000  0.000000  0.000000  0.000000  0.000000
        optdriver1          0
        optdriver2          1
        optdriver3          1
        optdriver4          1
        optdriver5          1
        optdriver6          1
        optdriver7          1
        optdriver8          1
        optdriver9          1
        optdriver10         1
        pawecutdg      4.00000000E+01 Hartree
         pawxcdev           0
            prtwf1          1
            prtwf2          1
            prtwf3          0
            prtwf4          0
            prtwf5          0
            prtwf6          0
            prtwf7          0
            prtwf8          0
            prtwf9          0
            prtwf10         0
              qpt1     0.00000000E+00  0.00000000E+00  0.00000000E+00
              qpt2     0.00000000E+00  0.00000000E+00  0.00000000E+00
              qpt3     0.00000000E+00  0.00000000E+00  0.00000000E+00
              qpt4     2.50000000E-01  0.00000000E+00  0.00000000E+00
              qpt5     5.00000000E-01  0.00000000E+00  0.00000000E+00
              qpt6     2.50000000E-01  2.50000000E-01  0.00000000E+00
              qpt7     5.00000000E-01  2.50000000E-01  0.00000000E+00
              qpt8    -2.50000000E-01  2.50000000E-01  0.00000000E+00
              qpt9     5.00000000E-01  5.00000000E-01  0.00000000E+00
              qpt10   -2.50000000E-01  5.00000000E-01  2.50000000E-01
          rfatpol           1       9
            rfdir           1       1       1
           rfelfd1          0
           rfelfd2          2
           rfelfd3          3
           rfelfd4          0
           rfelfd5          0
           rfelfd6          0
           rfelfd7          0
           rfelfd8          0
           rfelfd9          0
           rfelfd10         0
           rfphon1          0
           rfphon2          0
           rfphon3          1
           rfphon4          1
           rfphon5          1
           rfphon6          1
           rfphon7          1
           rfphon8          1
           rfphon9          1
           rfphon10         1
            rprim      0.0000000000E+00  6.3639610307E-01  6.3639610307E-01
                       6.3639610307E-01  0.0000000000E+00  6.3639610307E-01
                       6.3639610307E-01  6.3639610307E-01  0.0000000000E+00
           shiftk      5.00000000E-01  5.00000000E-01  5.00000000E-01
          spgroup         225
           symrel      1  0  0   0  1  0   0  0  1      -1  0  0   0 -1  0   0  0 -1
                       0 -1  1   0 -1  0   1 -1  0       0  1 -1   0  1  0  -1  1  0
                      -1  0  0  -1  0  1  -1  1  0       1  0  0   1  0 -1   1 -1  0
                       0  1 -1   1  0 -1   0  0 -1       0 -1  1  -1  0  1   0  0  1
                      -1  0  0  -1  1  0  -1  0  1       1  0  0   1 -1  0   1  0 -1
                       0 -1  1   1 -1  0   0 -1  0       0  1 -1  -1  1  0   0  1  0
                       1  0  0   0  0  1   0  1  0      -1  0  0   0  0 -1   0 -1  0
                       0  1 -1   0  0 -1   1  0 -1       0 -1  1   0  0  1  -1  0  1
                      -1  0  1  -1  1  0  -1  0  0       1  0 -1   1 -1  0   1  0  0
                       0 -1  0   1 -1  0   0 -1  1       0  1  0  -1  1  0   0  1 -1
                       1  0 -1   0  0 -1   0  1 -1      -1  0  1   0  0  1   0 -1  1
                       0  1  0   0  0  1   1  0  0       0 -1  0   0  0 -1  -1  0  0
                       1  0 -1   0  1 -1   0  0 -1      -1  0  1   0 -1  1   0  0  1
                       0 -1  0   0 -1  1   1 -1  0       0  1  0   0  1 -1  -1  1  0
                      -1  0  1  -1  0  0  -1  1  0       1  0 -1   1  0  0   1 -1  0
                       0  1  0   1  0  0   0  0  1       0 -1  0  -1  0  0   0  0 -1
                       0  0 -1   0  1 -1   1  0 -1       0  0  1   0 -1  1  -1  0  1
                       1 -1  0   0 -1  1   0 -1  0      -1  1  0   0  1 -1   0  1  0
                       0  0  1   1  0  0   0  1  0       0  0 -1  -1  0  0   0 -1  0
                      -1  1  0  -1  0  0  -1  0  1       1 -1  0   1  0  0   1  0 -1
                       0  0  1   0  1  0   1  0  0       0  0 -1   0 -1  0  -1  0  0
                       1 -1  0   0 -1  0   0 -1  1      -1  1  0   0  1  0   0  1 -1
                       0  0 -1   1  0 -1   0  1 -1       0  0  1  -1  0  1   0 -1  1
                      -1  1  0  -1  0  1  -1  0  0       1 -1  0   1  0 -1   1  0  0
           tolvrs1     1.00000000E-18
           tolvrs2     0.00000000E+00
           tolvrs3     1.00000000E-08
           tolvrs4     1.00000000E-08
           tolvrs5     1.00000000E-08
           tolvrs6     1.00000000E-08
           tolvrs7     1.00000000E-08
           tolvrs8     1.00000000E-08
           tolvrs9     1.00000000E-08
           tolvrs10    1.00000000E-08
           tolwfr1     0.00000000E+00
           tolwfr2     1.00000000E-20
           tolwfr3     0.00000000E+00
           tolwfr4     0.00000000E+00
           tolwfr5     0.00000000E+00
           tolwfr6     0.00000000E+00
           tolwfr7     0.00000000E+00
           tolwfr8     0.00000000E+00
           tolwfr9     0.00000000E+00
           tolwfr10    0.00000000E+00
            typat      1  1  2  2  2  2  2  2  3
           useylm           1
              wtk1       0.09375    0.09375    0.09375    0.18750    0.09375    0.09375
                         0.09375    0.18750    0.03125    0.03125
              wtk2       0.00781    0.00781    0.00781    0.00781    0.00781    0.00781
                         0.00781    0.00781    0.00781    0.00781    0.00781    0.00781
                         0.00781    0.00781    0.00781    0.00781    0.00781    0.00781
                         0.00781    0.00781    0.00781    0.00781    0.00781    0.00781
                         0.00781    0.00781    0.00781    0.00781    0.00781    0.00781
                         0.00781    0.00781    0.00781    0.00781    0.00781    0.00781
                         0.00781    0.00781    0.00781    0.00781    0.00781    0.00781
                         0.00781    0.00781    0.00781    0.00781    0.00781    0.00781
                         0.00781    0.00781
              wtk3       0.00781    0.00781    0.00781    0.00781    0.00781    0.00781
                         0.00781    0.00781    0.00781    0.00781    0.00781    0.00781
                         0.00781    0.00781    0.00781    0.00781    0.00781    0.00781
                         0.00781    0.00781    0.00781    0.00781    0.00781    0.00781
                         0.00781    0.00781    0.00781    0.00781    0.00781    0.00781
                         0.00781    0.00781    0.00781    0.00781    0.00781    0.00781
                         0.00781    0.00781    0.00781    0.00781    0.00781    0.00781
                         0.00781    0.00781    0.00781    0.00781    0.00781    0.00781
                         0.00781    0.00781
              wtk4       0.00391    0.00391    0.00391    0.00391    0.00391    0.00391
                         0.00391    0.00391    0.00391    0.00391    0.00391    0.00391
                         0.00391    0.00391    0.00391    0.00391    0.00391    0.00391
                         0.00391    0.00391    0.00391    0.00391    0.00391    0.00391
                         0.00391    0.00391    0.00391    0.00391    0.00391    0.00391
                         0.00391    0.00391    0.00391    0.00391    0.00391    0.00391
                         0.00391    0.00391    0.00391    0.00391    0.00391    0.00391
                         0.00391    0.00391    0.00391    0.00391    0.00391    0.00391
                         0.00391    0.00391
              wtk5       0.00391    0.00391    0.00391    0.00391    0.00391    0.00391
                         0.00391    0.00391    0.00391    0.00391    0.00391    0.00391
                         0.00391    0.00391    0.00391    0.00391    0.00391    0.00391
                         0.00391    0.00391    0.00391    0.00391    0.00391    0.00391
                         0.00391    0.00391    0.00391    0.00391    0.00391    0.00391
                         0.00391    0.00391    0.00391    0.00391    0.00391    0.00391
                         0.00391    0.00391    0.00391    0.00391    0.00391    0.00391
                         0.00391    0.00391    0.00391    0.00391    0.00391    0.00391
                         0.00391    0.00391
              wtk6       0.00391    0.00391    0.00391    0.00391    0.00391    0.00391
                         0.00391    0.00391    0.00391    0.00391    0.00391    0.00391
                         0.00391    0.00391    0.00391    0.00391    0.00391    0.00391
                         0.00391    0.00391    0.00391    0.00391    0.00391    0.00391
                         0.00391    0.00391    0.00391    0.00391    0.00391    0.00391
                         0.00391    0.00391    0.00391    0.00391    0.00391    0.00391
                         0.00391    0.00391    0.00391    0.00391    0.00391    0.00391
                         0.00391    0.00391    0.00391    0.00391    0.00391    0.00391
                         0.00391    0.00391
              wtk7       0.00391    0.00391    0.00391    0.00391    0.00391    0.00391
                         0.00391    0.00391    0.00391    0.00391    0.00391    0.00391
                         0.00391    0.00391    0.00391    0.00391    0.00391    0.00391
                         0.00391    0.00391    0.00391    0.00391    0.00391    0.00391
                         0.00391    0.00391    0.00391    0.00391    0.00391    0.00391
                         0.00391    0.00391    0.00391    0.00391    0.00391    0.00391
                         0.00391    0.00391    0.00391    0.00391    0.00391    0.00391
                         0.00391    0.00391    0.00391    0.00391    0.00391    0.00391
                         0.00391    0.00391
              wtk8       0.00391    0.00391    0.00391    0.00391    0.00391    0.00391
                         0.00391    0.00391    0.00391    0.00391    0.00391    0.00391
                         0.00391    0.00391    0.00391    0.00391    0.00391    0.00391
                         0.00391    0.00391    0.00391    0.00391    0.00391    0.00391
                         0.00391    0.00391    0.00391    0.00391    0.00391    0.00391
                         0.00391    0.00391    0.00391    0.00391    0.00391    0.00391
                         0.00391    0.00391    0.00391    0.00391    0.00391    0.00391
                         0.00391    0.00391    0.00391    0.00391    0.00391    0.00391
                         0.00391    0.00391
              wtk9       0.00391    0.00391    0.00391    0.00391    0.00391    0.00391
                         0.00391    0.00391    0.00391    0.00391    0.00391    0.00391
                         0.00391    0.00391    0.00391    0.00391    0.00391    0.00391
                         0.00391    0.00391    0.00391    0.00391    0.00391    0.00391
                         0.00391    0.00391    0.00391    0.00391    0.00391    0.00391
                         0.00391    0.00391    0.00391    0.00391    0.00391    0.00391
                         0.00391    0.00391    0.00391    0.00391    0.00391    0.00391
                         0.00391    0.00391    0.00391    0.00391    0.00391    0.00391
                         0.00391    0.00391
              wtk10      0.00391    0.00391    0.00391    0.00391    0.00391    0.00391
                         0.00391    0.00391    0.00391    0.00391    0.00391    0.00391
                         0.00391    0.00391    0.00391    0.00391    0.00391    0.00391
                         0.00391    0.00391    0.00391    0.00391    0.00391    0.00391
                         0.00391    0.00391    0.00391    0.00391    0.00391    0.00391
                         0.00391    0.00391    0.00391    0.00391    0.00391    0.00391
                         0.00391    0.00391    0.00391    0.00391    0.00391    0.00391
                         0.00391    0.00391    0.00391    0.00391    0.00391    0.00391
                         0.00391    0.00391
                       outvars : Printing only first  50 k-points.
           xangst      2.7036863642E+00  2.7036863642E+00  2.7036863642E+00
                       8.1110590925E+00  8.1110590925E+00  8.1110590925E+00
                       5.4073727283E+00  5.4073727283E+00  2.7936542017E+00
                       5.4073727283E+00  5.4073727283E+00  8.0210912550E+00
                       8.0210912550E+00  5.4073727283E+00  5.4073727283E+00
                       5.4073727283E+00  8.0210912550E+00  5.4073727283E+00
                       5.4073727283E+00  2.7936542017E+00  5.4073727283E+00
                       2.7936542017E+00  5.4073727283E+00  5.4073727283E+00
                      -1.4840549561E-18  3.1546932057E-19  1.7918220675E-18
            xcart      5.1092267775E+00  5.1092267775E+00  5.1092267775E+00
                       1.5327680333E+01  1.5327680333E+01  1.5327680333E+01
                       1.0218453555E+01  1.0218453555E+01  5.2792413511E+00
                       1.0218453555E+01  1.0218453555E+01  1.5157665759E+01
                       1.5157665759E+01  1.0218453555E+01  1.0218453555E+01
                       1.0218453555E+01  1.5157665759E+01  1.0218453555E+01
                       1.0218453555E+01  5.2792413511E+00  1.0218453555E+01
                       5.2792413511E+00  1.0218453555E+01  1.0218453555E+01
                      -2.8044574331E-18  5.9615061920E-19  3.3860529864E-18
             xred      2.5000000000E-01  2.5000000000E-01  2.5000000000E-01
                       7.5000000000E-01  7.5000000000E-01  7.5000000000E-01
                       2.5831899723E-01  2.5831899723E-01  7.4168100277E-01
                       7.4168100277E-01  7.4168100277E-01  2.5831899723E-01
                       2.5831899723E-01  7.4168100277E-01  7.4168100277E-01
                       7.4168100277E-01  2.5831899723E-01  7.4168100277E-01
                       2.5831899723E-01  7.4168100277E-01  2.5831899723E-01
                       7.4168100277E-01  2.5831899723E-01  2.5831899723E-01
                       3.3207867522E-19 -7.1219514067E-22 -2.7373808425E-19
            znucl       55.00000   53.00000   40.00000

================================================================================

 chkinp: Checking input parameters for consistency, jdtset=   1.

 chkinp: Checking input parameters for consistency, jdtset=   2.

 chkinp: Checking input parameters for consistency, jdtset=   3.

 chkinp: Checking input parameters for consistency, jdtset=   4.

 chkinp: Checking input parameters for consistency, jdtset=   5.

 chkinp: Checking input parameters for consistency, jdtset=   6.

 chkinp: Checking input parameters for consistency, jdtset=   7.

 chkinp: Checking input parameters for consistency, jdtset=   8.

 chkinp: Checking input parameters for consistency, jdtset=   9.

 chkinp: Checking input parameters for consistency, jdtset=  10.

================================================================================
== DATASET  1 ==================================================================
-   mpi_nproc: 6, omp_nthreads: -1 (-1 if OMP is not activated)


--- !DatasetInfo
iteration_state: {dtset: 1, }
dimensions: {natom: 9, nkpt: 10, mband: 42, nsppol: 1, nspinor: 1, nspden: 1, mpw: 6540, }
cutoff_energies: {ecut:  16.0, pawecutdg:  40.0, }
electrons: {nelect:   7.20000000E+01, charge:   0.00000000E+00, occopt:   1.00000000E+00, tsmear:   1.00000000E-02, }
meta: {optdriver: 0, ionmov: 0, optcell: 0, iscf: 7, paral_kgb: 0, }
...

 Real(R)+Recip(G) space primitive vectors, cartesian coordinates (Bohr,Bohr^-1):
 R(1)=  0.0000000 10.2184536 10.2184536  G(1)= -0.0489311  0.0489311  0.0489311
 R(2)= 10.2184536  0.0000000 10.2184536  G(2)=  0.0489311 -0.0489311  0.0489311
 R(3)= 10.2184536 10.2184536  0.0000000  G(3)=  0.0489311  0.0489311 -0.0489311
 Unit cell volume ucvol=  2.1339563E+03 bohr^3
 Angles (23,13,12)=  6.00000000E+01  6.00000000E+01  6.00000000E+01 degrees

 Coarse grid specifications (used for wave-functions):

 getcut: wavevector=  0.0000  0.0000  0.0000  ngfft=  54  54  54
         ecut(hartree)=     16.000   => boxcut(ratio)=   2.07595

 Fine grid specifications (used for densities):

 getcut: wavevector=  0.0000  0.0000  0.0000  ngfft=  90  90  90
         ecut(hartree)=     40.000   => boxcut(ratio)=   2.18777

--- Pseudopotential description ------------------------------------------------
- pspini: atom type   1  psp file is ../../../Psps_for_tests/ATOMICDATA/Cs.GGA_PBE-JTH.xml
- pspatm: opening atomic psp file    ../../../Psps_for_tests/ATOMICDATA/Cs.GGA_PBE-JTH.xml
- pspatm : Reading pseudopotential header in XML form from ../../../Psps_for_tests/ATOMICDATA/Cs.GGA_PBE-JTH.xml
 Pseudopotential format is: paw10
 basis_size (lnmax)=  6 (lmn_size= 18), orbitals=   0   0   1   1   2   2
 Spheres core radius: rc_sph= 2.20660278
 1 radial meshes are used:
  - mesh 1: r(i)=AA*[exp(BB*(i-1))-1], size=1500 , AA= 0.15922E-03 BB= 0.87573E-02
 Shapefunction is SIN type: shapef(r)=[sin(pi*r/rshp)/(pi*r/rshp)]**2
 Radius for shape functions =  2.00394208
 mmax= 1500
 Radial grid used for partial waves is grid 1
 Radial grid used for projectors is grid 1
 Radial grid used for (t)core density is grid 1
 Radial grid used for Vloc is grid 1
 Radial grid used for pseudo valence density is grid 1
 Mesh size for Vloc has been set to 1341 to avoid numerical noise.
 Compensation charge density is not taken into account in XC energy/potential
 pspatm: atomic psp has been read  and splines computed

- pspini: atom type   2  psp file is ../../../Psps_for_tests/ATOMICDATA/I.GGA_PBE-JTH.xml
- pspatm: opening atomic psp file    ../../../Psps_for_tests/ATOMICDATA/I.GGA_PBE-JTH.xml
- pspatm : Reading pseudopotential header in XML form from ../../../Psps_for_tests/ATOMICDATA/I.GGA_PBE-JTH.xml
 Pseudopotential format is: paw10
 basis_size (lnmax)=  4 (lmn_size=  8), orbitals=   0   0   1   1
 Spheres core radius: rc_sph= 2.30022271
 1 radial meshes are used:
  - mesh 1: r(i)=AA*[exp(BB*(i-1))-1], size=2000 , AA= 0.12610E-03 BB= 0.66836E-02
 Shapefunction is SIN type: shapef(r)=[sin(pi*r/rshp)/(pi*r/rshp)]**2
 Radius for shape functions =  2.10879093
 mmax= 2000
 Radial grid used for partial waves is grid 1
 Radial grid used for projectors is grid 1
 Radial grid used for (t)core density is grid 1
 Radial grid used for Vloc is grid 1
 Radial grid used for pseudo valence density is grid 1
 Mesh size for Vloc has been set to 1792 to avoid numerical noise.
 Compensation charge density is not taken into account in XC energy/potential
 pspatm: atomic psp has been read  and splines computed

- pspini: atom type   3  psp file is ../../../Psps_for_tests/ATOMICDATA/Zr.GGA_PBE-JTH.xml
- pspatm: opening atomic psp file    ../../../Psps_for_tests/ATOMICDATA/Zr.GGA_PBE-JTH.xml
- pspatm : Reading pseudopotential header in XML form from ../../../Psps_for_tests/ATOMICDATA/Zr.GGA_PBE-JTH.xml
 Pseudopotential format is: paw10
 basis_size (lnmax)=  6 (lmn_size= 18), orbitals=   0   0   1   1   2   2
 Spheres core radius: rc_sph= 2.21000000
 1 radial meshes are used:
  - mesh 1: r(i)=AA*[exp(BB*(i-1))-1], size= 941 , AA= 0.35256E-03 BB= 0.14102E-01
 Shapefunction is BESSEL type: shapef(r,l)=aa(1,l)*jl(q(1,l)*r)+aa(2,l)*jl(q(2,l)*r)
 Radius for shape functions =  2.21000000
 mmax=  941
 Radial grid used for partial waves is grid 1
 Radial grid used for projectors is grid 1
 Radial grid used for (t)core density is grid 1
 Radial grid used for Vloc is grid 1
 Radial grid used for pseudo valence density is grid 1
 Mesh size for Vloc has been set to  777 to avoid numerical noise.
 Compensation charge density is not taken into account in XC energy/potential
 pspatm: atomic psp has been read  and splines computed

   4.46697182E+04                                ecore*ucvol(ha*bohr**3)
--------------------------------------------------------------------------------

_setup2: Arith. and geom. avg. npw (full set) are    6522.469    6522.459

================================================================================

--- !BeginCycle
iteration_state: {dtset: 1, }
solver: {iscf: 7, nstep: 200, nline: 4, wfoptalg: 10, }
tolerances: {tolvrs: 1.00E-18, }
...

     iter   Etot(hartree)      deltaE(h)  residm     vres2
 ETOT  1  -158.33145744199    -1.583E+02 2.062E-01 2.149E+03
 ETOT  2  -158.74007079517    -4.086E-01 8.350E-03 6.849E+02
 ETOT  3  -158.76394918594    -2.388E-02 2.212E-03 1.543E+01
 ETOT  4  -158.76476778010    -8.186E-04 1.054E-03 5.843E+00
 ETOT  5  -158.76489578918    -1.280E-04 4.907E-04 7.664E-01
 ETOT  6  -158.76488185779     1.393E-05 5.859E-04 9.793E-01
 ETOT  7  -158.76492754315    -4.569E-05 2.781E-04 2.588E-02
 ETOT  8  -158.76492937250    -1.829E-06 1.205E-04 2.542E-03
 ETOT  9  -158.76492950628    -1.338E-07 1.335E-04 3.734E-04
 ETOT 10  -158.76492953327    -2.699E-08 5.326E-05 6.504E-05
 ETOT 11  -158.76492953642    -3.149E-09 8.883E-05 2.750E-06
 ETOT 12  -158.76492953641     6.906E-12 4.486E-05 2.418E-06
 ETOT 13  -158.76492953654    -1.250E-10 1.158E-04 1.653E-07
 ETOT 14  -158.76492953655    -5.770E-12 4.992E-05 5.905E-09
 ETOT 15  -158.76492953654     6.992E-12 1.156E-04 2.885E-10
 ETOT 16  -158.76492953655    -8.839E-12 4.445E-05 1.848E-10
 ETOT 17  -158.76492953655    -6.821E-13 9.199E-05 1.681E-12
 ETOT 18  -158.76492953655    -4.036E-12 3.237E-05 4.345E-13
 ETOT 19  -158.76492953654     9.521E-12 6.184E-05 6.532E-14
 ETOT 20  -158.76492953654     1.904E-12 2.038E-05 5.163E-14
 ETOT 21  -158.76492953655    -5.201E-12 3.717E-05 3.249E-15
 ETOT 22  -158.76492953655    -4.320E-12 1.170E-05 4.527E-16
 ETOT 23  -158.76492953656    -7.702E-12 2.087E-05 1.405E-17
 ETOT 24  -158.76492953654     1.364E-11 6.374E-06 1.424E-17
 ETOT 25  -158.76492953655    -8.953E-12 1.126E-05 8.791E-19

 At SCF step   25       vres2   =  8.79E-19 < tolvrs=  1.00E-18 =>converged.

 Cartesian components of stress tensor (hartree/bohr^3)
  sigma(1 1)= -2.24532159E-04  sigma(3 2)=  0.00000000E+00
  sigma(2 2)= -2.24532159E-04  sigma(3 1)=  0.00000000E+00
  sigma(3 3)= -2.24532159E-04  sigma(2 1)=  0.00000000E+00


--- !ResultsGS
iteration_state: {dtset: 1, }
comment   : Summary of ground state results
lattice_vectors:
- [  0.0000000,  10.2184536,  10.2184536, ]
- [ 10.2184536,   0.0000000,  10.2184536, ]
- [ 10.2184536,  10.2184536,   0.0000000, ]
lattice_lengths: [  14.45108,   14.45108,   14.45108, ]
lattice_angles: [ 60.000,  60.000,  60.000, ] # degrees, (23, 13, 12)
lattice_volume:   2.1339563E+03
convergence: {deltae: -8.953E-12, res2:  8.791E-19, residm:  1.126E-05, diffor: null, }
etotal    :  -1.58764930E+02
entropy   :   0.00000000E+00
fermie    :  -7.13857488E-02
cartesian_stress_tensor: # hartree/bohr^3
- [ -2.24532159E-04,   0.00000000E+00,   0.00000000E+00, ]
- [  0.00000000E+00,  -2.24532159E-04,   0.00000000E+00, ]
- [  0.00000000E+00,   0.00000000E+00,  -2.24532159E-04, ]
pressure_GPa:   6.6060E+00
xred      :
- [  2.5000E-01,   2.5000E-01,   2.5000E-01, Cs]
- [  7.5000E-01,   7.5000E-01,   7.5000E-01, Cs]
- [  2.5832E-01,   2.5832E-01,   7.4168E-01,  I]
- [  7.4168E-01,   7.4168E-01,   2.5832E-01,  I]
- [  2.5832E-01,   7.4168E-01,   7.4168E-01,  I]
- [  7.4168E-01,   2.5832E-01,   7.4168E-01,  I]
- [  2.5832E-01,   7.4168E-01,   2.5832E-01,  I]
- [  7.4168E-01,   2.5832E-01,   2.5832E-01,  I]
- [  3.3208E-19,  -7.1220E-22,  -2.7374E-19, Zr]
cartesian_forces: # hartree/bohr
- [ -2.94113932E-24,  -8.90754670E-24,   7.54632975E-24, ]
- [ -2.94108131E-24,  -8.90748869E-24,   7.54625246E-24, ]
- [ -9.44609081E-24,  -2.40251616E-24,  -2.07785512E-07, ]
- [  3.56391757E-24,  -1.54125245E-23,   2.07785512E-07, ]
- [  2.07785512E-07,   3.75270347E-23,  -3.88883307E-23, ]
- [  2.27703486E-23,   2.07785512E-07,  -1.81652109E-23, ]
- [ -7.92940211E-24,  -2.07785512E-07,   1.25345398E-23, ]
- [ -2.07785512E-07,  -8.14917600E-24,   6.78788000E-24, ]
- [ -2.94108662E-24,  -8.90752035E-24,   7.54622435E-24, ]
force_length_stats: {min:   1.20390714E-23, max:   2.07785512E-07, mean:   1.38523675E-07, }
...

 Integrated electronic density in atomic spheres:
 ------------------------------------------------
 Atom  Sphere_radius  Integrated_density
    1        2.20660          5.38641347
    2        2.20660          5.38641347
    3        2.30022          4.05585398
[...]
           strten6     0.0000000000E+00  0.0000000000E+00  0.0000000000E+00
                       0.0000000000E+00  0.0000000000E+00  0.0000000000E+00
           strten7     0.0000000000E+00  0.0000000000E+00  0.0000000000E+00
                       0.0000000000E+00  0.0000000000E+00  0.0000000000E+00
           strten8     0.0000000000E+00  0.0000000000E+00  0.0000000000E+00
                       0.0000000000E+00  0.0000000000E+00  0.0000000000E+00
           strten9     0.0000000000E+00  0.0000000000E+00  0.0000000000E+00
                       0.0000000000E+00  0.0000000000E+00  0.0000000000E+00
           strten10    0.0000000000E+00  0.0000000000E+00  0.0000000000E+00
                       0.0000000000E+00  0.0000000000E+00  0.0000000000E+00
           symrel      1  0  0   0  1  0   0  0  1      -1  0  0   0 -1  0   0  0 -1
                       0 -1  1   0 -1  0   1 -1  0       0  1 -1   0  1  0  -1  1  0
                      -1  0  0  -1  0  1  -1  1  0       1  0  0   1  0 -1   1 -1  0
                       0  1 -1   1  0 -1   0  0 -1       0 -1  1  -1  0  1   0  0  1
                      -1  0  0  -1  1  0  -1  0  1       1  0  0   1 -1  0   1  0 -1
                       0 -1  1   1 -1  0   0 -1  0       0  1 -1  -1  1  0   0  1  0
                       1  0  0   0  0  1   0  1  0      -1  0  0   0  0 -1   0 -1  0
                       0  1 -1   0  0 -1   1  0 -1       0 -1  1   0  0  1  -1  0  1
                      -1  0  1  -1  1  0  -1  0  0       1  0 -1   1 -1  0   1  0  0
                       0 -1  0   1 -1  0   0 -1  1       0  1  0  -1  1  0   0  1 -1
                       1  0 -1   0  0 -1   0  1 -1      -1  0  1   0  0  1   0 -1  1
                       0  1  0   0  0  1   1  0  0       0 -1  0   0  0 -1  -1  0  0
                       1  0 -1   0  1 -1   0  0 -1      -1  0  1   0 -1  1   0  0  1
                       0 -1  0   0 -1  1   1 -1  0       0  1  0   0  1 -1  -1  1  0
                      -1  0  1  -1  0  0  -1  1  0       1  0 -1   1  0  0   1 -1  0
                       0  1  0   1  0  0   0  0  1       0 -1  0  -1  0  0   0  0 -1
                       0  0 -1   0  1 -1   1  0 -1       0  0  1   0 -1  1  -1  0  1
                       1 -1  0   0 -1  1   0 -1  0      -1  1  0   0  1 -1   0  1  0
                       0  0  1   1  0  0   0  1  0       0  0 -1  -1  0  0   0 -1  0
                      -1  1  0  -1  0  0  -1  0  1       1 -1  0   1  0  0   1  0 -1
                       0  0  1   0  1  0   1  0  0       0  0 -1   0 -1  0  -1  0  0
                       1 -1  0   0 -1  0   0 -1  1      -1  1  0   0  1  0   0  1 -1
                       0  0 -1   1  0 -1   0  1 -1       0  0  1  -1  0  1   0 -1  1
                      -1  1  0  -1  0  1  -1  0  0       1 -1  0   1  0 -1   1  0  0
           tolvrs1     1.00000000E-18
           tolvrs2     0.00000000E+00
           tolvrs3     1.00000000E-08
           tolvrs4     1.00000000E-08
           tolvrs5     1.00000000E-08
           tolvrs6     1.00000000E-08
           tolvrs7     1.00000000E-08
           tolvrs8     1.00000000E-08
           tolvrs9     1.00000000E-08
           tolvrs10    1.00000000E-08
           tolwfr1     0.00000000E+00
           tolwfr2     1.00000000E-20
           tolwfr3     0.00000000E+00
           tolwfr4     0.00000000E+00
           tolwfr5     0.00000000E+00
           tolwfr6     0.00000000E+00
           tolwfr7     0.00000000E+00
           tolwfr8     0.00000000E+00
           tolwfr9     0.00000000E+00
           tolwfr10    0.00000000E+00
            typat      1  1  2  2  2  2  2  2  3
           useylm           1
              wtk1       0.09375    0.09375    0.09375    0.18750    0.09375    0.09375
                         0.09375    0.18750    0.03125    0.03125
              wtk2       0.00781    0.00781    0.00781    0.00781    0.00781    0.00781
                         0.00781    0.00781    0.00781    0.00781    0.00781    0.00781
                         0.00781    0.00781    0.00781    0.00781    0.00781    0.00781
                         0.00781    0.00781    0.00781    0.00781    0.00781    0.00781
                         0.00781    0.00781    0.00781    0.00781    0.00781    0.00781
                         0.00781    0.00781    0.00781    0.00781    0.00781    0.00781
                         0.00781    0.00781    0.00781    0.00781    0.00781    0.00781
                         0.00781    0.00781    0.00781    0.00781    0.00781    0.00781
                         0.00781    0.00781
              wtk3       0.00781    0.00781    0.00781    0.00781    0.00781    0.00781
                         0.00781    0.00781    0.00781    0.00781    0.00781    0.00781
                         0.00781    0.00781    0.00781    0.00781    0.00781    0.00781
                         0.00781    0.00781    0.00781    0.00781    0.00781    0.00781
                         0.00781    0.00781    0.00781    0.00781    0.00781    0.00781
                         0.00781    0.00781    0.00781    0.00781    0.00781    0.00781
                         0.00781    0.00781    0.00781    0.00781    0.00781    0.00781
                         0.00781    0.00781    0.00781    0.00781    0.00781    0.00781
                         0.00781    0.00781
              wtk4       0.00391    0.00391    0.00391    0.00391    0.00391    0.00391
                         0.00391    0.00391    0.00391    0.00391    0.00391    0.00391
                         0.00391    0.00391    0.00391    0.00391    0.00391    0.00391
                         0.00391    0.00391    0.00391    0.00391    0.00391    0.00391
                         0.00391    0.00391    0.00391    0.00391    0.00391    0.00391
                         0.00391    0.00391    0.00391    0.00391    0.00391    0.00391
                         0.00391    0.00391    0.00391    0.00391    0.00391    0.00391
                         0.00391    0.00391    0.00391    0.00391    0.00391    0.00391
                         0.00391    0.00391
              wtk5       0.00391    0.00391    0.00391    0.00391    0.00391    0.00391
                         0.00391    0.00391    0.00391    0.00391    0.00391    0.00391
                         0.00391    0.00391    0.00391    0.00391    0.00391    0.00391
                         0.00391    0.00391    0.00391    0.00391    0.00391    0.00391
                         0.00391    0.00391    0.00391    0.00391    0.00391    0.00391
                         0.00391    0.00391    0.00391    0.00391    0.00391    0.00391
                         0.00391    0.00391    0.00391    0.00391    0.00391    0.00391
                         0.00391    0.00391    0.00391    0.00391    0.00391    0.00391
                         0.00391    0.00391
              wtk6       0.00391    0.00391    0.00391    0.00391    0.00391    0.00391
                         0.00391    0.00391    0.00391    0.00391    0.00391    0.00391
                         0.00391    0.00391    0.00391    0.00391    0.00391    0.00391
                         0.00391    0.00391    0.00391    0.00391    0.00391    0.00391
                         0.00391    0.00391    0.00391    0.00391    0.00391    0.00391
                         0.00391    0.00391    0.00391    0.00391    0.00391    0.00391
                         0.00391    0.00391    0.00391    0.00391    0.00391    0.00391
                         0.00391    0.00391    0.00391    0.00391    0.00391    0.00391
                         0.00391    0.00391
              wtk7       0.00391    0.00391    0.00391    0.00391    0.00391    0.00391
                         0.00391    0.00391    0.00391    0.00391    0.00391    0.00391
                         0.00391    0.00391    0.00391    0.00391    0.00391    0.00391
                         0.00391    0.00391    0.00391    0.00391    0.00391    0.00391
                         0.00391    0.00391    0.00391    0.00391    0.00391    0.00391
                         0.00391    0.00391    0.00391    0.00391    0.00391    0.00391
                         0.00391    0.00391    0.00391    0.00391    0.00391    0.00391
                         0.00391    0.00391    0.00391    0.00391    0.00391    0.00391
                         0.00391    0.00391
              wtk8       0.00391    0.00391    0.00391    0.00391    0.00391    0.00391
                         0.00391    0.00391    0.00391    0.00391    0.00391    0.00391
                         0.00391    0.00391    0.00391    0.00391    0.00391    0.00391
                         0.00391    0.00391    0.00391    0.00391    0.00391    0.00391
                         0.00391    0.00391    0.00391    0.00391    0.00391    0.00391
                         0.00391    0.00391    0.00391    0.00391    0.00391    0.00391
                         0.00391    0.00391    0.00391    0.00391    0.00391    0.00391
                         0.00391    0.00391    0.00391    0.00391    0.00391    0.00391
                         0.00391    0.00391
              wtk9       0.00391    0.00391    0.00391    0.00391    0.00391    0.00391
                         0.00391    0.00391    0.00391    0.00391    0.00391    0.00391
                         0.00391    0.00391    0.00391    0.00391    0.00391    0.00391
                         0.00391    0.00391    0.00391    0.00391    0.00391    0.00391
                         0.00391    0.00391    0.00391    0.00391    0.00391    0.00391
                         0.00391    0.00391    0.00391    0.00391    0.00391    0.00391
                         0.00391    0.00391    0.00391    0.00391    0.00391    0.00391
                         0.00391    0.00391    0.00391    0.00391    0.00391    0.00391
                         0.00391    0.00391
              wtk10      0.00391    0.00391    0.00391    0.00391    0.00391    0.00391
                         0.00391    0.00391    0.00391    0.00391    0.00391    0.00391
                         0.00391    0.00391    0.00391    0.00391    0.00391    0.00391
                         0.00391    0.00391    0.00391    0.00391    0.00391    0.00391
                         0.00391    0.00391    0.00391    0.00391    0.00391    0.00391
                         0.00391    0.00391    0.00391    0.00391    0.00391    0.00391
                         0.00391    0.00391    0.00391    0.00391    0.00391    0.00391
                         0.00391    0.00391    0.00391    0.00391    0.00391    0.00391
                         0.00391    0.00391
                       outvars : Printing only first  50 k-points.
           xangst      2.7036863642E+00  2.7036863642E+00  2.7036863642E+00
                       8.1110590925E+00  8.1110590925E+00  8.1110590925E+00
                       5.4073727283E+00  5.4073727283E+00  2.7936542017E+00
                       5.4073727283E+00  5.4073727283E+00  8.0210912550E+00
                       8.0210912550E+00  5.4073727283E+00  5.4073727283E+00
                       5.4073727283E+00  8.0210912550E+00  5.4073727283E+00
                       5.4073727283E+00  2.7936542017E+00  5.4073727283E+00
                       2.7936542017E+00  5.4073727283E+00  5.4073727283E+00
                      -1.4840549561E-18  3.1546932057E-19  1.7918220675E-18
            xcart      5.1092267775E+00  5.1092267775E+00  5.1092267775E+00
                       1.5327680333E+01  1.5327680333E+01  1.5327680333E+01
                       1.0218453555E+01  1.0218453555E+01  5.2792413511E+00
                       1.0218453555E+01  1.0218453555E+01  1.5157665759E+01
                       1.5157665759E+01  1.0218453555E+01  1.0218453555E+01
                       1.0218453555E+01  1.5157665759E+01  1.0218453555E+01
                       1.0218453555E+01  5.2792413511E+00  1.0218453555E+01
                       5.2792413511E+00  1.0218453555E+01  1.0218453555E+01
                      -2.8044574331E-18  5.9615061920E-19  3.3860529864E-18
             xred      2.5000000000E-01  2.5000000000E-01  2.5000000000E-01
                       7.5000000000E-01  7.5000000000E-01  7.5000000000E-01
                       2.5831899723E-01  2.5831899723E-01  7.4168100277E-01
                       7.4168100277E-01  7.4168100277E-01  2.5831899723E-01
                       2.5831899723E-01  7.4168100277E-01  7.4168100277E-01
                       7.4168100277E-01  2.5831899723E-01  7.4168100277E-01
                       2.5831899723E-01  7.4168100277E-01  2.5831899723E-01
                       7.4168100277E-01  2.5831899723E-01  2.5831899723E-01
                       3.3207867522E-19 -7.1219514067E-22 -2.7373808425E-19
            znucl       55.00000   53.00000   40.00000

================================================================================


- Timing analysis has been suppressed with timopt=0



================================================================================

 Suggested references for the acknowledgment of ABINIT usage.

 The users of ABINIT have little formal obligations with respect to the ABINIT group
 (those specified in the GNU General Public License, http://www.gnu.org/copyleft/gpl.txt).
 However, it is common practice in the scientific literature,
 to acknowledge the efforts of people that have made the research possible.
 In this spirit, please find below suggested citations of work written by ABINIT developers,
 corresponding to implementations inside of ABINIT that you have used in the present run.
 Note also that it will be of great value to readers of publications presenting these results,
 to read papers enabling them to understand the theoretical formalism and details
 of the ABINIT implementation.
 For information on why they are suggested, see also https://docs.abinit.org/theory/acknowledgments.
-
- [1] Projector augmented-wave formulation of response to strain and electric-field perturbation 
- within density functional perturbation theory 
- A. Martin, M. Torrent, and R. Caracas. Phys. Rev. B 99, 094112 (2019)
- Comment: in case Elastic constants, Born Effective charges, piezoelectric tensor 
- are computed within the Projector Augmented-Wave (PAW) approach. 
- Strong suggestion to cite this paper in your publications.
- DOI and bibtex: see https://docs.abinit.org/theory/bibliography/#martin2019
-
- [2] Projector augmented-wave approach to density-functional perturbation theory.
- C. Audouze, F. Jollet, M. Torrent and X. Gonze, Phys. Rev. B 73, 235101 (2006).
- Comparison between projector augmented-wave and ultrasoft pseudopotential formalisms
- at the density-functional perturbation theory level.
- C. Audouze, F. Jollet, M. Torrent and X. Gonze, Phys. Rev. B 78, 035105 (2008).
- Comment: to be cited in case the computation of response function with PAW, i.e. (rfphon=1 or rfelfd=1) and usepaw=1.
- Strong suggestion to cite these papers.
- DOI and bibtex: see https://docs.abinit.org/theory/bibliography/#audouze2006,
- and https://docs.abinit.org/theory/bibliography/#audouze2008
-
- [3] Implementation of the Projector Augmented-Wave Method in the ABINIT code.
- M. Torrent, F. Jollet, F. Bottin, G. Zerah, and X. Gonze Comput. Mat. Science 42, 337, (2008).
- Comment: PAW calculations. Strong suggestion to cite this paper.
- DOI and bibtex: see https://docs.abinit.org/theory/bibliography/#torrent2008
-
- [4] Libxc: A library of exchange and correlation functionals for density functional theory.
- M.A.L. Marques, M.J.T. Oliveira, T. Burnus, Computer Physics Communications 183, 2227 (2012).
- Comment: to be cited when LibXC is used (negative value of ixc)
- Strong suggestion to cite this paper.
- DOI and bibtex: see https://docs.abinit.org/theory/bibliography/#marques2012
-
- [5] The Abinit project: Impact, environment and recent developments.
- Computer Phys. Comm. 248, 107042 (2020).
- X.Gonze, B. Amadon, G. Antonius, F.Arnardi, L.Baguet, J.-M.Beuken,
- J.Bieder, F.Bottin, J.Bouchet, E.Bousquet, N.Brouwer, F.Bruneval,
- G.Brunin, T.Cavignac, J.-B. Charraud, Wei Chen, M.Cote, S.Cottenier,
- J.Denier, G.Geneste, Ph.Ghosez, M.Giantomassi, Y.Gillet, O.Gingras,
- D.R.Hamann, G.Hautier, Xu He, N.Helbig, N.Holzwarth, Y.Jia, F.Jollet,
- W.Lafargue-Dit-Hauret, K.Lejaeghere, M.A.L.Marques, A.Martin, C.Martins,
- H.P.C. Miranda, F.Naccarato, K. Persson, G.Petretto, V.Planes, Y.Pouillon,
- S.Prokhorenko, F.Ricci, G.-M.Rignanese, A.H.Romero, M.M.Schmitt, M.Torrent,
- M.J.van Setten, B.Van Troeye, M.J.Verstraete, G.Zerah and J.W.Zwanzig
- Comment: the fifth generic paper describing the ABINIT project.
- Note that a version of this paper, that is not formatted for Computer Phys. Comm. 
- is available at https://www.abinit.org/sites/default/files/ABINIT20.pdf .
- The licence allows the authors to put it on the Web.
- DOI and bibtex: see https://docs.abinit.org/theory/bibliography/#gonze2020
-
- [6] First-principles responses of solids to atomic displacements and homogeneous electric fields:,
- implementation of a conjugate-gradient algorithm. X. Gonze, Phys. Rev. B55, 10337 (1997).
- Comment: Non-vanishing rfphon and/or rfelfd, in the norm-conserving case.
- DOI and bibtex: see https://docs.abinit.org/theory/bibliography/#gonze1997
-
- [7] Dynamical matrices, Born effective charges, dielectric permittivity tensors, and ,
- interatomic force constants from density-functional perturbation theory,
- X. Gonze and C. Lee, Phys. Rev. B55, 10355 (1997).
- Comment: Non-vanishing rfphon and/or rfelfd, in the norm-conserving case.
- DOI and bibtex: see https://docs.abinit.org/theory/bibliography/#gonze1997a
-
- [8] ABINIT: Overview, and focus on selected capabilities
- J. Chem. Phys. 152, 124102 (2020).
- A. Romero, D.C. Allan, B. Amadon, G. Antonius, T. Applencourt, L.Baguet,
- J.Bieder, F.Bottin, J.Bouchet, E.Bousquet, F.Bruneval,
- G.Brunin, D.Caliste, M.Cote,
- J.Denier, C. Dreyer, Ph.Ghosez, M.Giantomassi, Y.Gillet, O.Gingras,
- D.R.Hamann, G.Hautier, F.Jollet, G. Jomard,
- A.Martin, 
- H.P.C. Miranda, F.Naccarato, G.Petretto, N.A. Pike, V.Planes,
- S.Prokhorenko, T. Rangel, F.Ricci, G.-M.Rignanese, M.Royo, M.Stengel, M.Torrent,
- M.J.van Setten, B.Van Troeye, M.J.Verstraete, J.Wiktor, J.W.Zwanziger, and X.Gonze.
- Comment: a global overview of ABINIT, with focus on selected capabilities .
- Note that a version of this paper, that is not formatted for J. Chem. Phys 
- is available at https://www.abinit.org/sites/default/files/ABINIT20_JPC.pdf .
- The licence allows the authors to put it on the Web.
- DOI and bibtex: see https://docs.abinit.org/theory/bibliography/#romero2020
-
- [9] Recent developments in the ABINIT software package.
- Computer Phys. Comm. 205, 106 (2016).
- X.Gonze, F.Jollet, F.Abreu Araujo, D.Adams, B.Amadon, T.Applencourt,
- C.Audouze, J.-M.Beuken, J.Bieder, A.Bokhanchuk, E.Bousquet, F.Bruneval
- D.Caliste, M.Cote, F.Dahm, F.Da Pieve, M.Delaveau, M.Di Gennaro,
- B.Dorado, C.Espejo, G.Geneste, L.Genovese, A.Gerossier, M.Giantomassi,
- Y.Gillet, D.R.Hamann, L.He, G.Jomard, J.Laflamme Janssen, S.Le Roux,
- A.Levitt, A.Lherbier, F.Liu, I.Lukacevic, A.Martin, C.Martins,
- M.J.T.Oliveira, S.Ponce, Y.Pouillon, T.Rangel, G.-M.Rignanese,
- A.H.Romero, B.Rousseau, O.Rubel, A.A.Shukri, M.Stankovski, M.Torrent,
- M.J.Van Setten, B.Van Troeye, M.J.Verstraete, D.Waroquier, J.Wiktor,
- B.Xu, A.Zhou, J.W.Zwanziger.
- Comment: the fourth generic paper describing the ABINIT project.
- Note that a version of this paper, that is not formatted for Computer Phys. Comm. 
- is available at https://www.abinit.org/sites/default/files/ABINIT16.pdf .
- The licence allows the authors to put it on the Web.
- DOI and bibtex: see https://docs.abinit.org/theory/bibliography/#gonze2016
-
- Proc.   0 individual time (sec): cpu=     132105.0  wall=     132107.6

================================================================================

 Calculation completed.
.Delivered   7 WARNINGs and   0 COMMENTs to log file.
+Overall time at end (sec) : cpu=     792627.4  wall=     792645.4
