
.Version 9.2.2 of ABINIT 
.(MPI version, prepared for a x86_64_linux_gnu9.3 computer) 

.Copyright (C) 1998-2020 ABINIT group . 
 ABINIT comes with ABSOLUTELY NO WARRANTY.
 It is free software, and you are welcome to redistribute it
 under certain conditions (GNU General Public License,
 see ~abinit/COPYING or http://www.gnu.org/copyleft/gpl.txt).

 ABINIT is a project of the Universite Catholique de Louvain,
 Corning Inc. and other collaborators, see ~abinit/doc/developers/contributors.txt .
 Please read https://docs.abinit.org/theory/acknowledgments for suggested
 acknowledgments of the ABINIT effort.
 For more information, see https://www.abinit.org .

.Starting date : Wed  9 Nov 2022.
- ( at 10h04 )
  
- input  file    -> Cs2TiI6.in
- output file    -> Cs2TiI6.out
- root for input  files -> Cs2TiI6i
- root for output files -> Cs2TiI6o

- inpspheads : Reading pseudopotential header in XML form from 
-   ../../../Psps_for_tests/ATOMICDATA/Cs.GGA_PBE-JTH.xml
- inpspheads : Reading pseudopotential header in XML form from 
-   ../../../Psps_for_tests/ATOMICDATA/I.GGA_PBE-JTH.xml
- inpspheads : Reading pseudopotential header in XML form from 
-   ../../../Psps_for_tests/ATOMICDATA/Hf.GGA_PBE-JTH.xml
- inpspheads : Reading pseudopotential header in XML form from 
-   ../../../Psps_for_tests/ATOMICDATA/Cl.GGA_PBE-JTH.xml

 DATASET    1 : space group I4 m m (#107); Bravais tI (body-center tetrag.)
================================================================================
 Values of the parameters that define the memory need for DATASET  1.
     intxc =       0    ionmov =       0      iscf =      17    lmnmax =      18
     lnmax =       6     mgfft =      60  mpssoang =       3    mqgrid =    3506
     natom =       9  nloc_mem =       2    nspden =       1   nspinor =       1
    nsppol =       1      nsym =       8    n1xccc =       1    ntypat =       4
    occopt =       1   xclevel =       2
-    mband =          42        mffmem =           1         mkmem =          41
       mpw =        7459          nfft =      216000          nkpt =         163
Pmy_natom=         3
 PAW method is used; the additional fine FFT grid is defined by:
   mgfftf=        90    nfftf =    729000
================================================================================
P This job should need less than                     431.946 Mbytes of memory.
  Rough estimation (10% accuracy) of disk space for files :
_ WF disk file :    779.182 Mbytes ; DEN or POT disk file :      5.564 Mbytes.
================================================================================


 DATASET    2 : space group I4 m m (#107); Bravais tI (body-center tetrag.)
================================================================================
 Values of the parameters that define the memory need for DATASET  2.
     intxc =       0    ionmov =       0      iscf =      17    lmnmax =      18
     lnmax =       6     mgfft =      60  mpssoang =       3    mqgrid =    3502
     natom =       9  nloc_mem =       2    nspden =       1   nspinor =       1
    nsppol =       1      nsym =       8    n1xccc =       1    ntypat =       4
    occopt =       1   xclevel =       2
-    mband =          42        mffmem =           1         mkmem =          41
       mpw =        7435          nfft =      216000          nkpt =         163
Pmy_natom=         3
 PAW method is used; the additional fine FFT grid is defined by:
   mgfftf=        90    nfftf =    729000
================================================================================
P This job should need less than                     431.249 Mbytes of memory.
  Rough estimation (10% accuracy) of disk space for files :
_ WF disk file :    776.675 Mbytes ; DEN or POT disk file :      5.564 Mbytes.
================================================================================


 DATASET    3 : space group I4 m m (#107); Bravais tI (body-center tetrag.)
================================================================================
 Values of the parameters that define the memory need for DATASET  3.
     intxc =       0    ionmov =       0      iscf =      17    lmnmax =      18
     lnmax =       6     mgfft =      60  mpssoang =       3    mqgrid =    3499
     natom =       9  nloc_mem =       2    nspden =       1   nspinor =       1
    nsppol =       1      nsym =       8    n1xccc =       1    ntypat =       4
    occopt =       1   xclevel =       2
-    mband =          42        mffmem =           1         mkmem =          41
       mpw =        7423          nfft =      216000          nkpt =         163
Pmy_natom=         3
 PAW method is used; the additional fine FFT grid is defined by:
   mgfftf=        90    nfftf =    729000
================================================================================
P This job should need less than                     430.907 Mbytes of memory.
  Rough estimation (10% accuracy) of disk space for files :
_ WF disk file :    775.421 Mbytes ; DEN or POT disk file :      5.564 Mbytes.
================================================================================


 DATASET    4 : space group I4 m m (#107); Bravais tI (body-center tetrag.)
================================================================================
 Values of the parameters that define the memory need for DATASET  4.
     intxc =       0    ionmov =       0      iscf =      17    lmnmax =      18
     lnmax =       6     mgfft =      60  mpssoang =       3    mqgrid =    3495
     natom =       9  nloc_mem =       2    nspden =       1   nspinor =       1
    nsppol =       1      nsym =       8    n1xccc =       1    ntypat =       4
    occopt =       1   xclevel =       2
-    mband =          42        mffmem =           1         mkmem =          41
       mpw =        7395          nfft =      216000          nkpt =         163
Pmy_natom=         3
 PAW method is used; the additional fine FFT grid is defined by:
   mgfftf=        90    nfftf =    729000
================================================================================
P This job should need less than                     430.092 Mbytes of memory.
  Rough estimation (10% accuracy) of disk space for files :
_ WF disk file :    772.496 Mbytes ; DEN or POT disk file :      5.564 Mbytes.
================================================================================


 DATASET    5 : space group I4 m m (#107); Bravais tI (body-center tetrag.)
================================================================================
 Values of the parameters that define the memory need for DATASET  5.
     intxc =       0    ionmov =       0      iscf =      17    lmnmax =      18
     lnmax =       6     mgfft =      60  mpssoang =       3    mqgrid =    3492
     natom =       9  nloc_mem =       2    nspden =       1   nspinor =       1
    nsppol =       1      nsym =       8    n1xccc =       1    ntypat =       4
    occopt =       1   xclevel =       2
-    mband =          42        mffmem =           1         mkmem =          41
       mpw =        7369          nfft =      216000          nkpt =         163
Pmy_natom=         3
 PAW method is used; the additional fine FFT grid is defined by:
   mgfftf=        90    nfftf =    729000
================================================================================
P This job should need less than                     429.336 Mbytes of memory.
  Rough estimation (10% accuracy) of disk space for files :
_ WF disk file :    769.780 Mbytes ; DEN or POT disk file :      5.564 Mbytes.
================================================================================


 DATASET    6 : space group I4 m m (#107); Bravais tI (body-center tetrag.)
================================================================================
 Values of the parameters that define the memory need for DATASET  6.
     intxc =       0    ionmov =       0      iscf =      17    lmnmax =      18
     lnmax =       6     mgfft =      60  mpssoang =       3    mqgrid =    3488
     natom =       9  nloc_mem =       2    nspden =       1   nspinor =       1
    nsppol =       1      nsym =       8    n1xccc =       1    ntypat =       4
    occopt =       1   xclevel =       2
-    mband =          42        mffmem =           1         mkmem =          41
       mpw =        7347          nfft =      216000          nkpt =         163
Pmy_natom=         3
 PAW method is used; the additional fine FFT grid is defined by:
   mgfftf=        90    nfftf =    729000
================================================================================
P This job should need less than                     428.698 Mbytes of memory.
  Rough estimation (10% accuracy) of disk space for files :
_ WF disk file :    767.482 Mbytes ; DEN or POT disk file :      5.564 Mbytes.
================================================================================


 DATASET    7 : space group I4 m m (#107); Bravais tI (body-center tetrag.)
================================================================================
 Values of the parameters that define the memory need for DATASET  7.
     intxc =       0    ionmov =       0      iscf =      17    lmnmax =      18
     lnmax =       6     mgfft =      60  mpssoang =       3    mqgrid =    3484
     natom =       9  nloc_mem =       2    nspden =       1   nspinor =       1
    nsppol =       1      nsym =       8    n1xccc =       1    ntypat =       4
    occopt =       1   xclevel =       2
-    mband =          42        mffmem =           1         mkmem =          41
       mpw =        7335          nfft =      216000          nkpt =         163
Pmy_natom=         3
 PAW method is used; the additional fine FFT grid is defined by:
   mgfftf=        90    nfftf =    729000
================================================================================
P This job should need less than                     428.356 Mbytes of memory.
  Rough estimation (10% accuracy) of disk space for files :
_ WF disk file :    766.228 Mbytes ; DEN or POT disk file :      5.564 Mbytes.
================================================================================


 DATASET    8 : space group I4 m m (#107); Bravais tI (body-center tetrag.)
================================================================================
 Values of the parameters that define the memory need for DATASET  8.
     intxc =       0    ionmov =       0      iscf =      17    lmnmax =      18
     lnmax =       6     mgfft =      60  mpssoang =       3    mqgrid =    3481
     natom =       9  nloc_mem =       2    nspden =       1   nspinor =       1
    nsppol =       1      nsym =       8    n1xccc =       1    ntypat =       4
    occopt =       1   xclevel =       2
-    mband =          42        mffmem =           1         mkmem =          41
       mpw =        7301          nfft =      216000          nkpt =         163
Pmy_natom=         3
 PAW method is used; the additional fine FFT grid is defined by:
   mgfftf=        90    nfftf =    729000
================================================================================
P This job should need less than                     427.363 Mbytes of memory.
  Rough estimation (10% accuracy) of disk space for files :
_ WF disk file :    762.677 Mbytes ; DEN or POT disk file :      5.564 Mbytes.
================================================================================


 DATASET    9 : space group I4 m m (#107); Bravais tI (body-center tetrag.)
================================================================================
 Values of the parameters that define the memory need for DATASET  9.
     intxc =       0    ionmov =       0      iscf =      17    lmnmax =      18
     lnmax =       6     mgfft =      60  mpssoang =       3    mqgrid =    3477
     natom =       9  nloc_mem =       2    nspden =       1   nspinor =       1
    nsppol =       1      nsym =       8    n1xccc =       1    ntypat =       4
    occopt =       1   xclevel =       2
-    mband =          42        mffmem =           1         mkmem =          41
       mpw =        7280          nfft =      216000          nkpt =         163
Pmy_natom=         3
 PAW method is used; the additional fine FFT grid is defined by:
   mgfftf=        90    nfftf =    729000
================================================================================
P This job should need less than                     426.755 Mbytes of memory.
  Rough estimation (10% accuracy) of disk space for files :
_ WF disk file :    760.483 Mbytes ; DEN or POT disk file :      5.564 Mbytes.
================================================================================


 DATASET   10 : space group I4 m m (#107); Bravais tI (body-center tetrag.)
================================================================================
 Values of the parameters that define the memory need for DATASET 10.
     intxc =       0    ionmov =       0      iscf =      17    lmnmax =      18
     lnmax =       6     mgfft =      60  mpssoang =       3    mqgrid =    3474
     natom =       9  nloc_mem =       2    nspden =       1   nspinor =       1
    nsppol =       1      nsym =       8    n1xccc =       1    ntypat =       4
    occopt =       1   xclevel =       2
-    mband =          42        mffmem =           1         mkmem =          41
       mpw =        7258          nfft =      216000          nkpt =         163
Pmy_natom=         3
 PAW method is used; the additional fine FFT grid is defined by:
   mgfftf=        90    nfftf =    729000
================================================================================
P This job should need less than                     426.118 Mbytes of memory.
  Rough estimation (10% accuracy) of disk space for files :
_ WF disk file :    758.185 Mbytes ; DEN or POT disk file :      5.564 Mbytes.
================================================================================

--------------------------------------------------------------------------------
------------- Echo of variables that govern the present computation ------------
--------------------------------------------------------------------------------
-
- outvars: echo of selected default values                                      
-   iomode0 =  0 , fftalg0 =112 , wfoptalg0 = 10
-
- outvars: echo of global parameters not present in the input file              
-  max_nthreads =    0
-
 -outvars: echo values of preprocessed input variables --------
            acell1     1.5016898283E+01  1.5213950364E+01  1.5016898283E+01 Bohr
            acell2     1.5001643827E+01  1.5199210972E+01  1.5001643827E+01 Bohr
            acell3     1.4986413866E+01  1.5184417815E+01  1.4986413866E+01 Bohr
            acell4     1.4971025748E+01  1.5169973244E+01  1.4971025748E+01 Bohr
            acell5     1.4954716948E+01  1.5157560504E+01  1.4954716948E+01 Bohr
            acell6     1.4939338447E+01  1.5143096797E+01  1.4939338447E+01 Bohr
            acell7     1.4923654167E+01  1.5129309649E+01  1.4923654167E+01 Bohr
            acell8     1.4908282824E+01  1.5114831375E+01  1.4908282824E+01 Bohr
            acell9     1.4892723123E+01  1.5100770659E+01  1.4892723123E+01 Bohr
            acell10    1.4877187468E+01  1.5086657673E+01  1.4877187468E+01 Bohr
              amu      1.32905430E+02  1.26904470E+02  1.78490000E+02
                       3.54527000E+01
           diemac      1.20000000E+01
             ecut      1.60000000E+01 Hartree
-          fftalg         112
           istwfk        2    0    0    0    0    0    3    0    0    0
                         0    0    0    0    0    0    0    0    0    0
                         0    0    0    0    0    0    0    0    0    0
                         0    0    0    0    0    0    0    0    0    0
                         0    0    7    0    0    0    0    0    0    0
                       outvar_i_n : Printing only first  50 k-points.
              ixc     -101130
           jdtset        1    2    3    4    5    6    7    8    9   10
              kpt      0.00000000E+00  0.00000000E+00  0.00000000E+00
                       8.33333333E-02  0.00000000E+00  0.00000000E+00
                       1.66666667E-01  0.00000000E+00  0.00000000E+00
                       2.50000000E-01  0.00000000E+00  0.00000000E+00
                       3.33333333E-01  0.00000000E+00  0.00000000E+00
                       4.16666667E-01  0.00000000E+00  0.00000000E+00
                       5.00000000E-01  0.00000000E+00  0.00000000E+00
                       8.33333333E-02  8.33333333E-02  0.00000000E+00
                       1.66666667E-01  8.33333333E-02  0.00000000E+00
                       2.50000000E-01  8.33333333E-02  0.00000000E+00
                       3.33333333E-01  8.33333333E-02  0.00000000E+00
                       4.16666667E-01  8.33333333E-02  0.00000000E+00
                       5.00000000E-01  8.33333333E-02  0.00000000E+00
                      -4.16666667E-01  8.33333333E-02  0.00000000E+00
                      -3.33333333E-01  8.33333333E-02  0.00000000E+00
                      -2.50000000E-01  8.33333333E-02  0.00000000E+00
                      -1.66666667E-01  8.33333333E-02  0.00000000E+00
                      -8.33333333E-02  8.33333333E-02  0.00000000E+00
                       1.66666667E-01  1.66666667E-01  0.00000000E+00
                       2.50000000E-01  1.66666667E-01  0.00000000E+00
                       3.33333333E-01  1.66666667E-01  0.00000000E+00
                       4.16666667E-01  1.66666667E-01  0.00000000E+00
                       5.00000000E-01  1.66666667E-01  0.00000000E+00
                      -4.16666667E-01  1.66666667E-01  0.00000000E+00
                      -3.33333333E-01  1.66666667E-01  0.00000000E+00
                      -2.50000000E-01  1.66666667E-01  0.00000000E+00
                      -1.66666667E-01  1.66666667E-01  0.00000000E+00
                       2.50000000E-01  2.50000000E-01  0.00000000E+00
                       3.33333333E-01  2.50000000E-01  0.00000000E+00
                       4.16666667E-01  2.50000000E-01  0.00000000E+00
                       5.00000000E-01  2.50000000E-01  0.00000000E+00
                      -4.16666667E-01  2.50000000E-01  0.00000000E+00
                      -3.33333333E-01  2.50000000E-01  0.00000000E+00
                      -2.50000000E-01  2.50000000E-01  0.00000000E+00
                       3.33333333E-01  3.33333333E-01  0.00000000E+00
                       4.16666667E-01  3.33333333E-01  0.00000000E+00
                       5.00000000E-01  3.33333333E-01  0.00000000E+00
                      -4.16666667E-01  3.33333333E-01  0.00000000E+00
                      -3.33333333E-01  3.33333333E-01  0.00000000E+00
                       4.16666667E-01  4.16666667E-01  0.00000000E+00
                       5.00000000E-01  4.16666667E-01  0.00000000E+00
                      -4.16666667E-01  4.16666667E-01  0.00000000E+00
                       5.00000000E-01  5.00000000E-01  0.00000000E+00
                       8.33333333E-02  0.00000000E+00  8.33333333E-02
                       1.66666667E-01  0.00000000E+00  8.33333333E-02
                       2.50000000E-01  0.00000000E+00  8.33333333E-02
                       3.33333333E-01  0.00000000E+00  8.33333333E-02
                       4.16666667E-01  0.00000000E+00  8.33333333E-02
                       5.00000000E-01  0.00000000E+00  8.33333333E-02
                      -4.16666667E-01  0.00000000E+00  8.33333333E-02
                       outvar_i_n : Printing only first  50 k-points.
         kptrlatt       12    0    0      0   12    0      0    0   12
          kptrlen1     1.80202779E+02
          kptrlen2     1.80019726E+02
          kptrlen3     1.79836966E+02
          kptrlen4     1.79652309E+02
          kptrlen5     1.79456603E+02
          kptrlen6     1.79272061E+02
          kptrlen7     1.79083850E+02
          kptrlen8     1.78899394E+02
          kptrlen9     1.78712677E+02
          kptrlen10    1.78526250E+02
P           mkmem          41
            natom           9
            nband          42
           ndtset          10
            ngfft          60      60      60
          ngfftdg          90      90      90
             nkpt         163
            nstep        2500
             nsym           8
           ntypat           4
              occ      2.000000  2.000000  2.000000  2.000000  2.000000  2.000000
                       2.000000  2.000000  2.000000  2.000000  2.000000  2.000000
                       2.000000  2.000000  2.000000  2.000000  2.000000  2.000000
                       2.000000  2.000000  2.000000  2.000000  2.000000  2.000000
                       2.000000  2.000000  2.000000  2.000000  2.000000  2.000000
                       2.000000  2.000000  2.000000  2.000000  2.000000  2.000000
                       0.000000  0.000000  0.000000  0.000000  0.000000  0.000000
        pawecutdg      4.00000000E+01 Hartree
            prtwf           0
            rprim1     0.0000000000E+00  6.9770472514E-01  7.1638545247E-01
                       7.0710678119E-01  0.0000000000E+00  7.0710678119E-01
                       7.1638545247E-01  6.9770472514E-01  0.0000000000E+00
            rprim2     0.0000000000E+00  6.9767010811E-01  7.1641916519E-01
                       7.0710678119E-01  0.0000000000E+00  7.0710678119E-01
                       7.1641916519E-01  6.9767010811E-01  0.0000000000E+00
            rprim3     0.0000000000E+00  6.9763922510E-01  7.1644923867E-01
                       7.0710678119E-01  0.0000000000E+00  7.0710678119E-01
                       7.1644923867E-01  6.9763922510E-01  0.0000000000E+00
            rprim4     0.0000000000E+00  6.9758359217E-01  7.1650340678E-01
                       7.0710678119E-01  0.0000000000E+00  7.0710678119E-01
                       7.1650340678E-01  6.9758359217E-01  0.0000000000E+00
            rprim5     0.0000000000E+00  6.9738379657E-01  7.1669787239E-01
                       7.0710678119E-01  0.0000000000E+00  7.0710678119E-01
                       7.1669787239E-01  6.9738379657E-01  0.0000000000E+00
            rprim6     0.0000000000E+00  6.9732914788E-01  7.1675104431E-01
                       7.0710678119E-01  0.0000000000E+00  7.0710678119E-01
                       7.1675104431E-01  6.9732914788E-01  0.0000000000E+00
            rprim7     0.0000000000E+00  6.9722632225E-01  7.1685106930E-01
                       7.0710678119E-01  0.0000000000E+00  7.0710678119E-01
                       7.1685106930E-01  6.9722632225E-01  0.0000000000E+00
            rprim8     0.0000000000E+00  6.9717243757E-01  7.1690347488E-01
                       7.0710678119E-01  0.0000000000E+00  7.0710678119E-01
                       7.1690347488E-01  6.9717243757E-01  0.0000000000E+00
            rprim9     0.0000000000E+00  6.9708871649E-01  7.1698488223E-01
                       7.0710678119E-01  0.0000000000E+00  7.0710678119E-01
                       7.1698488223E-01  6.9708871649E-01  0.0000000000E+00
            rprim10    0.0000000000E+00  6.9700854898E-01  7.1706281639E-01
                       7.0710678119E-01  0.0000000000E+00  7.0710678119E-01
                       7.1706281639E-01  6.9700854898E-01  0.0000000000E+00
          spgroup         107
           symrel      1  0  0   0  1  0   0  0  1       0  0  1   0  1  0   1  0  0
                       0 -1  1   0 -1  0   1 -1  0       1 -1  0   0 -1  0   0 -1  1
                       0 -1  1  -1  0  1   0  0  1       0  0  1  -1  0  1   0 -1  1
                       1  0  0   1  0 -1   1 -1  0       1 -1  0   1  0 -1   1  0  0
           toldfe      1.00000000E-08 Hartree
            typat      1  1  4  2  2  2  2  2  3
           useylm           1
              wtk        0.00058    0.00463    0.00463    0.00463    0.00463    0.00463
                         0.00231    0.00231    0.00926    0.00926    0.00926    0.00926
                         0.00926    0.00926    0.00926    0.00926    0.00926    0.00463
                         0.00231    0.00926    0.00926    0.00926    0.00926    0.00926
                         0.00926    0.00926    0.00463    0.00231    0.00926    0.00926
                         0.00926    0.00926    0.00926    0.00463    0.00231    0.00926
                         0.00926    0.00926    0.00463    0.00231    0.00926    0.00463
                         0.00116    0.00116    0.00463    0.00463    0.00463    0.00463
                         0.00463    0.00463
                       outvars : Printing only first  50 k-points.
           xangst1     2.8464144311E+00  2.7530912385E+00  2.8464144311E+00
                       8.5392432934E+00  8.2974718271E+00  8.5392432934E+00
                       5.6928288623E+00  8.5825514405E+00  5.6928288623E+00
                       5.6928288623E+00  5.5328728735E+00  2.8449786530E+00
                       5.6928288623E+00  5.5328728735E+00  8.5406790716E+00
                       5.6928288623E+00  2.7576687288E+00  5.6928288623E+00
                       8.5406790716E+00  5.5328728735E+00  5.6928288623E+00
                       2.8449786530E+00  5.5328728735E+00  5.6928288623E+00
                      -3.8562274835E-13 -8.9340576982E-02 -3.8562274835E-13
           xangst2     2.8436568030E+00  2.7504273755E+00  2.8436568030E+00
                       8.5309704089E+00  8.2889010667E+00  8.5309704089E+00
                       5.6873136059E+00  8.5701651102E+00  5.6873136059E+00
                       5.6873136059E+00  5.5274414001E+00  2.8441809581E+00
                       5.6873136059E+00  5.5274414001E+00  8.5304462537E+00
                       5.6873136059E+00  2.7563164341E+00  5.6873136059E+00
                       8.5304462537E+00  5.5274414001E+00  5.6873136059E+00
                       2.8441809581E+00  5.5274414001E+00  5.6873136059E+00
                       9.2812430226E-14 -8.9979596043E-02  9.2812430226E-14
           xangst3     2.8408891157E+00  2.7476471415E+00  2.8408891157E+00
                       8.5226673470E+00  8.2802531496E+00  8.5226673470E+00
                       5.6817782312E+00  8.5580022868E+00  5.6817782312E+00
                       5.6817782313E+00  5.5220169647E+00  2.8433833469E+00
                       5.6817782314E+00  5.5220169647E+00  8.5201731158E+00
                       5.6817782314E+00  2.7550339227E+00  5.6817782314E+00
                       8.5201731158E+00  5.5220169647E+00  5.6817782314E+00
                       2.8433833469E+00  5.5220169647E+00  5.6817782313E+00
                       3.1117273379E-12 -9.0432264858E-02  3.1117273379E-12
           xangst4     2.8381866464E+00  2.7447997503E+00  2.8381866464E+00
                       8.5145599392E+00  8.2712841111E+00  8.5145599392E+00
                       5.6763732928E+00  8.5453248531E+00  5.6763732928E+00
                       5.6763732928E+00  5.5163166027E+00  2.8425749097E+00
                       5.6763732928E+00  5.5163166027E+00  8.5101716759E+00
                       5.6763732928E+00  2.7537455145E+00  5.6763732928E+00
                       8.5101716759E+00  5.5163166027E+00  5.6763732928E+00
                       2.8425749097E+00  5.5163166027E+00  5.6763732928E+00
                      -5.6509961513E-13 -9.0907721733E-02 -5.6509961513E-13
           xangst5     2.8358643171E+00  2.7409678903E+00  2.8358643171E+00
                       8.5075929514E+00  8.2598508122E+00  8.5075929514E+00
                       5.6717286343E+00  8.5300159680E+00  5.6717286343E+00
                       5.6717286343E+00  5.5090677669E+00  2.8418491156E+00
                       5.6717286342E+00  5.5090677669E+00  8.5016081528E+00
                       5.6717286342E+00  2.7525025719E+00  5.6717286342E+00
                       8.5016081528E+00  5.5090677669E+00  5.6717286342E+00
                       2.8418491156E+00  5.5090677669E+00  5.6717286343E+00
                      -6.5521612121E-13 -9.1013692034E-02 -6.5521612121E-13
           xangst6     2.8331582675E+00  2.7387167119E+00  2.8331582675E+00
                       8.4994748024E+00  8.2514923294E+00  8.4994748024E+00
                       5.6663165349E+00  8.5169765153E+00  5.6663165349E+00
                       5.6663165349E+00  5.5033416250E+00  2.8410172145E+00
                       5.6663165350E+00  5.5033416250E+00  8.4916158554E+00
                       5.6663165350E+00  2.7509188163E+00  5.6663165350E+00
                       8.4916158554E+00  5.5033416250E+00  5.6663165350E+00
                       2.8410172145E+00  5.5033416250E+00  5.6663165349E+00
                       8.2622289402E-13 -9.1820487571E-02  8.2622289402E-13
           xangst7     2.8305787969E+00  2.7358981839E+00  2.8305787969E+00
                       8.4917363908E+00  8.2420740939E+00  8.4917363908E+00
                       5.6611575939E+00  8.5031208441E+00  5.6611575939E+00
                       5.6611575939E+00  5.4971947713E+00  2.8401861159E+00
                       5.6611575939E+00  5.4971947713E+00  8.4821290718E+00
                       5.6611575939E+00  2.7493949102E+00  5.6611575939E+00
                       8.4821290718E+00  5.4971947713E+00  5.6611575939E+00
                       2.8401861159E+00  5.4971947713E+00  5.6611575939E+00
                       2.3935783941E-13 -9.2507106943E-02  2.3935783941E-13
           xangst8     2.8278700219E+00  2.7336981895E+00  2.8278700219E+00
                       8.4836100656E+00  8.2337776431E+00  8.4836100656E+00
                       5.6557400436E+00  8.4900355202E+00  5.6557400436E+00
                       5.6557400436E+00  5.4915143330E+00  2.8393266610E+00
                       5.6557400438E+00  5.4915143330E+00  8.4721534264E+00
                       5.6557400438E+00  2.7477463062E+00  5.6557400438E+00
                       8.4721534264E+00  5.4915143330E+00  5.6557400438E+00
                       2.8393266610E+00  5.4915143330E+00  5.6557400436E+00
                       3.5340940704E-12 -9.3412277381E-02  3.5340940704E-12
           xangst9     2.8252393689E+00  2.7308832500E+00  2.8252393689E+00
                       8.4757181068E+00  8.2245625013E+00  8.4757181068E+00
                       5.6504787379E+00  8.4765198686E+00  5.6504787379E+00
                       5.6504787379E+00  5.4856259796E+00  2.8384697330E+00
                       5.6504787379E+00  5.4856259796E+00  8.4624877428E+00
                       5.6504787379E+00  2.7462303094E+00  5.6504787379E+00
                       8.4624877428E+00  5.4856259796E+00  5.6504787379E+00
                       2.8384697330E+00  5.4856259796E+00  5.6504787379E+00
                      -1.1522013703E-12 -9.4088665143E-02 -1.1522013703E-12
           xangst10    2.8225989365E+00  2.7287051284E+00  2.8225989365E+00
                       8.4677968095E+00  8.2160224012E+00  8.4677968095E+00
                       5.6451978730E+00  8.4627217756E+00  5.6451978730E+00
                       5.6451978730E+00  5.4797417915E+00  2.8375822713E+00
                       5.6451978730E+00  5.4797417915E+00  8.4528134747E+00
                       5.6451978730E+00  2.7444687725E+00  5.6451978730E+00
                       8.4528134747E+00  5.4797417915E+00  5.6451978730E+00
                       2.8375822713E+00  5.4797417915E+00  5.6451978730E+00
                       1.3979417741E-12 -9.5259263622E-02  1.3979417741E-12
            xcart1     5.3789437356E+00  5.2025884596E+00  5.3789437356E+00
                       1.6136831207E+01  1.5679949349E+01  1.6136831207E+01
                       1.0757887471E+01  1.6218671744E+01  1.0757887471E+01
                       1.0757887471E+01  1.0455614459E+01  5.3762305081E+00
                       1.0757887471E+01  1.0455614459E+01  1.6139544434E+01
                       1.0757887471E+01  5.2112386626E+00  1.0757887471E+01
                       1.6139544434E+01  1.0455614459E+01  1.0757887471E+01
                       5.3762305081E+00  1.0455614459E+01  1.0757887471E+01
                      -7.2872138499E-13 -1.6882922305E-01 -7.2872138499E-13
            xcart2     5.3737325735E+00  5.1975544880E+00  5.3737325735E+00
                       1.6121197721E+01  1.5663752959E+01  1.6121197721E+01
                       1.0747465147E+01  1.6195264972E+01  1.0747465147E+01
                       1.0747465147E+01  1.0445350462E+01  5.3747230832E+00
                       1.0747465147E+01  1.0445350462E+01  1.6120207211E+01
                       1.0747465147E+01  5.2086831960E+00  1.0747465147E+01
                       1.6120207211E+01  1.0445350462E+01  1.0747465147E+01
                       5.3747230832E+00  1.0445350462E+01  1.0747465147E+01
                       1.7539007486E-13 -1.7003679407E-01  1.7539007486E-13
            xcart3     5.3685024025E+00  5.1923006072E+00  5.3685024025E+00
                       1.6105507208E+01  1.5647410764E+01  1.6105507208E+01
                       1.0737004805E+01  1.6172280567E+01  1.0737004805E+01
                       1.0737004805E+01  1.0435099764E+01  5.3732158165E+00
                       1.0737004805E+01  1.0435099764E+01  1.6100793794E+01
                       1.0737004805E+01  5.2062596007E+00  1.0737004805E+01
                       1.6100793794E+01  1.0435099764E+01  1.0737004805E+01
                       5.3732158165E+00  1.0435099764E+01  1.0737004805E+01
                       5.8803124688E-12 -1.7089221416E-01  5.8803124688E-12
            xcart4     5.3633954757E+00  5.1869198176E+00  5.3633954757E+00
                       1.6090186427E+01  1.5630461737E+01  1.6090186427E+01
                       1.0726790951E+01  1.6148323689E+01  1.0726790951E+01
                       1.0726790951E+01  1.0424327641E+01  5.3716880915E+00
                       1.0726790951E+01  1.0424327641E+01  1.6081893811E+01
                       1.0726790951E+01  5.2038248620E+00  1.0726790951E+01
                       1.6081893811E+01  1.0424327641E+01  1.0726790951E+01
                       5.3716880915E+00  1.0424327641E+01  1.0726790951E+01
                      -1.0678835104E-12 -1.7179069744E-01 -1.0678835104E-12
            xcart5     5.3590069094E+00  5.1796786518E+00  5.3590069094E+00
                       1.6077020728E+01  1.5608855934E+01  1.6077020728E+01
                       1.0718013819E+01  1.6119394089E+01  1.0718013819E+01
                       1.0718013819E+01  1.0410629327E+01  5.3703165396E+00
                       1.0718013819E+01  1.0410629327E+01  1.6065711098E+01
                       1.0718013819E+01  5.2014760409E+00  1.0718013819E+01
                       1.6065711098E+01  1.0410629327E+01  1.0718013819E+01
                       5.3703165396E+00  1.0410629327E+01  1.0718013819E+01
                      -1.2381790269E-12 -1.7199095229E-01 -1.2381790269E-12
            xcart6     5.3538932166E+00  5.1754245411E+00  5.3538932166E+00
                       1.6061679650E+01  1.5593060690E+01  1.6061679650E+01
                       1.0707786433E+01  1.6094753094E+01  1.0707786433E+01
                       1.0707786433E+01  1.0399808487E+01  5.3687444742E+00
                       1.0707786433E+01  1.0399808487E+01  1.6046828392E+01
                       1.0707786433E+01  5.1984831765E+00  1.0707786433E+01
                       1.6046828392E+01  1.0399808487E+01  1.0707786433E+01
                       5.3687444742E+00  1.0399808487E+01  1.0707786433E+01
                       1.5613349944E-12 -1.7351557490E-01  1.5613349944E-12
            xcart7     5.3490187238E+00  5.1700982950E+00  5.3490187238E+00
                       1.6047056171E+01  1.5575262804E+01  1.6047056171E+01
                       1.0698037447E+01  1.6068569670E+01  1.0698037447E+01
                       1.0698037447E+01  1.0388192617E+01  5.3671739256E+00
                       1.0698037448E+01  1.0388192617E+01  1.6028900969E+01
                       1.0698037448E+01  5.1956034114E+00  1.0698037448E+01
                       1.6028900969E+01  1.0388192617E+01  1.0698037448E+01
                       5.3671739256E+00  1.0388192617E+01  1.0698037447E+01
                       4.5232076424E-13 -1.7481309747E-01  4.5232076424E-13
            xcart8     5.3438998807E+00  5.1659409081E+00  5.3438998807E+00
                       1.6031699642E+01  1.5559584784E+01  1.6031699642E+01
                       1.0687799761E+01  1.6043841992E+01  1.0687799761E+01
                       1.0687799761E+01  1.0377458144E+01  5.3655497911E+00
                       1.0687799762E+01  1.0377458144E+01  1.6010049732E+01
                       1.0687799762E+01  5.1924880014E+00  1.0687799762E+01
                       1.6010049732E+01  1.0377458144E+01  1.0687799762E+01
                       5.3655497911E+00  1.0377458144E+01  1.0687799761E+01
                       6.6784699208E-12 -1.7652362170E-01  6.6784699208E-12
            xcart9     5.3389286672E+00  5.1606214433E+00  5.3389286672E+00
                       1.6016786001E+01  1.5542170690E+01  1.6016786001E+01
                       1.0677857334E+01  1.6018301112E+01  1.0677857334E+01
                       1.0677857334E+01  1.0366330769E+01  5.3639304319E+00
                       1.0677857334E+01  1.0366330769E+01  1.5991784237E+01
                       1.0677857334E+01  5.1896231825E+00  1.0677857334E+01
                       1.5991784237E+01  1.0366330769E+01  1.0677857334E+01
                       5.3639304319E+00  1.0366330769E+01  1.0677857334E+01
                      -2.1773450397E-12 -1.7780180933E-01 -2.1773450397E-12
            xcart10    5.3339389730E+00  5.1565053900E+00  5.3339389730E+00
                       1.6001816919E+01  1.5526032240E+01  1.6001816919E+01
                       1.0667877946E+01  1.5992226495E+01  1.0667877946E+01
                       1.0667877946E+01  1.0355211265E+01  5.3622533722E+00
                       1.0667877946E+01  1.0355211265E+01  1.5973502520E+01
                       1.0667877946E+01  5.1862943604E+00  1.0667877946E+01
                       1.5973502520E+01  1.0355211265E+01  1.0667877946E+01
                       5.3622533722E+00  1.0355211265E+01  1.0667877946E+01
                       2.6417271028E-12 -1.8001391987E-01  2.6417271028E-12
             xred1     2.4827762042E-01  2.5172237958E-01  2.4827762042E-01
                       7.4827762042E-01  7.5172237958E-01  7.4827762042E-01
                       7.7398649888E-01  2.2601350112E-01  7.7398649888E-01
                       2.4883611405E-01  2.5091167775E-01  7.4908832225E-01
                       7.4908832225E-01  7.5116388595E-01  2.4883611405E-01
                       2.4869042490E-01  7.5130957510E-01  2.4869042490E-01
                       2.4883611405E-01  7.5116388595E-01  7.4908832225E-01
                       7.4908832225E-01  2.5091167775E-01  2.4883611405E-01
                      -8.0568582508E-03  8.0568582508E-03 -8.0568582508E-03
             xred2     2.4830192656E-01  2.5169807344E-01  2.4830192656E-01
                       7.4830192656E-01  7.5169807344E-01  7.4830192656E-01
                       7.7369376366E-01  2.2630623634E-01  7.7369376366E-01
                       2.4905011254E-01  2.5104204963E-01  7.4895795037E-01
                       7.4895795037E-01  7.5094988746E-01  2.4905011254E-01
                       2.4883357652E-01  7.5116642348E-01  2.4883357652E-01
                       2.4905011254E-01  7.5094988746E-01  7.4895795037E-01
                       7.4895795037E-01  2.5104204963E-01  2.4905011254E-01
                      -8.1231401519E-03  8.1231401519E-03 -8.1231401519E-03
             xred3     2.4831400767E-01  2.5168599233E-01  2.4831400767E-01
                       7.4831400767E-01  7.5168599233E-01  7.4831400767E-01
                       7.7341512067E-01  2.2658487933E-01  7.7341512067E-01
                       2.4926252683E-01  2.5117646096E-01  7.4882353904E-01
                       7.4882353904E-01  7.5073747317E-01  2.4926252683E-01
                       2.4898157565E-01  7.5101842435E-01  2.4898157565E-01
                       2.4926252683E-01  7.5073747317E-01  7.4882353904E-01
                       7.4882353904E-01  2.5117646096E-01  2.4926252683E-01
                      -8.1726644483E-03  8.1726644483E-03 -8.1726644483E-03
             xred4     2.4833145007E-01  2.5166854993E-01  2.4833145007E-01
                       7.4833145007E-01  7.5166854993E-01  7.4833145007E-01
                       7.7312485615E-01  2.2687514385E-01  7.7312485615E-01
                       2.4946662562E-01  2.5130644956E-01  7.4869355044E-01
                       7.4869355044E-01  7.5053337438E-01  2.4946662562E-01
                       2.4914080405E-01  7.5085919595E-01  2.4914080405E-01
                       2.4946662562E-01  7.5053337438E-01  7.4869355044E-01
                       7.4869355044E-01  2.5130644956E-01  2.4946662562E-01
                      -8.2247334649E-03  8.2247334649E-03 -8.2247334649E-03
             xred5     2.4832633063E-01  2.5167366937E-01  2.4832633063E-01
                       7.4832633063E-01  7.5167366937E-01  7.4832633063E-01
                       7.7280276541E-01  2.2719723459E-01  7.7280276541E-01
                       2.4963836531E-01  2.5141683301E-01  7.4858316699E-01
                       7.4858316699E-01  7.5036163469E-01  2.4963836531E-01
                       2.4937135022E-01  7.5062864978E-01  2.4937135022E-01
                       2.4963836531E-01  7.5036163469E-01  7.4858316699E-01
                       7.4858316699E-01  2.5141683301E-01  2.4963836531E-01
                      -8.2456625120E-03  8.2456625120E-03 -8.2456625120E-03
             xred6     2.4839725956E-01  2.5160274044E-01  2.4839725956E-01
                       7.4839725956E-01  7.5160274044E-01  7.4839725956E-01
                       7.7247625391E-01  2.2752374609E-01  7.7247625391E-01
                       2.4983783120E-01  2.5154912750E-01  7.4845087250E-01
                       7.4845087250E-01  7.5016216880E-01  2.4983783120E-01
                       2.4950397106E-01  7.5049602894E-01  2.4950397106E-01
                       2.4983783120E-01  7.5016216880E-01  7.4845087250E-01
                       7.4845087250E-01  2.5154912750E-01  2.4983783120E-01
                      -8.3279725080E-03  8.3279725080E-03 -8.3279725080E-03
             xred7     2.4843904632E-01  2.5156095368E-01  2.4843904632E-01
                       7.4843904632E-01  7.5156095368E-01  7.4843904632E-01
                       7.7214395100E-01  2.2785604900E-01  7.7214395100E-01
                       2.5003297817E-01  2.5166408093E-01  7.4833591907E-01
                       7.4833591907E-01  7.4996702183E-01  2.5003297817E-01
                       2.4966464522E-01  7.5033535478E-01  2.4966464522E-01
                       2.5003297817E-01  7.4996702183E-01  7.4833591907E-01
                       7.4833591907E-01  2.5166408093E-01  2.5003297817E-01
                      -8.4003043542E-03  8.4003043542E-03 -8.4003043542E-03
             xred8     2.4851442716E-01  2.5148557284E-01  2.4851442716E-01
                       7.4851442716E-01  7.5148557284E-01  7.4851442716E-01
                       7.7181026127E-01  2.2818973873E-01  7.7181026127E-01
                       2.5023419682E-01  2.5179146897E-01  7.4820853103E-01
                       7.4820853103E-01  7.4976580318E-01  2.5023419682E-01
                       2.4979151023E-01  7.5020848977E-01  2.4979151023E-01
                       2.5023419682E-01  7.4976580318E-01  7.4820853103E-01
                       7.4820853103E-01  2.5179146897E-01  2.5023419682E-01
                      -8.4919025415E-03  8.4919025415E-03 -8.4919025415E-03
             xred9     2.4854775143E-01  2.5145224857E-01  2.4854775143E-01
                       7.4854775143E-01  7.5145224857E-01  7.4854775143E-01
                       7.7147932022E-01  2.2852067978E-01  7.7147932022E-01
                       2.5043777154E-01  2.5190368742E-01  7.4809631258E-01
                       7.4809631258E-01  7.4956222846E-01  2.5043777154E-01
                       2.4994454388E-01  7.5005545612E-01  2.4994454388E-01
                       2.5043777154E-01  7.4956222846E-01  7.4809631258E-01
                       7.4809631258E-01  2.5190368742E-01  2.5043777154E-01
                      -8.5633562535E-03  8.5633562535E-03 -8.5633562535E-03
             xred10    2.4863744820E-01  2.5136255180E-01  2.4863744820E-01
                       7.4863744820E-01  7.5136255180E-01  7.4863744820E-01
                       7.7111649963E-01  2.2888350037E-01  7.7111649963E-01
                       2.5063681491E-01  2.5201735862E-01  7.4798264138E-01
                       7.4798264138E-01  7.4936318509E-01  2.5063681491E-01
                       2.5007381896E-01  7.4992618104E-01  2.5007381896E-01
                       2.5063681491E-01  7.4936318509E-01  7.4798264138E-01
                       7.4798264138E-01  2.5201735862E-01  2.5063681491E-01
                      -8.6799485874E-03  8.6799485874E-03 -8.6799485874E-03
            znucl       55.00000   53.00000   72.00000   17.00000

================================================================================

 chkinp: Checking input parameters for consistency, jdtset=   1.

 chkinp: Checking input parameters for consistency, jdtset=   2.

 chkinp: Checking input parameters for consistency, jdtset=   3.

 chkinp: Checking input parameters for consistency, jdtset=   4.

 chkinp: Checking input parameters for consistency, jdtset=   5.

 chkinp: Checking input parameters for consistency, jdtset=   6.

 chkinp: Checking input parameters for consistency, jdtset=   7.

 chkinp: Checking input parameters for consistency, jdtset=   8.

 chkinp: Checking input parameters for consistency, jdtset=   9.

 chkinp: Checking input parameters for consistency, jdtset=  10.

================================================================================
== DATASET  1 ==================================================================
-   mpi_nproc: 4, omp_nthreads: -1 (-1 if OMP is not activated)


--- !DatasetInfo
iteration_state: {dtset: 1, }
dimensions: {natom: 9, nkpt: 163, mband: 42, nsppol: 1, nspinor: 1, nspden: 1, mpw: 7459, }
cutoff_energies: {ecut:  16.0, pawecutdg:  40.0, }
electrons: {nelect:   7.20000000E+01, charge:   0.00000000E+00, occopt:   1.00000000E+00, tsmear:   1.00000000E-02, }
meta: {optdriver: 0, ionmov: 0, optcell: 0, iscf: 17, paral_kgb: 0, }
...

 Real(R)+Recip(G) space primitive vectors, cartesian coordinates (Bohr,Bohr^-1):
 R(1)=  0.0000000 10.4773609 10.7578875  G(1)= -0.0464775  0.0477219  0.0464775
 R(2)= 10.7578875  0.0000000 10.7578875  G(2)=  0.0464775 -0.0477219  0.0464775
 R(3)= 10.7578875 10.4773609  0.0000000  G(3)=  0.0464775  0.0477219 -0.0464775
 Unit cell volume ucvol=  2.4251349E+03 bohr^3
 Angles (23,13,12)=  5.95649693E+01  6.08700614E+01  5.95649693E+01 degrees

 Coarse grid specifications (used for wave-functions):

 getcut: wavevector=  0.0000  0.0000  0.0000  ngfft=  60  60  60
         ecut(hartree)=     16.000   => boxcut(ratio)=   2.19020

 Fine grid specifications (used for densities):

 getcut: wavevector=  0.0000  0.0000  0.0000  ngfft=  90  90  90
         ecut(hartree)=     40.000   => boxcut(ratio)=   2.07808

--- Pseudopotential description ------------------------------------------------
- pspini: atom type   1  psp file is ../../../Psps_for_tests/ATOMICDATA/Cs.GGA_PBE-JTH.xml
- pspatm: opening atomic psp file    ../../../Psps_for_tests/ATOMICDATA/Cs.GGA_PBE-JTH.xml
- pspatm : Reading pseudopotential header in XML form from ../../../Psps_for_tests/ATOMICDATA/Cs.GGA_PBE-JTH.xml
 Pseudopotential format is: paw10
 basis_size (lnmax)=  6 (lmn_size= 18), orbitals=   0   0   1   1   2   2
 Spheres core radius: rc_sph= 2.20660278
 1 radial meshes are used:
  - mesh 1: r(i)=AA*[exp(BB*(i-1))-1], size=1500 , AA= 0.15922E-03 BB= 0.87573E-02
 Shapefunction is SIN type: shapef(r)=[sin(pi*r/rshp)/(pi*r/rshp)]**2
 Radius for shape functions =  2.00394208
 mmax= 1500
 Radial grid used for partial waves is grid 1
 Radial grid used for projectors is grid 1
 Radial grid used for (t)core density is grid 1
 Radial grid used for Vloc is grid 1
 Radial grid used for pseudo valence density is grid 1
 Mesh size for Vloc has been set to 1341 to avoid numerical noise.
 Compensation charge density is not taken into account in XC energy/potential
 pspatm: atomic psp has been read  and splines computed

- pspini: atom type   2  psp file is ../../../Psps_for_tests/ATOMICDATA/I.GGA_PBE-JTH.xml
- pspatm: opening atomic psp file    ../../../Psps_for_tests/ATOMICDATA/I.GGA_PBE-JTH.xml
- pspatm : Reading pseudopotential header in XML form from ../../../Psps_for_tests/ATOMICDATA/I.GGA_PBE-JTH.xml
 Pseudopotential format is: paw10
 basis_size (lnmax)=  4 (lmn_size=  8), orbitals=   0   0   1   1
 Spheres core radius: rc_sph= 2.30022271
 1 radial meshes are used:
  - mesh 1: r(i)=AA*[exp(BB*(i-1))-1], size=2000 , AA= 0.12610E-03 BB= 0.66836E-02
 Shapefunction is SIN type: shapef(r)=[sin(pi*r/rshp)/(pi*r/rshp)]**2
 Radius for shape functions =  2.10879093
 mmax= 2000
 Radial grid used for partial waves is grid 1
 Radial grid used for projectors is grid 1
 Radial grid used for (t)core density is grid 1
 Radial grid used for Vloc is grid 1
 Radial grid used for pseudo valence density is grid 1
 Mesh size for Vloc has been set to 1792 to avoid numerical noise.
 Compensation charge density is not taken into account in XC energy/potential
 pspatm: atomic psp has been read  and splines computed

- pspini: atom type   3  psp file is ../../../Psps_for_tests/ATOMICDATA/Hf.GGA_PBE-JTH.xml
- pspatm: opening atomic psp file    ../../../Psps_for_tests/ATOMICDATA/Hf.GGA_PBE-JTH.xml
- pspatm : Reading pseudopotential header in XML form from ../../../Psps_for_tests/ATOMICDATA/Hf.GGA_PBE-JTH.xml
 Pseudopotential format is: paw10
 basis_size (lnmax)=  6 (lmn_size= 18), orbitals=   0   0   1   1   2   2
 Spheres core radius: rc_sph= 2.41000000
 1 radial meshes are used:
  - mesh 1: r(i)=AA*[exp(BB*(i-1))-1], size= 972 , AA= 0.19796E-03 BB= 0.14253E-01
 Shapefunction is SIN type: shapef(r)=[sin(pi*r/rshp)/(pi*r/rshp)]**2
 Radius for shape functions =  2.41000000
 mmax=  972
 Radial grid used for partial waves is grid 1
 Radial grid used for projectors is grid 1
 Radial grid used for (t)core density is grid 1
 Radial grid used for Vloc is grid 1
 Radial grid used for pseudo valence density is grid 1
 Mesh size for Vloc has been set to  809 to avoid numerical noise.
 Compensation charge density is not taken into account in XC energy/potential
 pspatm: atomic psp has been read  and splines computed

- pspini: atom type   4  psp file is ../../../Psps_for_tests/ATOMICDATA/Cl.GGA_PBE-JTH.xml
- pspatm: opening atomic psp file    ../../../Psps_for_tests/ATOMICDATA/Cl.GGA_PBE-JTH.xml
- pspatm : Reading pseudopotential header in XML form from ../../../Psps_for_tests/ATOMICDATA/Cl.GGA_PBE-JTH.xml
 Pseudopotential format is: paw10
 basis_size (lnmax)=  4 (lmn_size=  8), orbitals=   0   0   1   1
 Spheres core radius: rc_sph= 1.80315674
 1 radial meshes are used:
  - mesh 1: r(i)=AA*[exp(BB*(i-1))-1], size=1400 , AA= 0.50355E-03 BB= 0.85603E-02
 Shapefunction is SIN type: shapef(r)=[sin(pi*r/rshp)/(pi*r/rshp)]**2
 Radius for shape functions =  1.61320365
 mmax= 1400
 Radial grid used for partial waves is grid 1
 Radial grid used for projectors is grid 1
 Radial grid used for (t)core density is grid 1
 Radial grid used for Vloc is grid 1
 Radial grid used for pseudo valence density is grid 1
 Mesh size for Vloc has been set to 1238 to avoid numerical noise.
 Compensation charge density is not taken into account in XC energy/potential
 pspatm: atomic psp has been read  and splines computed

   4.43613238E+04                                ecore*ucvol(ha*bohr**3)
--------------------------------------------------------------------------------

_setup2: Arith. and geom. avg. npw (full set) are    7413.280    7413.270

================================================================================

--- !BeginCycle
iteration_state: {dtset: 1, }
solver: {iscf: 17, nstep: 2500, nline: 4, wfoptalg: 10, }
tolerances: {toldfe: 1.00E-08, }
...

     iter   Etot(hartree)      deltaE(h)  residm     nres2
 ETOT  1  -163.16598996177    -1.632E+02 7.073E+00 5.320E+00
 ETOT  2  -164.84959149872    -1.684E+00 2.746E-02 2.774E+00
 ETOT  3  -164.83706446226     1.253E-02 1.697E-02 4.528E-01
 ETOT  4  -164.83786827810    -8.038E-04 8.436E-03 1.039E-01
 ETOT  5  -164.83786099111     7.287E-06 5.171E-03 1.182E-02
 ETOT  6  -164.83791642750    -5.544E-05 2.909E-03 1.190E-03
 ETOT  7  -164.83793480891    -1.838E-05 3.193E-03 2.910E-04
 ETOT  8  -164.83793756211    -2.753E-06 1.548E-03 1.969E-05
 ETOT  9  -164.83793789313    -3.310E-07 1.062E-03 3.027E-06
 ETOT 10  -164.83793793325    -4.013E-08 1.035E-03 9.617E-07
 ETOT 11  -164.83793793723    -3.982E-09 5.583E-04 2.381E-07
 ETOT 12  -164.83793793794    -7.090E-10 1.013E-03 8.476E-08

 At SCF step   12, etot is converged : 
  for the second time, diff in etot=  7.090E-10 < toldfe=  1.000E-08

 Cartesian components of stress tensor (hartree/bohr^3)
  sigma(1 1)= -5.69614290E-05  sigma(3 2)= -3.23142317E-14
  sigma(2 2)= -5.68327572E-05  sigma(3 1)=  6.29389738E-14
  sigma(3 3)= -5.69614290E-05  sigma(2 1)= -3.23129108E-14


--- !ResultsGS
iteration_state: {dtset: 1, }
comment   : Summary of ground state results
lattice_vectors:
- [  0.0000000,  10.4773609,  10.7578875, ]
- [ 10.7578875,   0.0000000,  10.7578875, ]
- [ 10.7578875,  10.4773609,   0.0000000, ]
lattice_lengths: [  15.01690,   15.21395,   15.01690, ]
lattice_angles: [ 59.565,  60.870,  59.565, ] # degrees, (23, 13, 12)
lattice_volume:   2.4251349E+03
convergence: {deltae: -7.090E-10, res2:  8.476E-08, residm:  1.013E-03, diffor: null, }
etotal    :  -1.64837938E+02
entropy   :   0.00000000E+00
fermie    :  -1.04550637E-01
cartesian_stress_tensor: # hartree/bohr^3
- [ -5.69614290E-05,  -3.23129108E-14,   6.29389738E-14, ]
- [ -3.23129108E-14,  -5.68327572E-05,  -3.23142317E-14, ]
- [  6.29389738E-14,  -3.23142317E-14,  -5.69614290E-05, ]
pressure_GPa:   1.6746E+00
xred      :
- [  2.4828E-01,   2.5172E-01,   2.4828E-01, Cs]
- [  7.4828E-01,   7.5172E-01,   7.4828E-01, Cs]
- [  7.7399E-01,   2.2601E-01,   7.7399E-01, Cl]
- [  2.4884E-01,   2.5091E-01,   7.4909E-01,  I]
- [  7.4909E-01,   7.5116E-01,   2.4884E-01,  I]
- [  2.4869E-01,   7.5131E-01,   2.4869E-01,  I]
- [  2.4884E-01,   7.5116E-01,   7.4909E-01,  I]
- [  7.4909E-01,   2.5091E-01,   2.4884E-01,  I]
- [ -8.0569E-03,   8.0569E-03,  -8.0569E-03, Hf]
cartesian_forces: # hartree/bohr
- [ -1.29088834E-21,   3.12943365E-06,   1.26276872E-21, ]
- [ -1.29088834E-21,   3.12943365E-06,   1.26276872E-21, ]
- [  9.99821593E-21,  -5.23706448E-05,  -1.00263355E-20, ]
- [ -1.46624679E-17,   4.16530103E-06,  -3.48763999E-06, ]
- [  1.46609657E-17,   4.16530103E-06,   3.48763999E-06, ]
- [ -1.22938124E-21,   3.69906258E-06,   1.20126163E-21, ]
- [  3.48763999E-06,   4.16530103E-06,   1.46628588E-17, ]
- [ -3.48763999E-06,   4.16530103E-06,  -1.46601451E-17, ]
- [ -1.86831305E-21,   2.57515108E-05,   1.84019343E-21, ]
force_length_stats: {min:   3.12943365E-06, max:   5.23706448E-05, mean:   1.22011741E-05, }
...

 Integrated electronic density in atomic spheres:
 ------------------------------------------------
 Atom  Sphere_radius  Integrated_density
    1        2.20660          5.37130117
    2        2.20660          5.37130117
    3        1.80316          4.36704526
    4        2.30022          4.03492858
    5        2.30022          4.03492858
    6        2.30022          4.03580549
    7        2.30022          4.03492858
    8        2.30022          4.03492858
    9        2.41000          9.29869701

 PAW TEST:
 ==== Compensation charge inside spheres ============
 The following values must be close to each other ...
 Compensation charge over spherical meshes =     -0.739536484715149
 Compensation charge over fine fft grid    =     -0.739525158917792

 ==== Results concerning PAW augmentation regions ====

 Total pseudopotential strength Dij (hartree):
 Atom #  1
   0.44469  -0.14723   0.00000   0.00000   0.00000  -0.00000   0.00000   0.00000   0.00000   0.00000   0.00000  -0.00000 ...
  -0.14723   0.04440  -0.00000   0.00000   0.00000   0.00000   0.00000   0.00000   0.00000   0.00000  -0.00000   0.00000 ...
   0.00000  -0.00000  -0.09411   0.00000   0.00000  -0.16625   0.00000   0.00000   0.00000   0.00000   0.00000  -0.00000 ...
   0.00000   0.00000   0.00000  -0.09411  -0.00000   0.00000  -0.16625   0.00000  -0.00000   0.00000   0.00000   0.00000 ...
   0.00000   0.00000   0.00000  -0.00000  -0.09411   0.00000   0.00000  -0.16625   0.00000  -0.00000   0.00000   0.00000 ...
  -0.00000   0.00000  -0.16625   0.00000   0.00000   0.40537   0.00000   0.00000   0.00000   0.00000  -0.00000   0.00000 ...
   0.00000   0.00000   0.00000  -0.16625   0.00000   0.00000   0.40537  -0.00001   0.00000  -0.00000   0.00000   0.00000 ...
   0.00000   0.00000   0.00000   0.00000  -0.16625   0.00000  -0.00001   0.40537  -0.00000   0.00000   0.00000   0.00000 ...
   0.00000   0.00000   0.00000  -0.00000   0.00000   0.00000   0.00000  -0.00000   0.00515  -0.00000   0.00000   0.00000 ...
   0.00000   0.00000   0.00000   0.00000  -0.00000   0.00000  -0.00000   0.00000  -0.00000   0.00515   0.00000   0.00000 ...
   0.00000  -0.00000   0.00000   0.00000   0.00000  -0.00000   0.00000   0.00000   0.00000   0.00000   0.00515  -0.00000 ...
  -0.00000   0.00000  -0.00000   0.00000   0.00000   0.00000   0.00000   0.00000   0.00000   0.00000  -0.00000   0.00515 ...
   ...  only 12  components have been written...
 Atom #  9
  -3.52635   0.43109  -0.00029   0.00000   0.00000   0.00005   0.00000   0.00000   0.00000   0.00000  -0.00009   0.00000 ...
   0.43109   0.00230   0.00003   0.00000   0.00000  -0.00001   0.00000   0.00000   0.00000   0.00000   0.00001   0.00000 ...
  -0.00029   0.00003  -1.46862   0.00000   0.00000   0.12594   0.00000   0.00000   0.00000   0.00000   0.00007   0.00000 ...
   0.00000   0.00000   0.00000  -1.46924   0.00000   0.00000   0.12605   0.00000   0.00000  -0.00012   0.00000   0.00000 ...
   0.00000   0.00000   0.00000   0.00000  -1.46924   0.00000   0.00000   0.12605  -0.00012   0.00000   0.00000   0.00000 ...
   0.00005  -0.00001   0.12594   0.00000   0.00000   0.01297   0.00000   0.00000   0.00000   0.00000  -0.00001   0.00000 ...
   0.00000   0.00000   0.00000   0.12605   0.00000   0.00000   0.01296   0.00000   0.00000   0.00002   0.00000   0.00000 ...
   0.00000   0.00000   0.00000   0.00000   0.12605   0.00000   0.00000   0.01296   0.00002   0.00000   0.00000   0.00000 ...
   0.00000   0.00000   0.00000   0.00000  -0.00012   0.00000   0.00000   0.00002  -0.39646   0.00000   0.00000   0.00000 ...
   0.00000   0.00000   0.00000  -0.00012   0.00000   0.00000   0.00002   0.00000   0.00000  -0.39646   0.00000   0.00000 ...
  -0.00009   0.00001   0.00007   0.00000   0.00000  -0.00001   0.00000   0.00000   0.00000   0.00000  -0.39586   0.00000 ...
   0.00000   0.00000   0.00000   0.00000   0.00000   0.00000   0.00000   0.00000   0.00000   0.00000   0.00000  -0.39658 ...
   ...  only 12  components have been written...


 Augmentation waves occupancies Rhoij:
 Atom #  1
   1.99767  -0.01472   0.00001   0.00000   0.00000   0.00000   0.00000   0.00000   0.00000   0.00000   0.00060  -0.00338 ...
  -0.01472   0.16934   0.00007   0.00000   0.00000  -0.00001   0.00000   0.00000   0.00000   0.00000  -0.00682   0.01640 ...
   0.00001   0.00007   2.00829   0.00000   0.00000  -0.00507   0.00000   0.00000   0.00000   0.00000  -0.00011  -0.00099 ...
   0.00000   0.00000   0.00000   2.00718   0.00189   0.00000  -0.00485  -0.00031  -0.00120  -0.00014   0.00000   0.00000 ...
   0.00000   0.00000   0.00000   0.00189   2.00718   0.00000  -0.00031  -0.00485  -0.00014  -0.00120   0.00000   0.00000 ...
   0.00000  -0.00001  -0.00507   0.00000   0.00000   0.00013   0.00000   0.00000   0.00000   0.00000   0.00001   0.00003 ...
   0.00000   0.00000   0.00000  -0.00485  -0.00031   0.00000   0.00012   0.00002   0.00004   0.00000   0.00000   0.00000 ...
   0.00000   0.00000   0.00000  -0.00031  -0.00485   0.00000   0.00002   0.00012   0.00000   0.00004   0.00000   0.00000 ...
   0.00000   0.00000   0.00000  -0.00120  -0.00014   0.00000   0.00004   0.00000   0.06574   0.00022   0.00000   0.00000 ...
   0.00000   0.00000   0.00000  -0.00014  -0.00120   0.00000   0.00000   0.00004   0.00022   0.06574   0.00000   0.00000 ...
   0.00060  -0.00682  -0.00011   0.00000   0.00000   0.00001   0.00000   0.00000   0.00000   0.00000   0.04137   0.00706 ...
  -0.00338   0.01640  -0.00099   0.00000   0.00000   0.00003   0.00000   0.00000   0.00000   0.00000   0.00706   0.03955 ...
   ...  only 12  components have been written...
 Atom #  9
   1.99792  -0.02066   0.00002   0.00000   0.00000   0.00052   0.00000   0.00000   0.00000   0.00000  -0.00031   0.00000 ...
  -0.02066   1.00898   0.00295   0.00000   0.00000  -0.04568   0.00000   0.00000   0.00000   0.00000  -0.02384   0.00000 ...
   0.00002   0.00295   1.99254   0.00000   0.00000  -0.06477   0.00000   0.00000   0.00000   0.00000   0.00019   0.00000 ...
   0.00000   0.00000   0.00000   1.99296   0.00000   0.00000  -0.05929   0.00000   0.00000  -0.00142   0.00000   0.00000 ...
   0.00000   0.00000   0.00000   0.00000   1.99296   0.00000   0.00000  -0.05929  -0.00142   0.00000   0.00000   0.00000 ...
   0.00052  -0.04568  -0.06477   0.00000   0.00000   1.38232   0.00000   0.00000   0.00000   0.00000   0.09130   0.00000 ...
   0.00000   0.00000   0.00000  -0.05929   0.00000   0.00000   1.18537   0.00000   0.00000   0.02935   0.00000   0.00000 ...
   0.00000   0.00000   0.00000   0.00000  -0.05929   0.00000   0.00000   1.18537   0.02935   0.00000   0.00000   0.00000 ...
   0.00000   0.00000   0.00000   0.00000  -0.00142   0.00000   0.00000   0.02935   0.49163   0.00000   0.00000   0.00000 ...
   0.00000   0.00000   0.00000  -0.00142   0.00000   0.00000   0.02935   0.00000   0.00000   0.49163   0.00000   0.00000 ...
  -0.00031  -0.02384   0.00019   0.00000   0.00000   0.09130   0.00000   0.00000   0.00000   0.00000   1.39383   0.00000 ...
   0.00000   0.00000   0.00000   0.00000   0.00000   0.00000   0.00000   0.00000   0.00000   0.00000   0.00000   0.44724 ...
   ...  only 12  components have been written...


================================================================================

 ----iterations are completed or convergence reached----

 Mean square residual over all n,k,spin=   16.867E-07; max=  10.128E-04
 reduced coordinates (array xred) for    9 atoms
       0.248277620420      0.251722379580      0.248277620420
       0.748277620420      0.751722379580      0.748277620420
       0.773986498880      0.226013501120      0.773986498880
       0.248836114050      0.250911677750      0.749088322250
       0.749088322250      0.751163885950      0.248836114050
       0.248690424900      0.751309575100      0.248690424900
       0.248836114050      0.751163885950      0.749088322250
       0.749088322250      0.250911677750      0.248836114050
      -0.008056858251      0.008056858251     -0.008056858251
 rms dE/dt=  1.7099E-04; max dE/dt=  5.6964E-04; dE/dt below (all hartree)
    1      -0.000011858862      0.000000000000     -0.000011858862
    2      -0.000011858862      0.000000000000     -0.000011858862
    3       0.000569635488      0.000000000000      0.000569635488
    4       0.000014807620      0.000037519639     -0.000022712019
    5      -0.000060231657     -0.000037519639     -0.000022712019
    6      -0.000017827070      0.000000000000     -0.000017827070
    7      -0.000022712019     -0.000037519639     -0.000060231657
    8      -0.000022712019      0.000037519639      0.000014807620
    9      -0.000248878528      0.000000000000     -0.000248878528

 cartesian coordinates (angstrom) at end:
    1      2.84641443114562     2.75309123849523     2.84641443114562
    2      8.53924329343701     8.29747182712410     8.53924329343701
    3      5.69282886230451     8.58255144050218     5.69282886230451
    4      5.69282886230332     5.53287287354012     2.84497865302538
    5      5.69282886227937     5.53287287354012     8.54067907155731
    6      5.69282886227937     2.75766872878685     5.69282886227937
    7      8.54067907155731     5.53287287354012     5.69282886227937
    8      2.84497865302538     5.53287287354012     5.69282886230332
    9     -0.00000000000039    -0.08934057698214    -0.00000000000039

 cartesian forces (hartree/bohr) at end:
    1     -0.00000000000000     0.00000312943365     0.00000000000000
    2     -0.00000000000000     0.00000312943365     0.00000000000000
    3      0.00000000000000    -0.00005237064475    -0.00000000000000
    4     -0.00000000000000     0.00000416530103    -0.00000348763999
    5      0.00000000000000     0.00000416530103     0.00000348763999
    6     -0.00000000000000     0.00000369906258     0.00000000000000
    7      0.00000348763999     0.00000416530103     0.00000000000000
    8     -0.00000348763999     0.00000416530103    -0.00000000000000
    9     -0.00000000000000     0.00002575151076     0.00000000000000
 frms,max,avg= 1.1478076E-05 5.2370645E-05   0.000E+00 -1.998E-06  0.000E+00 h/b

 cartesian forces (eV/Angstrom) at end:
    1     -0.00000000000000     0.00016092193497     0.00000000000000
    2     -0.00000000000000     0.00016092193497     0.00000000000000
    3      0.00000000000000    -0.00269300660382    -0.00000000000000
    4     -0.00000000000000     0.00021418837264    -0.00017934164409
    5      0.00000000000000     0.00021418837264     0.00017934164409
    6     -0.00000000000000     0.00019021342963     0.00000000000000
    7      0.00017934164409     0.00021418837264     0.00000000000000
    8     -0.00017934164409     0.00021418837264    -0.00000000000000
    9     -0.00000000000000     0.00132419581368     0.00000000000000
 frms,max,avg= 5.9022633E-04 2.6930066E-03   0.000E+00 -1.027E-04  0.000E+00 e/A
 length scales= 15.016898283000 15.213950364000 15.016898283000 bohr
              =  7.946600315078  8.050875785248  7.946600315078 angstroms
 prteigrs : about to open file Cs2TiI6o_DS1_EIG
 Fermi (or HOMO) energy (hartree) =  -0.10455   Average Vxc (hartree)=  -0.30309
 Eigenvalues (hartree) for nkpt= 163  k points:
 kpt#   1, nband= 42, wtk=  0.00058, kpt=  0.0000  0.0000  0.0000 (reduced coord)
  -2.40746   -1.25230   -1.25182   -1.25182   -0.85850   -0.85825   -0.64004   -0.54524
  -0.52562   -0.52562   -0.52050   -0.51766   -0.37973   -0.37828   -0.37828   -0.37583
  -0.37570   -0.37570   -0.26968   -0.22225   -0.21904   -0.21904   -0.20125   -0.20125
  -0.19634   -0.18893   -0.17639   -0.15777   -0.15777   -0.13974   -0.12379   -0.12379
  -0.12066   -0.10679   -0.10455   -0.10455   -0.03204   -0.02391   -0.02391    0.04076
   0.04745    0.05583
 prteigrs : prtvol=0 or 1, do not print more k-points.


--- !EnergyTerms
iteration_state     : {dtset: 1, }
comment             : Components of total free energy in Hartree
kinetic             :  3.94326739673669E+01
hartree             :  3.33574171123767E+01
xc                  : -5.82599627855587E+01
Ewald energy        : -1.21534842199069E+02
psp_core            :  1.82923121586280E+01
local_psp           : -6.99988391777234E+01
spherical_terms     : -6.12678874403428E+00
total_energy        : -1.64838029668013E+02
total_energy_eV     : -4.48547090002238E+03
...


--- !EnergyTermsDC
iteration_state     : {dtset: 1, }
comment             : '"Double-counting" decomposition of free energy'
band_energy         : -3.30960788695173E+01
Ewald energy        : -1.21534842199069E+02
psp_core            :  1.82923121586280E+01
xc_dc               : -5.38933857519176E+01
spherical_terms     :  2.53940567239318E+01
total_energy_dc     : -1.64837937937944E+02
total_energy_dc_eV  : -4.48546840392025E+03
...


 Cartesian components of stress tensor (hartree/bohr^3)
  sigma(1 1)= -5.69614290E-05  sigma(3 2)= -3.23142317E-14
  sigma(2 2)= -5.68327572E-05  sigma(3 1)=  6.29389738E-14
  sigma(3 3)= -5.69614290E-05  sigma(2 1)= -3.23129108E-14

-Cartesian components of stress tensor (GPa)         [Pressure=  1.6746E+00 GPa]
- sigma(1 1)= -1.67586282E+00  sigma(3 2)= -9.50717360E-10
- sigma(2 2)= -1.67207716E+00  sigma(3 1)=  1.85172823E-09
- sigma(3 3)= -1.67586282E+00  sigma(2 1)= -9.50678497E-10

================================================================================
== DATASET  2 ==================================================================
-   mpi_nproc: 4, omp_nthreads: -1 (-1 if OMP is not activated)


--- !DatasetInfo
iteration_state: {dtset: 2, }
dimensions: {natom: 9, nkpt: 163, mband: 42, nsppol: 1, nspinor: 1, nspden: 1, mpw: 7435, }
cutoff_energies: {ecut:  16.0, pawecutdg:  40.0, }
electrons: {nelect:   7.20000000E+01, charge:   0.00000000E+00, occopt:   1.00000000E+00, tsmear:   1.00000000E-02, }
meta: {optdriver: 0, ionmov: 0, optcell: 0, iscf: 17, paral_kgb: 0, }
...

 Real(R)+Recip(G) space primitive vectors, cartesian coordinates (Bohr,Bohr^-1):
 R(1)=  0.0000000 10.4661985 10.7474651  G(1)= -0.0465226  0.0477728  0.0465226
 R(2)= 10.7474651  0.0000000 10.7474651  G(2)=  0.0465226 -0.0477728  0.0465226
 R(3)= 10.7474651 10.4661985  0.0000000  G(3)=  0.0465226  0.0477728 -0.0465226
 Unit cell volume ucvol=  2.4178595E+03 bohr^3
 Angles (23,13,12)=  5.95633851E+01  6.08732297E+01  5.95633851E+01 degrees

 Coarse grid specifications (used for wave-functions):

 getcut: wavevector=  0.0000  0.0000  0.0000  ngfft=  60  60  60
         ecut(hartree)=     16.000   => boxcut(ratio)=   2.19233

 Fine grid specifications (used for densities):

 getcut: wavevector=  0.0000  0.0000  0.0000  ngfft=  90  90  90
         ecut(hartree)=     40.000   => boxcut(ratio)=   2.08009

--- Pseudopotential description ------------------------------------------------
- pspini: atom type   1  psp file is ../../../Psps_for_tests/ATOMICDATA/Cs.GGA_PBE-JTH.xml
- pspatm: opening atomic psp file    ../../../Psps_for_tests/ATOMICDATA/Cs.GGA_PBE-JTH.xml
- pspatm : Reading pseudopotential header in XML form from ../../../Psps_for_tests/ATOMICDATA/Cs.GGA_PBE-JTH.xml
 Pseudopotential format is: paw10
 basis_size (lnmax)=  6 (lmn_size= 18), orbitals=   0   0   1   1   2   2
 Spheres core radius: rc_sph= 2.20660278
 1 radial meshes are used:
  - mesh 1: r(i)=AA*[exp(BB*(i-1))-1], size=1500 , AA= 0.15922E-03 BB= 0.87573E-02
 Shapefunction is SIN type: shapef(r)=[sin(pi*r/rshp)/(pi*r/rshp)]**2
 Radius for shape functions =  2.00394208
 mmax= 1500
 Radial grid used for partial waves is grid 1
 Radial grid used for projectors is grid 1
 Radial grid used for (t)core density is grid 1
 Radial grid used for Vloc is grid 1
 Radial grid used for pseudo valence density is grid 1
 Mesh size for Vloc has been set to 1341 to avoid numerical noise.
 Compensation charge density is not taken into account in XC energy/potential
 pspatm: atomic psp has been read  and splines computed

- pspini: atom type   2  psp file is ../../../Psps_for_tests/ATOMICDATA/I.GGA_PBE-JTH.xml
- pspatm: opening atomic psp file    ../../../Psps_for_tests/ATOMICDATA/I.GGA_PBE-JTH.xml
- pspatm : Reading pseudopotential header in XML form from ../../../Psps_for_tests/ATOMICDATA/I.GGA_PBE-JTH.xml
 Pseudopotential format is: paw10
 basis_size (lnmax)=  4 (lmn_size=  8), orbitals=   0   0   1   1
 Spheres core radius: rc_sph= 2.30022271
 1 radial meshes are used:
  - mesh 1: r(i)=AA*[exp(BB*(i-1))-1], size=2000 , AA= 0.12610E-03 BB= 0.66836E-02
 Shapefunction is SIN type: shapef(r)=[sin(pi*r/rshp)/(pi*r/rshp)]**2
 Radius for shape functions =  2.10879093
 mmax= 2000
 Radial grid used for partial waves is grid 1
 Radial grid used for projectors is grid 1
 Radial grid used for (t)core density is grid 1
 Radial grid used for Vloc is grid 1
 Radial grid used for pseudo valence density is grid 1
 Mesh size for Vloc has been set to 1792 to avoid numerical noise.
 Compensation charge density is not taken into account in XC energy/potential
 pspatm: atomic psp has been read  and splines computed

- pspini: atom type   3  psp file is ../../../Psps_for_tests/ATOMICDATA/Hf.GGA_PBE-JTH.xml
- pspatm: opening atomic psp file    ../../../Psps_for_tests/ATOMICDATA/Hf.GGA_PBE-JTH.xml
- pspatm : Reading pseudopotential header in XML form from ../../../Psps_for_tests/ATOMICDATA/Hf.GGA_PBE-JTH.xml
 Pseudopotential format is: paw10
 basis_size (lnmax)=  6 (lmn_size= 18), orbitals=   0   0   1   1   2   2
 Spheres core radius: rc_sph= 2.41000000
 1 radial meshes are used:
  - mesh 1: r(i)=AA*[exp(BB*(i-1))-1], size= 972 , AA= 0.19796E-03 BB= 0.14253E-01
 Shapefunction is SIN type: shapef(r)=[sin(pi*r/rshp)/(pi*r/rshp)]**2
 Radius for shape functions =  2.41000000
 mmax=  972
 Radial grid used for partial waves is grid 1
 Radial grid used for projectors is grid 1
 Radial grid used for (t)core density is grid 1
 Radial grid used for Vloc is grid 1
 Radial grid used for pseudo valence density is grid 1
 Mesh size for Vloc has been set to  809 to avoid numerical noise.
 Compensation charge density is not taken into account in XC energy/potential
 pspatm: atomic psp has been read  and splines computed

- pspini: atom type   4  psp file is ../../../Psps_for_tests/ATOMICDATA/Cl.GGA_PBE-JTH.xml
- pspatm: opening atomic psp file    ../../../Psps_for_tests/ATOMICDATA/Cl.GGA_PBE-JTH.xml
- pspatm : Reading pseudopotential header in XML form from ../../../Psps_for_tests/ATOMICDATA/Cl.GGA_PBE-JTH.xml
 Pseudopotential format is: paw10
 basis_size (lnmax)=  4 (lmn_size=  8), orbitals=   0   0   1   1
 Spheres core radius: rc_sph= 1.80315674
 1 radial meshes are used:
  - mesh 1: r(i)=AA*[exp(BB*(i-1))-1], size=1400 , AA= 0.50355E-03 BB= 0.85603E-02
 Shapefunction is SIN type: shapef(r)=[sin(pi*r/rshp)/(pi*r/rshp)]**2
 Radius for shape functions =  1.61320365
 mmax= 1400
 Radial grid used for partial waves is grid 1
 Radial grid used for projectors is grid 1
 Radial grid used for (t)core density is grid 1
 Radial grid used for Vloc is grid 1
 Radial grid used for pseudo valence density is grid 1
 Mesh size for Vloc has been set to 1238 to avoid numerical noise.
 Compensation charge density is not taken into account in XC energy/potential
 pspatm: atomic psp has been read  and splines computed

--------------------------------------------------------------------------------

_setup2: Arith. and geom. avg. npw (full set) are    7391.053    7391.042

================================================================================

--- !BeginCycle
iteration_state: {dtset: 2, }
solver: {iscf: 17, nstep: 2500, nline: 4, wfoptalg: 10, }
tolerances: {toldfe: 1.00E-08, }
...

     iter   Etot(hartree)      deltaE(h)  residm     nres2
 ETOT  1  -163.16783190743    -1.632E+02 7.383E+00 5.168E+00
 ETOT  2  -164.85034625352    -1.683E+00 2.995E-02 2.956E+00
 ETOT  3  -164.83657593545     1.377E-02 1.681E-02 4.774E-01
 ETOT  4  -164.83740355650    -8.276E-04 6.847E-03 1.059E-01
 ETOT  5  -164.83741398084    -1.042E-05 6.236E-03 1.314E-02
 ETOT  6  -164.83746714830    -5.317E-05 3.072E-03 1.143E-03
 ETOT  7  -164.83748489477    -1.775E-05 2.147E-03 3.323E-04
 ETOT  8  -164.83748768303    -2.788E-06 2.912E-03 2.432E-05
 ETOT  9  -164.83748794995    -2.669E-07 1.478E-03 3.795E-06
 ETOT 10  -164.83748800135    -5.140E-08 1.133E-03 1.619E-06
 ETOT 11  -164.83748800351    -2.156E-09 7.483E-04 3.743E-07
 ETOT 12  -164.83748800529    -1.780E-09 5.883E-04 2.086E-07

 At SCF step   12, etot is converged : 
  for the second time, diff in etot=  1.780E-09 < toldfe=  1.000E-08

 Cartesian components of stress tensor (hartree/bohr^3)
  sigma(1 1)= -5.87673910E-05  sigma(3 2)=  7.76658611E-15
  sigma(2 2)= -5.86272010E-05  sigma(3 1)= -1.51280589E-14
  sigma(3 3)= -5.87673910E-05  sigma(2 1)=  7.76831087E-15


--- !ResultsGS
iteration_state: {dtset: 2, }
comment   : Summary of ground state results
lattice_vectors:
- [  0.0000000,  10.4661985,  10.7474651, ]
- [ 10.7474651,   0.0000000,  10.7474651, ]
- [ 10.7474651,  10.4661985,   0.0000000, ]
lattice_lengths: [  15.00164,   15.19921,   15.00164, ]
lattice_angles: [ 59.563,  60.873,  59.563, ] # degrees, (23, 13, 12)
lattice_volume:   2.4178595E+03
convergence: {deltae: -1.780E-09, res2:  2.086E-07, residm:  5.883E-04, diffor: null, }
etotal    :  -1.64837488E+02
entropy   :   0.00000000E+00
fermie    :  -1.04083202E-01
cartesian_stress_tensor: # hartree/bohr^3
- [ -5.87673910E-05,   7.76831087E-15,  -1.51280589E-14, ]
- [  7.76831087E-15,  -5.86272010E-05,   7.76658611E-15, ]
- [ -1.51280589E-14,   7.76658611E-15,  -5.87673910E-05, ]
pressure_GPa:   1.7276E+00
xred      :
- [  2.4830E-01,   2.5170E-01,   2.4830E-01, Cs]
- [  7.4830E-01,   7.5170E-01,   7.4830E-01, Cs]
- [  7.7369E-01,   2.2631E-01,   7.7369E-01, Cl]
- [  2.4905E-01,   2.5104E-01,   7.4896E-01,  I]
- [  7.4896E-01,   7.5095E-01,   2.4905E-01,  I]
- [  2.4883E-01,   7.5117E-01,   2.4883E-01,  I]
- [  2.4905E-01,   7.5095E-01,   7.4896E-01,  I]
- [  7.4896E-01,   2.5104E-01,   2.4905E-01,  I]
- [ -8.1231E-03,   8.1231E-03,  -8.1231E-03, Hf]
cartesian_forces: # hartree/bohr
- [ -1.64321850E-21,   1.11446391E-05,   1.58466896E-21, ]
- [  2.48277821E-22,   1.11446391E-05,  -3.06827354E-22, ]
- [  2.32133539E-21,  -6.42896595E-05,  -2.37988493E-21, ]
- [  2.03758117E-18,   8.19810829E-07,  -2.02815307E-06, ]
- [ -2.03768610E-18,   8.19810829E-07,   2.02815307E-06, ]
- [  2.59980900E-22,   4.16700195E-06,  -3.18530433E-22, ]
- [  2.02815307E-06,   8.19810829E-07,  -2.03752245E-18, ]
- [ -2.02815307E-06,   8.19810829E-07,   2.03741147E-18, ]
- [ -1.09394777E-21,   3.45541360E-05,   1.03539823E-21, ]
force_length_stats: {min:   2.18757735E-06, max:   6.42896595E-05, mean:   1.48944872E-05, }
...

 Integrated electronic density in atomic spheres:
 ------------------------------------------------
 Atom  Sphere_radius  Integrated_density
    1        2.20660          5.36791841
    2        2.20660          5.36791841
    3        1.80316          4.37436002
    4        2.30022          4.03410952
    5        2.30022          4.03410952
    6        2.30022          4.03855559
    7        2.30022          4.03410952
    8        2.30022          4.03410952
    9        2.41000          9.30063742

 PAW TEST:
 ==== Compensation charge inside spheres ============
 The following values must be close to each other ...
 Compensation charge over spherical meshes =     -0.739747437194322
 Compensation charge over fine fft grid    =     -0.739736151979736

 ==== Results concerning PAW augmentation regions ====

 Total pseudopotential strength Dij (hartree):
 Atom #  1
   0.44457  -0.14719   0.00000   0.00000   0.00000  -0.00000   0.00000   0.00000   0.00000   0.00000   0.00000  -0.00000 ...
  -0.14719   0.04439  -0.00000   0.00000   0.00000   0.00000   0.00000   0.00000   0.00000   0.00000  -0.00000   0.00000 ...
   0.00000  -0.00000  -0.09410   0.00000   0.00000  -0.16626   0.00000   0.00000   0.00000   0.00000   0.00000  -0.00000 ...
   0.00000   0.00000   0.00000  -0.09409  -0.00000   0.00000  -0.16626   0.00000  -0.00000   0.00000   0.00000   0.00000 ...
   0.00000   0.00000   0.00000  -0.00000  -0.09409   0.00000   0.00000  -0.16626   0.00000  -0.00000   0.00000   0.00000 ...
  -0.00000   0.00000  -0.16626   0.00000   0.00000   0.40533   0.00000   0.00000   0.00000   0.00000  -0.00000   0.00000 ...
   0.00000   0.00000   0.00000  -0.16626   0.00000   0.00000   0.40534  -0.00001   0.00000  -0.00000   0.00000   0.00000 ...
   0.00000   0.00000   0.00000   0.00000  -0.16626   0.00000  -0.00001   0.40534  -0.00000   0.00000   0.00000   0.00000 ...
[...]
                       8.4624877428E+00  5.4856259796E+00  5.6504787379E+00
                       2.8384697330E+00  5.4856259796E+00  5.6504787379E+00
                      -1.1522013703E-12 -9.4088665143E-02 -1.1522013703E-12
           xangst10    2.8225989365E+00  2.7287051284E+00  2.8225989365E+00
                       8.4677968095E+00  8.2160224012E+00  8.4677968095E+00
                       5.6451978730E+00  8.4627217756E+00  5.6451978730E+00
                       5.6451978730E+00  5.4797417915E+00  2.8375822713E+00
                       5.6451978730E+00  5.4797417915E+00  8.4528134747E+00
                       5.6451978730E+00  2.7444687725E+00  5.6451978730E+00
                       8.4528134747E+00  5.4797417915E+00  5.6451978730E+00
                       2.8375822713E+00  5.4797417915E+00  5.6451978730E+00
                       1.3979417741E-12 -9.5259263622E-02  1.3979417741E-12
            xcart1     5.3789437356E+00  5.2025884596E+00  5.3789437356E+00
                       1.6136831207E+01  1.5679949349E+01  1.6136831207E+01
                       1.0757887471E+01  1.6218671744E+01  1.0757887471E+01
                       1.0757887471E+01  1.0455614459E+01  5.3762305081E+00
                       1.0757887471E+01  1.0455614459E+01  1.6139544434E+01
                       1.0757887471E+01  5.2112386626E+00  1.0757887471E+01
                       1.6139544434E+01  1.0455614459E+01  1.0757887471E+01
                       5.3762305081E+00  1.0455614459E+01  1.0757887471E+01
                      -7.2872138499E-13 -1.6882922305E-01 -7.2872138499E-13
            xcart2     5.3737325735E+00  5.1975544880E+00  5.3737325735E+00
                       1.6121197721E+01  1.5663752959E+01  1.6121197721E+01
                       1.0747465147E+01  1.6195264972E+01  1.0747465147E+01
                       1.0747465147E+01  1.0445350462E+01  5.3747230832E+00
                       1.0747465147E+01  1.0445350462E+01  1.6120207211E+01
                       1.0747465147E+01  5.2086831960E+00  1.0747465147E+01
                       1.6120207211E+01  1.0445350462E+01  1.0747465147E+01
                       5.3747230832E+00  1.0445350462E+01  1.0747465147E+01
                       1.7539007486E-13 -1.7003679407E-01  1.7539007486E-13
            xcart3     5.3685024025E+00  5.1923006072E+00  5.3685024025E+00
                       1.6105507208E+01  1.5647410764E+01  1.6105507208E+01
                       1.0737004805E+01  1.6172280567E+01  1.0737004805E+01
                       1.0737004805E+01  1.0435099764E+01  5.3732158165E+00
                       1.0737004805E+01  1.0435099764E+01  1.6100793794E+01
                       1.0737004805E+01  5.2062596007E+00  1.0737004805E+01
                       1.6100793794E+01  1.0435099764E+01  1.0737004805E+01
                       5.3732158165E+00  1.0435099764E+01  1.0737004805E+01
                       5.8803124688E-12 -1.7089221416E-01  5.8803124688E-12
            xcart4     5.3633954757E+00  5.1869198176E+00  5.3633954757E+00
                       1.6090186427E+01  1.5630461737E+01  1.6090186427E+01
                       1.0726790951E+01  1.6148323689E+01  1.0726790951E+01
                       1.0726790951E+01  1.0424327641E+01  5.3716880915E+00
                       1.0726790951E+01  1.0424327641E+01  1.6081893811E+01
                       1.0726790951E+01  5.2038248620E+00  1.0726790951E+01
                       1.6081893811E+01  1.0424327641E+01  1.0726790951E+01
                       5.3716880915E+00  1.0424327641E+01  1.0726790951E+01
                      -1.0678835104E-12 -1.7179069744E-01 -1.0678835104E-12
            xcart5     5.3590069094E+00  5.1796786518E+00  5.3590069094E+00
                       1.6077020728E+01  1.5608855934E+01  1.6077020728E+01
                       1.0718013819E+01  1.6119394089E+01  1.0718013819E+01
                       1.0718013819E+01  1.0410629327E+01  5.3703165396E+00
                       1.0718013819E+01  1.0410629327E+01  1.6065711098E+01
                       1.0718013819E+01  5.2014760409E+00  1.0718013819E+01
                       1.6065711098E+01  1.0410629327E+01  1.0718013819E+01
                       5.3703165396E+00  1.0410629327E+01  1.0718013819E+01
                      -1.2381790269E-12 -1.7199095229E-01 -1.2381790269E-12
            xcart6     5.3538932166E+00  5.1754245411E+00  5.3538932166E+00
                       1.6061679650E+01  1.5593060690E+01  1.6061679650E+01
                       1.0707786433E+01  1.6094753094E+01  1.0707786433E+01
                       1.0707786433E+01  1.0399808487E+01  5.3687444742E+00
                       1.0707786433E+01  1.0399808487E+01  1.6046828392E+01
                       1.0707786433E+01  5.1984831765E+00  1.0707786433E+01
                       1.6046828392E+01  1.0399808487E+01  1.0707786433E+01
                       5.3687444742E+00  1.0399808487E+01  1.0707786433E+01
                       1.5613349944E-12 -1.7351557490E-01  1.5613349944E-12
            xcart7     5.3490187238E+00  5.1700982950E+00  5.3490187238E+00
                       1.6047056171E+01  1.5575262804E+01  1.6047056171E+01
                       1.0698037447E+01  1.6068569670E+01  1.0698037447E+01
                       1.0698037447E+01  1.0388192617E+01  5.3671739256E+00
                       1.0698037448E+01  1.0388192617E+01  1.6028900969E+01
                       1.0698037448E+01  5.1956034114E+00  1.0698037448E+01
                       1.6028900969E+01  1.0388192617E+01  1.0698037448E+01
                       5.3671739256E+00  1.0388192617E+01  1.0698037447E+01
                       4.5232076424E-13 -1.7481309747E-01  4.5232076424E-13
            xcart8     5.3438998807E+00  5.1659409081E+00  5.3438998807E+00
                       1.6031699642E+01  1.5559584784E+01  1.6031699642E+01
                       1.0687799761E+01  1.6043841992E+01  1.0687799761E+01
                       1.0687799761E+01  1.0377458144E+01  5.3655497911E+00
                       1.0687799762E+01  1.0377458144E+01  1.6010049732E+01
                       1.0687799762E+01  5.1924880014E+00  1.0687799762E+01
                       1.6010049732E+01  1.0377458144E+01  1.0687799762E+01
                       5.3655497911E+00  1.0377458144E+01  1.0687799761E+01
                       6.6784699208E-12 -1.7652362170E-01  6.6784699208E-12
            xcart9     5.3389286672E+00  5.1606214433E+00  5.3389286672E+00
                       1.6016786001E+01  1.5542170690E+01  1.6016786001E+01
                       1.0677857334E+01  1.6018301112E+01  1.0677857334E+01
                       1.0677857334E+01  1.0366330769E+01  5.3639304319E+00
                       1.0677857334E+01  1.0366330769E+01  1.5991784237E+01
                       1.0677857334E+01  5.1896231825E+00  1.0677857334E+01
                       1.5991784237E+01  1.0366330769E+01  1.0677857334E+01
                       5.3639304319E+00  1.0366330769E+01  1.0677857334E+01
                      -2.1773450397E-12 -1.7780180933E-01 -2.1773450397E-12
            xcart10    5.3339389730E+00  5.1565053900E+00  5.3339389730E+00
                       1.6001816919E+01  1.5526032240E+01  1.6001816919E+01
                       1.0667877946E+01  1.5992226495E+01  1.0667877946E+01
                       1.0667877946E+01  1.0355211265E+01  5.3622533722E+00
                       1.0667877946E+01  1.0355211265E+01  1.5973502520E+01
                       1.0667877946E+01  5.1862943604E+00  1.0667877946E+01
                       1.5973502520E+01  1.0355211265E+01  1.0667877946E+01
                       5.3622533722E+00  1.0355211265E+01  1.0667877946E+01
                       2.6417271028E-12 -1.8001391987E-01  2.6417271028E-12
             xred1     2.4827762042E-01  2.5172237958E-01  2.4827762042E-01
                       7.4827762042E-01  7.5172237958E-01  7.4827762042E-01
                       7.7398649888E-01  2.2601350112E-01  7.7398649888E-01
                       2.4883611405E-01  2.5091167775E-01  7.4908832225E-01
                       7.4908832225E-01  7.5116388595E-01  2.4883611405E-01
                       2.4869042490E-01  7.5130957510E-01  2.4869042490E-01
                       2.4883611405E-01  7.5116388595E-01  7.4908832225E-01
                       7.4908832225E-01  2.5091167775E-01  2.4883611405E-01
                      -8.0568582508E-03  8.0568582508E-03 -8.0568582508E-03
             xred2     2.4830192656E-01  2.5169807344E-01  2.4830192656E-01
                       7.4830192656E-01  7.5169807344E-01  7.4830192656E-01
                       7.7369376366E-01  2.2630623634E-01  7.7369376366E-01
                       2.4905011254E-01  2.5104204963E-01  7.4895795037E-01
                       7.4895795037E-01  7.5094988746E-01  2.4905011254E-01
                       2.4883357652E-01  7.5116642348E-01  2.4883357652E-01
                       2.4905011254E-01  7.5094988746E-01  7.4895795037E-01
                       7.4895795037E-01  2.5104204963E-01  2.4905011254E-01
                      -8.1231401519E-03  8.1231401519E-03 -8.1231401519E-03
             xred3     2.4831400767E-01  2.5168599233E-01  2.4831400767E-01
                       7.4831400767E-01  7.5168599233E-01  7.4831400767E-01
                       7.7341512067E-01  2.2658487933E-01  7.7341512067E-01
                       2.4926252683E-01  2.5117646096E-01  7.4882353904E-01
                       7.4882353904E-01  7.5073747317E-01  2.4926252683E-01
                       2.4898157565E-01  7.5101842435E-01  2.4898157565E-01
                       2.4926252683E-01  7.5073747317E-01  7.4882353904E-01
                       7.4882353904E-01  2.5117646096E-01  2.4926252683E-01
                      -8.1726644483E-03  8.1726644483E-03 -8.1726644483E-03
             xred4     2.4833145007E-01  2.5166854993E-01  2.4833145007E-01
                       7.4833145007E-01  7.5166854993E-01  7.4833145007E-01
                       7.7312485615E-01  2.2687514385E-01  7.7312485615E-01
                       2.4946662562E-01  2.5130644956E-01  7.4869355044E-01
                       7.4869355044E-01  7.5053337438E-01  2.4946662562E-01
                       2.4914080405E-01  7.5085919595E-01  2.4914080405E-01
                       2.4946662562E-01  7.5053337438E-01  7.4869355044E-01
                       7.4869355044E-01  2.5130644956E-01  2.4946662562E-01
                      -8.2247334649E-03  8.2247334649E-03 -8.2247334649E-03
             xred5     2.4832633063E-01  2.5167366937E-01  2.4832633063E-01
                       7.4832633063E-01  7.5167366937E-01  7.4832633063E-01
                       7.7280276541E-01  2.2719723459E-01  7.7280276541E-01
                       2.4963836531E-01  2.5141683301E-01  7.4858316699E-01
                       7.4858316699E-01  7.5036163469E-01  2.4963836531E-01
                       2.4937135022E-01  7.5062864978E-01  2.4937135022E-01
                       2.4963836531E-01  7.5036163469E-01  7.4858316699E-01
                       7.4858316699E-01  2.5141683301E-01  2.4963836531E-01
                      -8.2456625120E-03  8.2456625120E-03 -8.2456625120E-03
             xred6     2.4839725956E-01  2.5160274044E-01  2.4839725956E-01
                       7.4839725956E-01  7.5160274044E-01  7.4839725956E-01
                       7.7247625391E-01  2.2752374609E-01  7.7247625391E-01
                       2.4983783120E-01  2.5154912750E-01  7.4845087250E-01
                       7.4845087250E-01  7.5016216880E-01  2.4983783120E-01
                       2.4950397106E-01  7.5049602894E-01  2.4950397106E-01
                       2.4983783120E-01  7.5016216880E-01  7.4845087250E-01
                       7.4845087250E-01  2.5154912750E-01  2.4983783120E-01
                      -8.3279725080E-03  8.3279725080E-03 -8.3279725080E-03
             xred7     2.4843904632E-01  2.5156095368E-01  2.4843904632E-01
                       7.4843904632E-01  7.5156095368E-01  7.4843904632E-01
                       7.7214395100E-01  2.2785604900E-01  7.7214395100E-01
                       2.5003297817E-01  2.5166408093E-01  7.4833591907E-01
                       7.4833591907E-01  7.4996702183E-01  2.5003297817E-01
                       2.4966464522E-01  7.5033535478E-01  2.4966464522E-01
                       2.5003297817E-01  7.4996702183E-01  7.4833591907E-01
                       7.4833591907E-01  2.5166408093E-01  2.5003297817E-01
                      -8.4003043542E-03  8.4003043542E-03 -8.4003043542E-03
             xred8     2.4851442716E-01  2.5148557284E-01  2.4851442716E-01
                       7.4851442716E-01  7.5148557284E-01  7.4851442716E-01
                       7.7181026127E-01  2.2818973873E-01  7.7181026127E-01
                       2.5023419682E-01  2.5179146897E-01  7.4820853103E-01
                       7.4820853103E-01  7.4976580318E-01  2.5023419682E-01
                       2.4979151023E-01  7.5020848977E-01  2.4979151023E-01
                       2.5023419682E-01  7.4976580318E-01  7.4820853103E-01
                       7.4820853103E-01  2.5179146897E-01  2.5023419682E-01
                      -8.4919025415E-03  8.4919025415E-03 -8.4919025415E-03
             xred9     2.4854775143E-01  2.5145224857E-01  2.4854775143E-01
                       7.4854775143E-01  7.5145224857E-01  7.4854775143E-01
                       7.7147932022E-01  2.2852067978E-01  7.7147932022E-01
                       2.5043777154E-01  2.5190368742E-01  7.4809631258E-01
                       7.4809631258E-01  7.4956222846E-01  2.5043777154E-01
                       2.4994454388E-01  7.5005545612E-01  2.4994454388E-01
                       2.5043777154E-01  7.4956222846E-01  7.4809631258E-01
                       7.4809631258E-01  2.5190368742E-01  2.5043777154E-01
                      -8.5633562535E-03  8.5633562535E-03 -8.5633562535E-03
             xred10    2.4863744820E-01  2.5136255180E-01  2.4863744820E-01
                       7.4863744820E-01  7.5136255180E-01  7.4863744820E-01
                       7.7111649963E-01  2.2888350037E-01  7.7111649963E-01
                       2.5063681491E-01  2.5201735862E-01  7.4798264138E-01
                       7.4798264138E-01  7.4936318509E-01  2.5063681491E-01
                       2.5007381896E-01  7.4992618104E-01  2.5007381896E-01
                       2.5063681491E-01  7.4936318509E-01  7.4798264138E-01
                       7.4798264138E-01  2.5201735862E-01  2.5063681491E-01
                      -8.6799485874E-03  8.6799485874E-03 -8.6799485874E-03
            znucl       55.00000   53.00000   72.00000   17.00000

================================================================================


- Timing analysis has been suppressed with timopt=0



================================================================================

 Suggested references for the acknowledgment of ABINIT usage.

 The users of ABINIT have little formal obligations with respect to the ABINIT group
 (those specified in the GNU General Public License, http://www.gnu.org/copyleft/gpl.txt).
 However, it is common practice in the scientific literature,
 to acknowledge the efforts of people that have made the research possible.
 In this spirit, please find below suggested citations of work written by ABINIT developers,
 corresponding to implementations inside of ABINIT that you have used in the present run.
 Note also that it will be of great value to readers of publications presenting these results,
 to read papers enabling them to understand the theoretical formalism and details
 of the ABINIT implementation.
 For information on why they are suggested, see also https://docs.abinit.org/theory/acknowledgments.
-
- [1] Implementation of the Projector Augmented-Wave Method in the ABINIT code.
- M. Torrent, F. Jollet, F. Bottin, G. Zerah, and X. Gonze Comput. Mat. Science 42, 337, (2008).
- Comment: PAW calculations. Strong suggestion to cite this paper.
- DOI and bibtex: see https://docs.abinit.org/theory/bibliography/#torrent2008
-
- [2] Libxc: A library of exchange and correlation functionals for density functional theory.
- M.A.L. Marques, M.J.T. Oliveira, T. Burnus, Computer Physics Communications 183, 2227 (2012).
- Comment: to be cited when LibXC is used (negative value of ixc)
- Strong suggestion to cite this paper.
- DOI and bibtex: see https://docs.abinit.org/theory/bibliography/#marques2012
-
- [3] The Abinit project: Impact, environment and recent developments.
- Computer Phys. Comm. 248, 107042 (2020).
- X.Gonze, B. Amadon, G. Antonius, F.Arnardi, L.Baguet, J.-M.Beuken,
- J.Bieder, F.Bottin, J.Bouchet, E.Bousquet, N.Brouwer, F.Bruneval,
- G.Brunin, T.Cavignac, J.-B. Charraud, Wei Chen, M.Cote, S.Cottenier,
- J.Denier, G.Geneste, Ph.Ghosez, M.Giantomassi, Y.Gillet, O.Gingras,
- D.R.Hamann, G.Hautier, Xu He, N.Helbig, N.Holzwarth, Y.Jia, F.Jollet,
- W.Lafargue-Dit-Hauret, K.Lejaeghere, M.A.L.Marques, A.Martin, C.Martins,
- H.P.C. Miranda, F.Naccarato, K. Persson, G.Petretto, V.Planes, Y.Pouillon,
- S.Prokhorenko, F.Ricci, G.-M.Rignanese, A.H.Romero, M.M.Schmitt, M.Torrent,
- M.J.van Setten, B.Van Troeye, M.J.Verstraete, G.Zerah and J.W.Zwanzig
- Comment: the fifth generic paper describing the ABINIT project.
- Note that a version of this paper, that is not formatted for Computer Phys. Comm. 
- is available at https://www.abinit.org/sites/default/files/ABINIT20.pdf .
- The licence allows the authors to put it on the Web.
- DOI and bibtex: see https://docs.abinit.org/theory/bibliography/#gonze2020
-
- [4] ABINIT: Overview, and focus on selected capabilities
- J. Chem. Phys. 152, 124102 (2020).
- A. Romero, D.C. Allan, B. Amadon, G. Antonius, T. Applencourt, L.Baguet,
- J.Bieder, F.Bottin, J.Bouchet, E.Bousquet, F.Bruneval,
- G.Brunin, D.Caliste, M.Cote,
- J.Denier, C. Dreyer, Ph.Ghosez, M.Giantomassi, Y.Gillet, O.Gingras,
- D.R.Hamann, G.Hautier, F.Jollet, G. Jomard,
- A.Martin, 
- H.P.C. Miranda, F.Naccarato, G.Petretto, N.A. Pike, V.Planes,
- S.Prokhorenko, T. Rangel, F.Ricci, G.-M.Rignanese, M.Royo, M.Stengel, M.Torrent,
- M.J.van Setten, B.Van Troeye, M.J.Verstraete, J.Wiktor, J.W.Zwanziger, and X.Gonze.
- Comment: a global overview of ABINIT, with focus on selected capabilities .
- Note that a version of this paper, that is not formatted for J. Chem. Phys 
- is available at https://www.abinit.org/sites/default/files/ABINIT20_JPC.pdf .
- The licence allows the authors to put it on the Web.
- DOI and bibtex: see https://docs.abinit.org/theory/bibliography/#romero2020
-
- [5] Recent developments in the ABINIT software package.
- Computer Phys. Comm. 205, 106 (2016).
- X.Gonze, F.Jollet, F.Abreu Araujo, D.Adams, B.Amadon, T.Applencourt,
- C.Audouze, J.-M.Beuken, J.Bieder, A.Bokhanchuk, E.Bousquet, F.Bruneval
- D.Caliste, M.Cote, F.Dahm, F.Da Pieve, M.Delaveau, M.Di Gennaro,
- B.Dorado, C.Espejo, G.Geneste, L.Genovese, A.Gerossier, M.Giantomassi,
- Y.Gillet, D.R.Hamann, L.He, G.Jomard, J.Laflamme Janssen, S.Le Roux,
- A.Levitt, A.Lherbier, F.Liu, I.Lukacevic, A.Martin, C.Martins,
- M.J.T.Oliveira, S.Ponce, Y.Pouillon, T.Rangel, G.-M.Rignanese,
- A.H.Romero, B.Rousseau, O.Rubel, A.A.Shukri, M.Stankovski, M.Torrent,
- M.J.Van Setten, B.Van Troeye, M.J.Verstraete, D.Waroquier, J.Wiktor,
- B.Xu, A.Zhou, J.W.Zwanziger.
- Comment: the fourth generic paper describing the ABINIT project.
- Note that a version of this paper, that is not formatted for Computer Phys. Comm. 
- is available at https://www.abinit.org/sites/default/files/ABINIT16.pdf .
- The licence allows the authors to put it on the Web.
- DOI and bibtex: see https://docs.abinit.org/theory/bibliography/#gonze2016
-
- Proc.   0 individual time (sec): cpu=      11524.3  wall=      11574.4

================================================================================

 Calculation completed.
.Delivered   0 WARNINGs and   5 COMMENTs to log file.
+Overall time at end (sec) : cpu=      46069.1  wall=      46297.7
